
     Program PWSCF v.7.2 starts on 13Mar2024 at  3:24:16 

     This program is part of the open-source Quantum ESPRESSO suite
     for quantum simulation of materials; please cite
         "P. Giannozzi et al., J. Phys.:Condens. Matter 21 395502 (2009);
         "P. Giannozzi et al., J. Phys.:Condens. Matter 29 465901 (2017);
         "P. Giannozzi et al., J. Chem. Phys. 152 154105 (2020);
          URL http://www.quantum-espresso.org", 
     in publications or presentations arising from this work. More details at
     http://www.quantum-espresso.org/quote

     Parallel version (MPI), running on    28 processors

     MPI processes distributed on     1 nodes
     150249 MiB available memory on the printing compute node when the environment starts
 
     Waiting for input...
     Reading input from standard input

     Current dimensions of program PWSCF are:
     Max number of different atomic species (ntypx) = 10
     Max number of k-points (npk) = 120000
     Max angular momentum in pseudopotentials (lmaxx) =  4
     file Zn.pbe-dnl-kjpaw_psl.1.0.0.UPF: wavefunction(s)  4S 3D renormalized
 
     K-points division:     npool     =       2
     R & G space division:  proc/nbgrp/npool/nimage =      14
     Subspace diagonalization in iterative solution of the eigenvalue problem:
     a serial algorithm will be used

 
     Parallelization info
     --------------------
     sticks:   dense  smooth     PW     G-vecs:    dense   smooth      PW
     Min          33      33      9                 1071     1071     179
     Max          34      34     10                 1077     1077     186
     Sum         463     463    139                15019    15019    2553
 
     Using Slab Decomposition
 


     bravais-lattice index     =            4
     lattice parameter (alat)  =       4.9000  a.u.
     unit-cell volume          =     189.5099 (a.u.)^3
     number of atoms/cell      =            2
     number of atomic types    =            1
     number of electrons       =        24.00
     number of Kohn-Sham states=           16
     kinetic-energy cutoff     =      70.0000  Ry
     charge density cutoff     =     280.0000  Ry
     scf convergence threshold =      4.0E-06
     mixing beta               =       0.7000
     number of iterations used =            8  plain     mixing
     Exchange-correlation= SLA  PW   PBX  PBC
                           (   1   4   3   4   0   0   0)

     celldm(1)=   4.900000  celldm(2)=   0.000000  celldm(3)=   1.860000
     celldm(4)=   0.000000  celldm(5)=   0.000000  celldm(6)=   0.000000

     crystal axes: (cart. coord. in units of alat)
               a(1) = (   1.000000   0.000000   0.000000 )  
               a(2) = (  -0.500000   0.866025   0.000000 )  
               a(3) = (   0.000000   0.000000   1.860000 )  

     reciprocal axes: (cart. coord. in units 2 pi/alat)
               b(1) = (  1.000000  0.577350  0.000000 )  
               b(2) = (  0.000000  1.154701  0.000000 )  
               b(3) = (  0.000000  0.000000  0.537634 )  


     PseudoPot. # 1 for Zn read from file:
     /truba/home/amuhaymin/ZnS/pseudo/QE/Zn.pbe-dnl-kjpaw_psl.1.0.0.UPF
     MD5 check sum: c608214d9520ac179f507641260889e3
     Pseudo is Projector augmented-wave + core cor, Zval = 12.0
     Generated using &quot;atomic&quot; code by A. Dal Corso  v.6.2.2
     Shape of augmentation charge: PSQ
     Using radial grid of 1201 points,  6 beta functions with: 
                l(1) =   0
                l(2) =   0
                l(3) =   1
                l(4) =   1
                l(5) =   2
                l(6) =   2
     Q(r) pseudized with 0 coefficients 


     atomic species   valence    mass     pseudopotential
        Zn            12.00    65.38000     Zn( 1.00)

     Starting magnetic structure 
     atomic species   magnetization
        Zn           0.000

     24 Sym. Ops., with inversion, found (12 have fractional translation)


                                    s                        frac. trans.

      isym =  1     identity                                     

 cryst.   s( 1) = (     1          0          0      )
                  (     0          1          0      )
                  (     0          0          1      )

 cart.    s( 1) = (  1.0000000  0.0000000  0.0000000 )
                  (  0.0000000  1.0000000  0.0000000 )
                  (  0.0000000  0.0000000  1.0000000 )


      isym =  2     180 deg rotation - cart. axis [0,0,1]        

 cryst.   s( 2) = (    -1          0          0      )    f =(  0.0000000 )
                  (     0         -1          0      )       (  0.0000000 )
                  (     0          0          1      )       ( -0.5000000 )

 cart.    s( 2) = ( -1.0000000  0.0000000  0.0000000 )    f =(  0.0000000 )
                  (  0.0000000 -1.0000000  0.0000000 )       (  0.0000000 )
                  (  0.0000000  0.0000000  1.0000000 )       ( -0.9300000 )


      isym =  3     180 deg rotation - cart. axis [0,1,0]        

 cryst.   s( 3) = (    -1          0          0      )    f =(  0.0000000 )
                  (     1          1          0      )       (  0.0000000 )
                  (     0          0         -1      )       (  0.5000000 )

 cart.    s( 3) = ( -1.0000000  0.0000000  0.0000000 )    f =(  0.0000000 )
                  (  0.0000000  1.0000000  0.0000000 )       (  0.0000000 )
                  (  0.0000000  0.0000000 -1.0000000 )       (  0.9300000 )


      isym =  4     180 deg rotation - cart. axis [1,0,0]        

 cryst.   s( 4) = (     1          0          0      )
                  (    -1         -1          0      )
                  (     0          0         -1      )

 cart.    s( 4) = (  1.0000000  0.0000000  0.0000000 )
                  (  0.0000000 -1.0000000  0.0000000 )
                  (  0.0000000  0.0000000 -1.0000000 )


      isym =  5      60 deg rotation - cryst. axis [0,0,1]       

 cryst.   s( 5) = (     1          1          0      )    f =(  0.0000000 )
                  (    -1          0          0      )       ( -0.0000000 )
                  (     0          0          1      )       ( -0.5000000 )

 cart.    s( 5) = (  0.5000000 -0.8660254  0.0000000 )    f =(  0.0000000 )
                  (  0.8660254  0.5000000  0.0000000 )       ( -0.0000000 )
                  (  0.0000000  0.0000000  1.0000000 )       ( -0.9300000 )


      isym =  6      60 deg rotation - cryst. axis [0,0,-1]      

 cryst.   s( 6) = (     0         -1          0      )    f =(  0.0000000 )
                  (     1          1          0      )       ( -0.0000000 )
                  (     0          0          1      )       ( -0.5000000 )

 cart.    s( 6) = (  0.5000000  0.8660254  0.0000000 )    f =(  0.0000000 )
                  ( -0.8660254  0.5000000  0.0000000 )       ( -0.0000000 )
                  (  0.0000000  0.0000000  1.0000000 )       ( -0.9300000 )


      isym =  7     120 deg rotation - cryst. axis [0,0,1]       

 cryst.   s( 7) = (     0          1          0      )
                  (    -1         -1          0      )
                  (     0          0          1      )

 cart.    s( 7) = ( -0.5000000 -0.8660254  0.0000000 )
                  (  0.8660254 -0.5000000  0.0000000 )
                  (  0.0000000  0.0000000  1.0000000 )


      isym =  8     120 deg rotation - cryst. axis [0,0,-1]      

 cryst.   s( 8) = (    -1         -1          0      )
                  (     1          0          0      )
                  (     0          0          1      )

 cart.    s( 8) = ( -0.5000000  0.8660254  0.0000000 )
                  ( -0.8660254 -0.5000000  0.0000000 )
                  (  0.0000000  0.0000000  1.0000000 )


      isym =  9     180 deg rotation - cryst. axis [1,-1,0]      

 cryst.   s( 9) = (     0         -1          0      )    f =(  0.0000000 )
                  (    -1          0          0      )       (  0.0000000 )
                  (     0          0         -1      )       (  0.5000000 )

 cart.    s( 9) = (  0.5000000 -0.8660254  0.0000000 )    f =(  0.0000000 )
                  ( -0.8660254 -0.5000000  0.0000000 )       (  0.0000000 )
                  (  0.0000000  0.0000000 -1.0000000 )       (  0.9300000 )


      isym = 10     180 deg rotation - cryst. axis [2,1,0]       

 cryst.   s(10) = (     1          1          0      )    f =(  0.0000000 )
                  (     0         -1          0      )       ( -0.0000000 )
                  (     0          0         -1      )       (  0.5000000 )

 cart.    s(10) = (  0.5000000  0.8660254  0.0000000 )    f =(  0.0000000 )
                  (  0.8660254 -0.5000000  0.0000000 )       ( -0.0000000 )
                  (  0.0000000  0.0000000 -1.0000000 )       (  0.9300000 )


      isym = 11     180 deg rotation - cryst. axis [0,1,0]       

 cryst.   s(11) = (    -1         -1          0      )
                  (     0          1          0      )
                  (     0          0         -1      )

 cart.    s(11) = ( -0.5000000 -0.8660254  0.0000000 )
                  ( -0.8660254  0.5000000  0.0000000 )
                  (  0.0000000  0.0000000 -1.0000000 )


      isym = 12     180 deg rotation - cryst. axis [1,1,0]       

 cryst.   s(12) = (     0          1          0      )
                  (     1          0          0      )
                  (     0          0         -1      )

 cart.    s(12) = ( -0.5000000  0.8660254  0.0000000 )
                  (  0.8660254  0.5000000  0.0000000 )
                  (  0.0000000  0.0000000 -1.0000000 )


      isym = 13     inversion                                    

 cryst.   s(13) = (    -1          0          0      )
                  (     0         -1          0      )
                  (     0          0         -1      )

 cart.    s(13) = ( -1.0000000  0.0000000  0.0000000 )
                  (  0.0000000 -1.0000000  0.0000000 )
                  (  0.0000000  0.0000000 -1.0000000 )


      isym = 14     inv. 180 deg rotation - cart. axis [0,0,1]   

 cryst.   s(14) = (     1          0          0      )    f =(  0.0000000 )
                  (     0          1          0      )       (  0.0000000 )
                  (     0          0         -1      )       (  0.5000000 )

 cart.    s(14) = (  1.0000000  0.0000000  0.0000000 )    f =(  0.0000000 )
                  (  0.0000000  1.0000000  0.0000000 )       (  0.0000000 )
                  (  0.0000000  0.0000000 -1.0000000 )       (  0.9300000 )


      isym = 15     inv. 180 deg rotation - cart. axis [0,1,0]   

 cryst.   s(15) = (     1          0          0      )    f =(  0.0000000 )
                  (    -1         -1          0      )       (  0.0000000 )
                  (     0          0          1      )       ( -0.5000000 )

 cart.    s(15) = (  1.0000000  0.0000000  0.0000000 )    f =(  0.0000000 )
                  (  0.0000000 -1.0000000  0.0000000 )       (  0.0000000 )
                  (  0.0000000  0.0000000  1.0000000 )       ( -0.9300000 )


      isym = 16     inv. 180 deg rotation - cart. axis [1,0,0]   

 cryst.   s(16) = (    -1          0          0      )
                  (     1          1          0      )
                  (     0          0          1      )

 cart.    s(16) = ( -1.0000000  0.0000000  0.0000000 )
                  (  0.0000000  1.0000000  0.0000000 )
                  (  0.0000000  0.0000000  1.0000000 )


      isym = 17     inv.  60 deg rotation - cryst. axis [0,0,1]  

 cryst.   s(17) = (    -1         -1          0      )    f =(  0.0000000 )
                  (     1          0          0      )       (  0.0000000 )
                  (     0          0         -1      )       (  0.5000000 )

 cart.    s(17) = ( -0.5000000  0.8660254  0.0000000 )    f =(  0.0000000 )
                  ( -0.8660254 -0.5000000  0.0000000 )       (  0.0000000 )
                  (  0.0000000  0.0000000 -1.0000000 )       (  0.9300000 )


      isym = 18     inv.  60 deg rotation - cryst. axis [0,0,-1] 

 cryst.   s(18) = (     0          1          0      )    f =(  0.0000000 )
                  (    -1         -1          0      )       ( -0.0000000 )
                  (     0          0         -1      )       (  0.5000000 )

 cart.    s(18) = ( -0.5000000 -0.8660254  0.0000000 )    f =(  0.0000000 )
                  (  0.8660254 -0.5000000  0.0000000 )       ( -0.0000000 )
                  (  0.0000000  0.0000000 -1.0000000 )       (  0.9300000 )


      isym = 19     inv. 120 deg rotation - cryst. axis [0,0,1]  

 cryst.   s(19) = (     0         -1          0      )
                  (     1          1          0      )
                  (     0          0         -1      )

 cart.    s(19) = (  0.5000000  0.8660254  0.0000000 )
                  ( -0.8660254  0.5000000  0.0000000 )
                  (  0.0000000  0.0000000 -1.0000000 )


      isym = 20     inv. 120 deg rotation - cryst. axis [0,0,-1] 

 cryst.   s(20) = (     1          1          0      )
                  (    -1          0          0      )
                  (     0          0         -1      )

 cart.    s(20) = (  0.5000000 -0.8660254  0.0000000 )
                  (  0.8660254  0.5000000  0.0000000 )
                  (  0.0000000  0.0000000 -1.0000000 )


      isym = 21     inv. 180 deg rotation - cryst. axis [1,-1,0] 

 cryst.   s(21) = (     0          1          0      )    f =(  0.0000000 )
                  (     1          0          0      )       ( -0.0000000 )
                  (     0          0          1      )       ( -0.5000000 )

 cart.    s(21) = ( -0.5000000  0.8660254  0.0000000 )    f =(  0.0000000 )
                  (  0.8660254  0.5000000  0.0000000 )       ( -0.0000000 )
                  (  0.0000000  0.0000000  1.0000000 )       ( -0.9300000 )


      isym = 22     inv. 180 deg rotation - cryst. axis [2,1,0]  

 cryst.   s(22) = (    -1         -1          0      )    f =(  0.0000000 )
                  (     0          1          0      )       ( -0.0000000 )
                  (     0          0          1      )       ( -0.5000000 )

 cart.    s(22) = ( -0.5000000 -0.8660254  0.0000000 )    f =(  0.0000000 )
                  ( -0.8660254  0.5000000  0.0000000 )       ( -0.0000000 )
                  (  0.0000000  0.0000000  1.0000000 )       ( -0.9300000 )


      isym = 23     inv. 180 deg rotation - cryst. axis [0,1,0]  

 cryst.   s(23) = (     1          1          0      )
                  (     0         -1          0      )
                  (     0          0          1      )

 cart.    s(23) = (  0.5000000  0.8660254  0.0000000 )
                  (  0.8660254 -0.5000000  0.0000000 )
                  (  0.0000000  0.0000000  1.0000000 )


      isym = 24     inv. 180 deg rotation - cryst. axis [1,1,0]  

 cryst.   s(24) = (     0         -1          0      )
                  (    -1          0          0      )
                  (     0          0          1      )

 cart.    s(24) = (  0.5000000 -0.8660254  0.0000000 )
                  ( -0.8660254 -0.5000000  0.0000000 )
                  (  0.0000000  0.0000000  1.0000000 )


     point group D_6h(6/mmm)
     there are 12 classes
     the character table:

       E     2C6   2C3   C2    3C2'  3C2'' i     2S3   2S6   s_h   3s_d  3s_v 
A_1g   1.00  1.00  1.00  1.00  1.00  1.00  1.00  1.00  1.00  1.00  1.00  1.00
A_2g   1.00  1.00  1.00  1.00 -1.00 -1.00  1.00  1.00  1.00  1.00 -1.00 -1.00
B_1g   1.00 -1.00  1.00 -1.00  1.00 -1.00  1.00 -1.00  1.00 -1.00  1.00 -1.00
B_2g   1.00 -1.00  1.00 -1.00 -1.00  1.00  1.00 -1.00  1.00 -1.00 -1.00  1.00
E_1g   2.00  1.00 -1.00 -2.00  0.00  0.00  2.00  1.00 -1.00 -2.00  0.00  0.00
E_2g   2.00 -1.00 -1.00  2.00  0.00  0.00  2.00 -1.00 -1.00  2.00  0.00  0.00
A_1u   1.00  1.00  1.00  1.00  1.00  1.00 -1.00 -1.00 -1.00 -1.00 -1.00 -1.00
A_2u   1.00  1.00  1.00  1.00 -1.00 -1.00 -1.00 -1.00 -1.00 -1.00  1.00  1.00
B_1u   1.00 -1.00  1.00 -1.00  1.00 -1.00 -1.00  1.00 -1.00  1.00 -1.00  1.00
B_2u   1.00 -1.00  1.00 -1.00 -1.00  1.00 -1.00  1.00 -1.00  1.00  1.00 -1.00
E_1u   2.00  1.00 -1.00 -2.00  0.00  0.00 -2.00 -1.00  1.00  2.00  0.00  0.00
E_2u   2.00 -1.00 -1.00  2.00  0.00  0.00 -2.00  1.00  1.00 -2.00  0.00  0.00

     the symmetry operations in each class and the name of the first element:

     E        1
          identity                                               
     2C6      5    6
           60 deg rotation - cryst. axis [0,0,1]                 
     2C3      7    8
          120 deg rotation - cryst. axis [0,0,1]                 
     C2       2
          180 deg rotation - cart. axis [0,0,1]                  
     3C2'     4   12   11
          180 deg rotation - cart. axis [1,0,0]                  
     3C2''    3    9   10
          180 deg rotation - cart. axis [0,1,0]                  
     i       13
          inversion                                              
     2S3     17   18
          inv.  60 deg rotation - cryst. axis [0,0,1]            
     2S6     19   20
          inv. 120 deg rotation - cryst. axis [0,0,1]            
     s_h     14
          inv. 180 deg rotation - cart. axis [0,0,1]             
     3s_d    16   24   23
          inv. 180 deg rotation - cart. axis [1,0,0]             
     3s_v    15   21   22
          inv. 180 deg rotation - cart. axis [0,1,0]             

   Cartesian axes

     site n.     atom                  positions (alat units)
         1           Zn  tau(   1) = (  -0.0000000   0.5773503   0.4650000  )
         2           Zn  tau(   2) = (   0.5000000   0.2886751   1.3950000  )

   Crystallographic axes

     site n.     atom                  positions (cryst. coord.)
         1           Zn  tau(   1) = (  0.3333333  0.6666667  0.2500000  )
         2           Zn  tau(   2) = (  0.6666667  0.3333333  0.7500000  )

     number of k points=    96  Marzari-Vanderbilt smearing, width (Ry)=  0.0005
                       cart. coord. in units 2pi/alat
        k(    1) = (   0.0000000   0.0000000   0.0000000), wk =   0.0007289
        k(    2) = (   0.0000000   0.0000000   0.0768049), wk =   0.0014577
        k(    3) = (   0.0000000   0.0000000   0.1536098), wk =   0.0014577
        k(    4) = (   0.0000000   0.0000000   0.2304147), wk =   0.0014577
        k(    5) = (   0.0000000   0.0824786   0.0000000), wk =   0.0043732
        k(    6) = (   0.0000000   0.0824786   0.0768049), wk =   0.0087464
        k(    7) = (   0.0000000   0.0824786   0.1536098), wk =   0.0087464
        k(    8) = (   0.0000000   0.0824786   0.2304147), wk =   0.0087464
        k(    9) = (   0.0000000   0.1649572   0.0000000), wk =   0.0043732
        k(   10) = (   0.0000000   0.1649572   0.0768049), wk =   0.0087464
        k(   11) = (   0.0000000   0.1649572   0.1536098), wk =   0.0087464
        k(   12) = (   0.0000000   0.1649572   0.2304147), wk =   0.0087464
        k(   13) = (   0.0000000   0.2474358   0.0000000), wk =   0.0043732
        k(   14) = (   0.0000000   0.2474358   0.0768049), wk =   0.0087464
        k(   15) = (   0.0000000   0.2474358   0.1536098), wk =   0.0087464
        k(   16) = (   0.0000000   0.2474358   0.2304147), wk =   0.0087464
        k(   17) = (   0.0000000   0.3299144   0.0000000), wk =   0.0043732
        k(   18) = (   0.0000000   0.3299144   0.0768049), wk =   0.0087464
        k(   19) = (   0.0000000   0.3299144   0.1536098), wk =   0.0087464
        k(   20) = (   0.0000000   0.3299144   0.2304147), wk =   0.0087464
        k(   21) = (   0.0000000   0.4123930   0.0000000), wk =   0.0043732
        k(   22) = (   0.0000000   0.4123930   0.0768049), wk =   0.0087464
        k(   23) = (   0.0000000   0.4123930   0.1536098), wk =   0.0087464
        k(   24) = (   0.0000000   0.4123930   0.2304147), wk =   0.0087464
        k(   25) = (   0.0000000   0.4948717   0.0000000), wk =   0.0043732
        k(   26) = (   0.0000000   0.4948717   0.0768049), wk =   0.0087464
        k(   27) = (   0.0000000   0.4948717   0.1536098), wk =   0.0087464
        k(   28) = (   0.0000000   0.4948717   0.2304147), wk =   0.0087464
        k(   29) = (   0.0000000  -0.5773503   0.0000000), wk =   0.0021866
        k(   30) = (   0.0000000  -0.5773503   0.0768049), wk =   0.0043732
        k(   31) = (   0.0000000  -0.5773503   0.1536098), wk =   0.0043732
        k(   32) = (   0.0000000  -0.5773503   0.2304147), wk =   0.0043732
        k(   33) = (   0.0714286   0.1237179   0.0000000), wk =   0.0043732
        k(   34) = (   0.0714286   0.1237179   0.0768049), wk =   0.0087464
        k(   35) = (   0.0714286   0.1237179   0.1536098), wk =   0.0087464
        k(   36) = (   0.0714286   0.1237179   0.2304147), wk =   0.0087464
        k(   37) = (   0.0714286   0.2061965   0.0000000), wk =   0.0087464
        k(   38) = (   0.0714286   0.2061965   0.0768049), wk =   0.0174927
        k(   39) = (   0.0714286   0.2061965   0.1536098), wk =   0.0174927
        k(   40) = (   0.0714286   0.2061965   0.2304147), wk =   0.0174927
        k(   41) = (   0.0714286   0.2886751   0.0000000), wk =   0.0087464
        k(   42) = (   0.0714286   0.2886751   0.0768049), wk =   0.0174927
        k(   43) = (   0.0714286   0.2886751   0.1536098), wk =   0.0174927
        k(   44) = (   0.0714286   0.2886751   0.2304147), wk =   0.0174927
        k(   45) = (   0.0714286   0.3711537   0.0000000), wk =   0.0087464
        k(   46) = (   0.0714286   0.3711537   0.0768049), wk =   0.0174927
        k(   47) = (   0.0714286   0.3711537   0.1536098), wk =   0.0174927
        k(   48) = (   0.0714286   0.3711537   0.2304147), wk =   0.0174927
        k(   49) = (   0.0714286   0.4536324   0.0000000), wk =   0.0087464
        k(   50) = (   0.0714286   0.4536324   0.0768049), wk =   0.0174927
        k(   51) = (   0.0714286   0.4536324   0.1536098), wk =   0.0174927
        k(   52) = (   0.0714286   0.4536324   0.2304147), wk =   0.0174927
        k(   53) = (   0.0714286   0.5361110   0.0000000), wk =   0.0087464
        k(   54) = (   0.0714286   0.5361110   0.0768049), wk =   0.0174927
        k(   55) = (   0.0714286   0.5361110   0.1536098), wk =   0.0174927
        k(   56) = (   0.0714286   0.5361110   0.2304147), wk =   0.0174927
        k(   57) = (   0.1428571   0.2474358   0.0000000), wk =   0.0043732
        k(   58) = (   0.1428571   0.2474358   0.0768049), wk =   0.0087464
        k(   59) = (   0.1428571   0.2474358   0.1536098), wk =   0.0087464
        k(   60) = (   0.1428571   0.2474358   0.2304147), wk =   0.0087464
        k(   61) = (   0.1428571   0.3299144   0.0000000), wk =   0.0087464
        k(   62) = (   0.1428571   0.3299144   0.0768049), wk =   0.0174927
        k(   63) = (   0.1428571   0.3299144   0.1536098), wk =   0.0174927
        k(   64) = (   0.1428571   0.3299144   0.2304147), wk =   0.0174927
        k(   65) = (   0.1428571   0.4123930   0.0000000), wk =   0.0087464
        k(   66) = (   0.1428571   0.4123930   0.0768049), wk =   0.0174927
        k(   67) = (   0.1428571   0.4123930   0.1536098), wk =   0.0174927
        k(   68) = (   0.1428571   0.4123930   0.2304147), wk =   0.0174927
        k(   69) = (   0.1428571   0.4948717   0.0000000), wk =   0.0087464
        k(   70) = (   0.1428571   0.4948717   0.0768049), wk =   0.0174927
        k(   71) = (   0.1428571   0.4948717   0.1536098), wk =   0.0174927
        k(   72) = (   0.1428571   0.4948717   0.2304147), wk =   0.0174927
        k(   73) = (   0.1428571   0.5773503   0.0000000), wk =   0.0043732
        k(   74) = (   0.1428571   0.5773503   0.0768049), wk =   0.0087464
        k(   75) = (   0.1428571   0.5773503   0.1536098), wk =   0.0087464
        k(   76) = (   0.1428571   0.5773503   0.2304147), wk =   0.0087464
        k(   77) = (   0.2142857   0.3711537   0.0000000), wk =   0.0043732
        k(   78) = (   0.2142857   0.3711537   0.0768049), wk =   0.0087464
        k(   79) = (   0.2142857   0.3711537   0.1536098), wk =   0.0087464
        k(   80) = (   0.2142857   0.3711537   0.2304147), wk =   0.0087464
        k(   81) = (   0.2142857   0.4536324   0.0000000), wk =   0.0087464
        k(   82) = (   0.2142857   0.4536324   0.0768049), wk =   0.0174927
        k(   83) = (   0.2142857   0.4536324   0.1536098), wk =   0.0174927
        k(   84) = (   0.2142857   0.4536324   0.2304147), wk =   0.0174927
        k(   85) = (   0.2142857   0.5361110   0.0000000), wk =   0.0087464
        k(   86) = (   0.2142857   0.5361110   0.0768049), wk =   0.0174927
        k(   87) = (   0.2142857   0.5361110   0.1536098), wk =   0.0174927
        k(   88) = (   0.2142857   0.5361110   0.2304147), wk =   0.0174927
        k(   89) = (   0.2857143   0.4948717   0.0000000), wk =   0.0043732
        k(   90) = (   0.2857143   0.4948717   0.0768049), wk =   0.0087464
        k(   91) = (   0.2857143   0.4948717   0.1536098), wk =   0.0087464
        k(   92) = (   0.2857143   0.4948717   0.2304147), wk =   0.0087464
        k(   93) = (   0.2857143   0.5773503   0.0000000), wk =   0.0043732
        k(   94) = (   0.2857143   0.5773503   0.0768049), wk =   0.0087464
        k(   95) = (   0.2857143   0.5773503   0.1536098), wk =   0.0087464
        k(   96) = (   0.2857143   0.5773503   0.2304147), wk =   0.0087464

                       cryst. coord.
        k(    1) = (   0.0000000   0.0000000   0.0000000), wk =   0.0007289
        k(    2) = (   0.0000000   0.0000000   0.1428571), wk =   0.0014577
        k(    3) = (   0.0000000   0.0000000   0.2857143), wk =   0.0014577
        k(    4) = (   0.0000000   0.0000000   0.4285714), wk =   0.0014577
        k(    5) = (   0.0000000   0.0714286   0.0000000), wk =   0.0043732
        k(    6) = (   0.0000000   0.0714286   0.1428571), wk =   0.0087464
        k(    7) = (   0.0000000   0.0714286   0.2857143), wk =   0.0087464
        k(    8) = (   0.0000000   0.0714286   0.4285714), wk =   0.0087464
        k(    9) = (   0.0000000   0.1428571   0.0000000), wk =   0.0043732
        k(   10) = (   0.0000000   0.1428571   0.1428571), wk =   0.0087464
        k(   11) = (   0.0000000   0.1428571   0.2857143), wk =   0.0087464
        k(   12) = (   0.0000000   0.1428571   0.4285714), wk =   0.0087464
        k(   13) = (   0.0000000   0.2142857   0.0000000), wk =   0.0043732
        k(   14) = (   0.0000000   0.2142857   0.1428571), wk =   0.0087464
        k(   15) = (   0.0000000   0.2142857   0.2857143), wk =   0.0087464
        k(   16) = (   0.0000000   0.2142857   0.4285714), wk =   0.0087464
        k(   17) = (   0.0000000   0.2857143   0.0000000), wk =   0.0043732
        k(   18) = (   0.0000000   0.2857143   0.1428571), wk =   0.0087464
        k(   19) = (   0.0000000   0.2857143   0.2857143), wk =   0.0087464
        k(   20) = (   0.0000000   0.2857143   0.4285714), wk =   0.0087464
        k(   21) = (   0.0000000   0.3571429   0.0000000), wk =   0.0043732
        k(   22) = (   0.0000000   0.3571429   0.1428571), wk =   0.0087464
        k(   23) = (   0.0000000   0.3571429   0.2857143), wk =   0.0087464
        k(   24) = (   0.0000000   0.3571429   0.4285714), wk =   0.0087464
        k(   25) = (   0.0000000   0.4285714   0.0000000), wk =   0.0043732
        k(   26) = (   0.0000000   0.4285714   0.1428571), wk =   0.0087464
        k(   27) = (   0.0000000   0.4285714   0.2857143), wk =   0.0087464
        k(   28) = (   0.0000000   0.4285714   0.4285714), wk =   0.0087464
        k(   29) = (   0.0000000  -0.5000000   0.0000000), wk =   0.0021866
        k(   30) = (   0.0000000  -0.5000000   0.1428571), wk =   0.0043732
        k(   31) = (   0.0000000  -0.5000000   0.2857143), wk =   0.0043732
        k(   32) = (   0.0000000  -0.5000000   0.4285714), wk =   0.0043732
        k(   33) = (   0.0714286   0.0714286   0.0000000), wk =   0.0043732
        k(   34) = (   0.0714286   0.0714286   0.1428571), wk =   0.0087464
        k(   35) = (   0.0714286   0.0714286   0.2857143), wk =   0.0087464
        k(   36) = (   0.0714286   0.0714286   0.4285714), wk =   0.0087464
        k(   37) = (   0.0714286   0.1428571   0.0000000), wk =   0.0087464
        k(   38) = (   0.0714286   0.1428571   0.1428571), wk =   0.0174927
        k(   39) = (   0.0714286   0.1428571   0.2857143), wk =   0.0174927
        k(   40) = (   0.0714286   0.1428571   0.4285714), wk =   0.0174927
        k(   41) = (   0.0714286   0.2142857   0.0000000), wk =   0.0087464
        k(   42) = (   0.0714286   0.2142857   0.1428571), wk =   0.0174927
        k(   43) = (   0.0714286   0.2142857   0.2857143), wk =   0.0174927
        k(   44) = (   0.0714286   0.2142857   0.4285714), wk =   0.0174927
        k(   45) = (   0.0714286   0.2857143   0.0000000), wk =   0.0087464
        k(   46) = (   0.0714286   0.2857143   0.1428571), wk =   0.0174927
        k(   47) = (   0.0714286   0.2857143   0.2857143), wk =   0.0174927
        k(   48) = (   0.0714286   0.2857143   0.4285714), wk =   0.0174927
        k(   49) = (   0.0714286   0.3571429   0.0000000), wk =   0.0087464
        k(   50) = (   0.0714286   0.3571429   0.1428571), wk =   0.0174927
        k(   51) = (   0.0714286   0.3571429   0.2857143), wk =   0.0174927
        k(   52) = (   0.0714286   0.3571429   0.4285714), wk =   0.0174927
        k(   53) = (   0.0714286   0.4285714   0.0000000), wk =   0.0087464
        k(   54) = (   0.0714286   0.4285714   0.1428571), wk =   0.0174927
        k(   55) = (   0.0714286   0.4285714   0.2857143), wk =   0.0174927
        k(   56) = (   0.0714286   0.4285714   0.4285714), wk =   0.0174927
        k(   57) = (   0.1428571   0.1428571   0.0000000), wk =   0.0043732
        k(   58) = (   0.1428571   0.1428571   0.1428571), wk =   0.0087464
        k(   59) = (   0.1428571   0.1428571   0.2857143), wk =   0.0087464
        k(   60) = (   0.1428571   0.1428571   0.4285714), wk =   0.0087464
        k(   61) = (   0.1428571   0.2142857   0.0000000), wk =   0.0087464
        k(   62) = (   0.1428571   0.2142857   0.1428571), wk =   0.0174927
        k(   63) = (   0.1428571   0.2142857   0.2857143), wk =   0.0174927
        k(   64) = (   0.1428571   0.2142857   0.4285714), wk =   0.0174927
        k(   65) = (   0.1428571   0.2857143   0.0000000), wk =   0.0087464
        k(   66) = (   0.1428571   0.2857143   0.1428571), wk =   0.0174927
        k(   67) = (   0.1428571   0.2857143   0.2857143), wk =   0.0174927
        k(   68) = (   0.1428571   0.2857143   0.4285714), wk =   0.0174927
        k(   69) = (   0.1428571   0.3571429   0.0000000), wk =   0.0087464
        k(   70) = (   0.1428571   0.3571429   0.1428571), wk =   0.0174927
        k(   71) = (   0.1428571   0.3571429   0.2857143), wk =   0.0174927
        k(   72) = (   0.1428571   0.3571429   0.4285714), wk =   0.0174927
        k(   73) = (   0.1428571   0.4285714   0.0000000), wk =   0.0043732
        k(   74) = (   0.1428571   0.4285714   0.1428571), wk =   0.0087464
        k(   75) = (   0.1428571   0.4285714   0.2857143), wk =   0.0087464
        k(   76) = (   0.1428571   0.4285714   0.4285714), wk =   0.0087464
        k(   77) = (   0.2142857   0.2142857   0.0000000), wk =   0.0043732
        k(   78) = (   0.2142857   0.2142857   0.1428571), wk =   0.0087464
        k(   79) = (   0.2142857   0.2142857   0.2857143), wk =   0.0087464
        k(   80) = (   0.2142857   0.2142857   0.4285714), wk =   0.0087464
        k(   81) = (   0.2142857   0.2857143   0.0000000), wk =   0.0087464
        k(   82) = (   0.2142857   0.2857143   0.1428571), wk =   0.0174927
        k(   83) = (   0.2142857   0.2857143   0.2857143), wk =   0.0174927
        k(   84) = (   0.2142857   0.2857143   0.4285714), wk =   0.0174927
        k(   85) = (   0.2142857   0.3571429   0.0000000), wk =   0.0087464
        k(   86) = (   0.2142857   0.3571429   0.1428571), wk =   0.0174927
        k(   87) = (   0.2142857   0.3571429   0.2857143), wk =   0.0174927
        k(   88) = (   0.2142857   0.3571429   0.4285714), wk =   0.0174927
        k(   89) = (   0.2857143   0.2857143   0.0000000), wk =   0.0043732
        k(   90) = (   0.2857143   0.2857143   0.1428571), wk =   0.0087464
        k(   91) = (   0.2857143   0.2857143   0.2857143), wk =   0.0087464
        k(   92) = (   0.2857143   0.2857143   0.4285714), wk =   0.0087464
        k(   93) = (   0.2857143   0.3571429   0.0000000), wk =   0.0043732
        k(   94) = (   0.2857143   0.3571429   0.1428571), wk =   0.0087464
        k(   95) = (   0.2857143   0.3571429   0.2857143), wk =   0.0087464
        k(   96) = (   0.2857143   0.3571429   0.4285714), wk =   0.0087464

     Dense  grid:    15019 G-vectors     FFT dimensions: (  27,  27,  50)

     Dynamical RAM for                 wfc:       0.03 MB

     Dynamical RAM for     wfc (w. buffer):       3.15 MB

     Dynamical RAM for           str. fact:       0.02 MB

     Dynamical RAM for           local pot:       0.00 MB

     Dynamical RAM for          nlocal pot:       0.07 MB

     Dynamical RAM for                qrad:       1.34 MB

     Dynamical RAM for          rho,v,vnew:       0.23 MB

     Dynamical RAM for               rhoin:       0.08 MB

     Dynamical RAM for            rho*nmix:       0.52 MB

     Dynamical RAM for           G-vectors:       0.07 MB

     Dynamical RAM for          h,s,v(r/c):       0.05 MB

     Dynamical RAM for          <psi|beta>:       0.01 MB

     Dynamical RAM for                 psi:       0.06 MB

     Dynamical RAM for                hpsi:       0.06 MB

     Dynamical RAM for                spsi:       0.06 MB

     Dynamical RAM for      wfcinit/wfcrot:       0.07 MB

     Dynamical RAM for           addusdens:       1.56 MB

     Estimated static dynamical RAM per process >       5.13 MB

     Estimated max dynamical RAM per process >       7.21 MB

     Estimated total dynamical RAM >     194.64 MB

     Check: negative core charge=   -0.000003
     Generating pointlists ...
     new r_m :   0.4125 (alat units)  2.0213 (a.u.) for type    1

     The initial density is read from file :
     ./out/Zn.save/charge-density


     starting charge      24.1297, renormalised to      24.0000

     negative rho (up, down):  6.114E-01 6.114E-01
     Starting wfcs from file
     Checking if some PAW data can be deallocated... 

     total cpu time spent up to now is        0.5 secs

     Self-consistent Calculation

     iteration #  1     ecut=    70.00 Ry     beta= 0.70
     Davidson diagonalization with overlap

---- Real-time Memory Report at c_bands before calling an iterative solver
            59 MiB given to the printing process from OS
             0 MiB allocation reported by mallinfo(arena+hblkhd)
        149530 MiB available memory on the node where the printing process lives
------------------
     c_bands:  2 eigenvalues not converged
     ethr =  1.00E-05,  avg # of iterations = 10.3

     negative rho (up, down):  1.551E-02 1.551E-02

     total cpu time spent up to now is        2.8 secs

     total energy              =    -487.26766415 Ry
     estimated scf accuracy    <       0.40034302 Ry

     total magnetization       =     0.00 Bohr mag/cell
     absolute magnetization    =     0.00 Bohr mag/cell

     iteration #  2     ecut=    70.00 Ry     beta= 0.70
     Davidson diagonalization with overlap

---- Real-time Memory Report at c_bands before calling an iterative solver
            79 MiB given to the printing process from OS
             0 MiB allocation reported by mallinfo(arena+hblkhd)
        149238 MiB available memory on the node where the printing process lives
------------------
     ethr =  1.67E-03,  avg # of iterations =  1.0

     total cpu time spent up to now is        3.6 secs

     total energy              =    -487.43849028 Ry
     estimated scf accuracy    <       0.03520286 Ry

     total magnetization       =     0.00 Bohr mag/cell
     absolute magnetization    =     0.00 Bohr mag/cell

     iteration #  3     ecut=    70.00 Ry     beta= 0.70
     Davidson diagonalization with overlap

---- Real-time Memory Report at c_bands before calling an iterative solver
            80 MiB given to the printing process from OS
             0 MiB allocation reported by mallinfo(arena+hblkhd)
        149223 MiB available memory on the node where the printing process lives
------------------
     ethr =  1.47E-04,  avg # of iterations =  2.3

     total cpu time spent up to now is        4.5 secs

     total energy              =    -487.44323925 Ry
     estimated scf accuracy    <       0.00048345 Ry

     total magnetization       =     0.00 Bohr mag/cell
     absolute magnetization    =     0.00 Bohr mag/cell

     iteration #  4     ecut=    70.00 Ry     beta= 0.70
     Davidson diagonalization with overlap

---- Real-time Memory Report at c_bands before calling an iterative solver
            80 MiB given to the printing process from OS
             0 MiB allocation reported by mallinfo(arena+hblkhd)
        149212 MiB available memory on the node where the printing process lives
------------------
     ethr =  2.01E-06,  avg # of iterations =  5.8

     total cpu time spent up to now is        5.8 secs

     total energy              =    -487.44357941 Ry
     estimated scf accuracy    <       0.00062441 Ry

     total magnetization       =     0.00 Bohr mag/cell
     absolute magnetization    =     0.00 Bohr mag/cell

     iteration #  5     ecut=    70.00 Ry     beta= 0.70
     Davidson diagonalization with overlap

---- Real-time Memory Report at c_bands before calling an iterative solver
            80 MiB given to the printing process from OS
             0 MiB allocation reported by mallinfo(arena+hblkhd)
        149205 MiB available memory on the node where the printing process lives
------------------
     ethr =  2.01E-06,  avg # of iterations =  2.0
 
     Magnetic moment per site  (integrated on atomic sphere of radius R)
     atom   1 (R=0.413)  charge= 10.6360  magn=  0.0000
     atom   2 (R=0.413)  charge= 10.6360  magn=  0.0000

     total cpu time spent up to now is        6.7 secs

     End of self-consistent calculation

 ------ SPIN UP ------------


          k = 0.0000 0.0000 0.0000 (  1909 PWs)   bands (ev):

     1.2745   3.3958   4.2463   4.5207   4.5208   4.5797   4.5797   4.9642
     4.9643   5.2049   5.2050   8.2785   9.3710  26.5746  30.2054  30.8154

     occupation numbers 
     1.0000   1.0000   1.0000   1.0000   1.0000   1.0000   1.0000   1.0000
     1.0000   1.0000   1.0000   1.0000   1.0000   0.0000   0.0000   0.0000

          k = 0.0000 0.0000 0.0768 (  1890 PWs)   bands (ev):

     1.4051   3.3733   4.2473   4.5190   4.5190   4.5732   4.5732   4.9808
     4.9809   5.1965   5.1967   6.9816  10.9601  24.5346  30.9483  30.9485

     occupation numbers 
     1.0000   1.0000   1.0000   1.0000   1.0000   1.0000   1.0000   1.0000
     1.0000   1.0000   1.0000   1.0000   1.0000   0.0000   0.0000   0.0000

          k = 0.0000 0.0000 0.1536 (  1902 PWs)   bands (ev):

     1.7845   3.2659   4.2649   4.5177   4.5177   4.5568   4.5568   5.0238
     5.0239   5.1715   5.1717   5.6114  13.2424  21.5118  31.3333  31.3334

     occupation numbers 
     1.0000   1.0000   1.0000   1.0000   1.0000   1.0000   1.0000   1.0000
     1.0000   1.0000   1.0000   1.0000   0.0000   0.0000   0.0000   0.0000

          k = 0.0000 0.0000 0.2304 (  1902 PWs)   bands (ev):

     2.3554   2.9377   4.3609   4.5233   4.5233   4.5376   4.5377   4.7208
     5.0784   5.0785   5.1307   5.1309  15.7885  18.5581  31.9078  31.9079

     occupation numbers 
     1.0000   1.0000   1.0000   1.0000   1.0000   1.0000   1.0000   1.0000
     1.0000   1.0000   1.0000   1.0000   0.0000   0.0000   0.0000   0.0000

          k = 0.0000 0.0825 0.0000 (  1881 PWs)   bands (ev):

     1.4346   3.4720   4.2644   4.5028   4.5603   4.5618   4.6188   4.9248
     4.9477   5.0940   5.2069   8.5567   9.4474  26.7551  28.0695  29.3973

     occupation numbers 
     1.0000   1.0000   1.0000   1.0000   1.0000   1.0000   1.0000   1.0000
     1.0000   1.0000   1.0000   1.0000   1.0000   0.0000   0.0000   0.0000

          k = 0.0000 0.0825 0.0768 (  1893 PWs)   bands (ev):

     1.5643   3.4542   4.2643   4.4986   4.5520   4.5596   4.6121   4.9455
     4.9658   5.0732   5.1978   7.2023  11.1034  24.6846  28.2264  29.5364

     occupation numbers 
     1.0000   1.0000   1.0000   1.0000   1.0000   1.0000   1.0000   1.0000
     1.0000   1.0000   1.0000   1.0000   1.0000   0.0000   0.0000   0.0000

          k = 0.0000 0.0825 0.1536 (  1901 PWs)   bands (ev):

     1.9405   3.3638   4.2754   4.4937   4.5308   4.5573   4.5954   4.9538
     5.0121   5.0237   5.1704   5.8852  13.3919  21.6586  28.6171  29.9502

     occupation numbers 
     1.0000   1.0000   1.0000   1.0000   1.0000   1.0000   1.0000   1.0000
     1.0000   1.0000   1.0000   1.0000   0.0000   0.0000   0.0000   0.0000

          k = 0.0000 0.0825 0.2304 (  1896 PWs)   bands (ev):

     2.5035   3.0651   4.3475   4.4968   4.5037   4.5622   4.5762   4.6411
     5.0704   5.0987   5.1264   5.2577  15.9378  18.7059  29.2538  30.1244

     occupation numbers 
     1.0000   1.0000   1.0000   1.0000   1.0000   1.0000   1.0000   1.0000
     1.0000   1.0000   1.0000   1.0000   0.0000   0.0000   0.0000   0.0000

          k = 0.0000 0.1650 0.0000 (  1883 PWs)   bands (ev):

     1.9043   3.6666   4.2960   4.4644   4.5414   4.6788   4.7297   4.7470
     4.9044   4.9239   5.2098   9.2921   9.6958  24.5216  27.2579  27.6144

     occupation numbers 
     1.0000   1.0000   1.0000   1.0000   1.0000   1.0000   1.0000   1.0000
     1.0000   1.0000   1.0000   1.0000   1.0000   0.0000   0.0000   0.0000

          k = 0.0000 0.1650 0.0768 (  1887 PWs)   bands (ev):

     2.0302   3.6614   4.2973   4.4515   4.5186   4.6740   4.7221   4.7518
     4.9275   4.9334   5.1987   7.7440  11.5430  24.5762  25.2243  27.7619

     occupation numbers 
     1.0000   1.0000   1.0000   1.0000   1.0000   1.0000   1.0000   1.0000
     1.0000   1.0000   1.0000   1.0000   1.0000   0.0000   0.0000   0.0000

          k = 0.0000 0.1650 0.1536 (  1890 PWs)   bands (ev):

     2.3922   3.6162   4.2981   4.4299   4.4722   4.6680   4.6906   4.7043
     4.9832   5.0038   5.1661   6.3846  13.8400  22.0784  25.0929  27.7750

     occupation numbers 
     1.0000   1.0000   1.0000   1.0000   1.0000   1.0000   1.0000   1.0000
     1.0000   1.0000   1.0000   1.0000   0.0000   0.0000   0.0000   0.0000

          k = 0.0000 0.1650 0.2304 (  1880 PWs)   bands (ev):

     2.9206   3.4054   4.3109   4.3805   4.4626   4.5454   4.6710   4.6847
     5.0505   5.1147   5.1690   5.5383  16.3815  19.1412  25.7382  26.6401

     occupation numbers 
     1.0000   1.0000   1.0000   1.0000   1.0000   1.0000   1.0000   1.0000
     1.0000   1.0000   1.0000   1.0000   0.0000   0.0000   0.0000   0.0000

          k = 0.0000 0.2474 0.0000 (  1879 PWs)   bands (ev):

     2.6310   3.8522   4.3332   4.4200   4.4720   4.6580   4.8042   4.8467
     4.8525   4.8937   5.2093  10.1692  10.3454  21.1258  26.0452  27.0057

     occupation numbers 
     1.0000   1.0000   1.0000   1.0000   1.0000   1.0000   1.0000   1.0000
     1.0000   1.0000   1.0000   1.0000   1.0000   0.0000   0.0000   0.0000

          k = 0.0000 0.2474 0.0768 (  1886 PWs)   bands (ev):

     2.7420   3.8592   4.3310   4.3900   4.4623   4.6459   4.8208   4.8582
     4.8760   4.9081   5.1963   8.4993  12.2936  21.2516  25.7421  25.8249

     occupation numbers 
     1.0000   1.0000   1.0000   1.0000   1.0000   1.0000   1.0000   1.0000
     1.0000   1.0000   1.0000   1.0000   0.0000   0.0000   0.0000   0.0000

          k = 0.0000 0.2474 0.1536 (  1878 PWs)   bands (ev):

     3.0497   3.8604   4.3037   4.3196   4.4635   4.6147   4.8112   4.8614
     4.9672   5.0161   5.1594   7.0581  14.5814  21.5632  22.9150  24.4451

     occupation numbers 
     1.0000   1.0000   1.0000   1.0000   1.0000   1.0000   1.0000   1.0000
     1.0000   1.0000   1.0000   1.0000   0.0000   0.0000   0.0000   0.0000

          k = 0.0000 0.2474 0.2304 (  1883 PWs)   bands (ev):

     3.4557   3.7641   4.2494   4.2634   4.5044   4.5637   4.8192   4.8387
     5.0363   5.1035   5.3409   5.9899  17.1021  19.8109  22.4147  23.2964

     occupation numbers 
     1.0000   1.0000   1.0000   1.0000   1.0000   1.0000   1.0000   1.0000
     1.0000   1.0000   1.0000   1.0000   0.0000   0.0000   0.0000   0.0000

          k = 0.0000 0.3299 0.0000 (  1871 PWs)   bands (ev):

     3.3796   3.8648   4.2319   4.4255   4.5511   4.6884   4.7870   5.0196
     5.0522   5.0817   5.2046  10.9315  11.6447  17.9723  23.9490  24.6572

     occupation numbers 
     1.0000   1.0000   1.0000   1.0000   1.0000   1.0000   1.0000   1.0000
     1.0000   1.0000   1.0000   1.0000   1.0000   0.0000   0.0000   0.0000

          k = 0.0000 0.3299 0.0768 (  1878 PWs)   bands (ev):

     3.4326   3.8733   4.2259   4.3711   4.5306   4.8022   4.8427   5.0195
     5.0544   5.0734   5.1940   9.4820  13.3473  18.1020  22.7066  24.9152

     occupation numbers 
     1.0000   1.0000   1.0000   1.0000   1.0000   1.0000   1.0000   1.0000
     1.0000   1.0000   1.0000   1.0000   0.0000   0.0000   0.0000   0.0000

          k = 0.0000 0.3299 0.1536 (  1878 PWs)   bands (ev):

     3.5639   3.8829   4.1973   4.2528   4.6217   4.8446   4.9183   5.0286
     5.0797   5.1673   5.2607   7.9948  15.5872  18.4825  21.3509  23.6965

     occupation numbers 
     1.0000   1.0000   1.0000   1.0000   1.0000   1.0000   1.0000   1.0000
     1.0000   1.0000   1.0000   1.0000   0.0000   0.0000   0.0000   0.0000

          k = 0.0000 0.3299 0.2304 (  1881 PWs)   bands (ev):

     3.7171   3.8395   4.1632   4.1848   4.7421   4.8469   4.9059   4.9725
     5.1041   5.1348   5.8677   6.7820  17.9867  19.0290  20.2847  21.0346

     occupation numbers 
     1.0000   1.0000   1.0000   1.0000   1.0000   1.0000   1.0000   1.0000
     1.0000   1.0000   1.0000   1.0000   0.0000   0.0000   0.0000   0.0000

          k = 0.0000 0.4124 0.0000 (  1866 PWs)   bands (ev):

     3.6686   3.7944   4.0583   4.5530   4.5869   4.7358   4.8194   5.1980
     5.2374   5.2584   6.0190  11.9591  13.1527  15.1744  21.0723  21.9907

     occupation numbers 
     1.0000   1.0000   1.0000   1.0000   1.0000   1.0000   1.0000   1.0000
     1.0000   1.0000   1.0000   1.0000   0.0000   0.0000   0.0000   0.0000

          k = 0.0000 0.4124 0.0768 (  1861 PWs)   bands (ev):

     3.6645   3.7907   4.0814   4.3963   4.6508   4.7561   4.9602   5.1656
     5.2400   5.2655   6.0978  10.7096  14.5695  15.3503  19.9007  23.2892

     occupation numbers 
     1.0000   1.0000   1.0000   1.0000   1.0000   1.0000   1.0000   1.0000
     1.0000   1.0000   1.0000   1.0000   0.0000   0.0000   0.0000   0.0000

          k = 0.0000 0.4124 0.1536 (  1880 PWs)   bands (ev):

     3.6709   3.7909   4.0981   4.2132   4.7892   4.8137   5.0918   5.0922
     5.2469   5.2693   6.4117   9.2434  15.5897  16.6848  18.7552  24.0668

     occupation numbers 
     1.0000   1.0000   1.0000   1.0000   1.0000   1.0000   1.0000   1.0000
     1.0000   1.0000   1.0000   1.0000   0.0000   0.0000   0.0000   0.0000

          k = 0.0000 0.4124 0.2304 (  1882 PWs)   bands (ev):

     3.7116   3.7678   4.0895   4.1104   4.8991   4.9547   4.9977   5.0768
     5.2562   5.2649   7.0540   8.0103  16.2325  17.0031  19.6907  22.0967

     occupation numbers 
     1.0000   1.0000   1.0000   1.0000   1.0000   1.0000   1.0000   1.0000
     1.0000   1.0000   1.0000   1.0000   0.0000   0.0000   0.0000   0.0000

          k = 0.0000 0.4949 0.0000 (  1872 PWs)   bands (ev):

     3.6664   3.7491   3.9557   4.5173   4.6512   4.7015   4.9830   5.1924
     5.3664   5.3874   7.6425  11.8747  14.1253  14.8023  18.5165  19.6352

     occupation numbers 
     1.0000   1.0000   1.0000   1.0000   1.0000   1.0000   1.0000   1.0000
     1.0000   1.0000   1.0000   1.0000   0.0000   0.0000   0.0000   0.0000

          k = 0.0000 0.4949 0.0768 (  1857 PWs)   bands (ev):

     3.6678   3.7155   3.9963   4.3826   4.7176   4.7240   5.0834   5.1652
     5.3681   5.3875   7.7422  11.5628  13.3466  15.8744  17.8037  20.9165

     occupation numbers 
     1.0000   1.0000   1.0000   1.0000   1.0000   1.0000   1.0000   1.0000
     1.0000   1.0000   1.0000   1.0000   0.0000   0.0000   0.0000   0.0000

          k = 0.0000 0.4949 0.1536 (  1863 PWs)   bands (ev):

     3.6518   3.7079   4.0314   4.1860   4.7879   4.8737   5.0919   5.1973
     5.3723   5.3864   8.0681  10.5905  13.2858  15.5305  18.9241  22.6644

     occupation numbers 
     1.0000   1.0000   1.0000   1.0000   1.0000   1.0000   1.0000   1.0000
     1.0000   1.0000   1.0000   1.0000   0.0000   0.0000   0.0000   0.0000

          k = 0.0000 0.4949 0.2304 (  1873 PWs)   bands (ev):

     3.6641   3.6990   4.0340   4.0634   4.8823   4.9905   5.0602   5.1895
     5.3776   5.3828   8.6627   9.5264  13.7716  14.5600  21.0817  23.0359

     occupation numbers 
     1.0000   1.0000   1.0000   1.0000   1.0000   1.0000   1.0000   1.0000
     1.0000   1.0000   1.0000   1.0000   0.0000   0.0000   0.0000   0.0000

          k = 0.0000-0.5774 0.0000 (  1854 PWs)   bands (ev):

     3.6475   3.7341   3.9219   4.4926   4.6862   4.6894   5.0352   5.1902
     5.4124   5.4351   9.2559  10.1549  15.1554  15.9657  16.9180  18.2359

     occupation numbers 
     1.0000   1.0000   1.0000   1.0000   1.0000   1.0000   1.0000   1.0000
     1.0000   1.0000   1.0000   1.0000   0.0000   0.0000   0.0000   0.0000

          k = 0.0000-0.5774 0.0768 (  1860 PWs)   bands (ev):

     3.6570   3.6863   3.9680   4.3716   4.7126   4.7427   5.1277   5.1634
     5.4140   5.4341   9.3567  10.1961  14.4836  14.7800  18.3939  19.1456

     occupation numbers 
     1.0000   1.0000   1.0000   1.0000   1.0000   1.0000   1.0000   1.0000
     1.0000   1.0000   1.0000   1.0000   0.0000   0.0000   0.0000   0.0000

          k = 0.0000-0.5774 0.1536 (  1866 PWs)   bands (ev):

     3.6393   3.6753   4.0080   4.1752   4.7784   4.8993   5.0897   5.2351
     5.4178   5.4314   9.6491  10.2943  13.4279  13.5700  20.4570  20.9170

     occupation numbers 
     1.0000   1.0000   1.0000   1.0000   1.0000   1.0000   1.0000   1.0000
     1.0000   1.0000   1.0000   1.0000   0.0000   0.0000   0.0000   0.0000

          k = 0.0000-0.5774 0.2304 (  1858 PWs)   bands (ev):

     3.6435   3.6728   4.0140   4.0471   4.8755   4.9865   5.0913   5.2249
     5.4225   5.4273  10.0530  10.3171  12.7396  12.8085  22.4509  22.6620

     occupation numbers 
     1.0000   1.0000   1.0000   1.0000   1.0000   1.0000   1.0000   1.0000
     1.0000   1.0000   1.0000   1.0000   0.0000   0.0000   0.0000   0.0000

          k = 0.0714 0.1237 0.0000 (  1891 PWs)   bands (ev):

     1.7500   3.6096   4.2891   4.4779   4.5217   4.6461   4.7020   4.8361
     4.8689   4.9905   5.2052   9.0595   9.6102  26.3227  26.3867  27.1015

     occupation numbers 
     1.0000   1.0000   1.0000   1.0000   1.0000   1.0000   1.0000   1.0000
     1.0000   1.0000   1.0000   1.0000   1.0000   0.0000   0.0000   0.0000

          k = 0.0714 0.1237 0.0768 (  1885 PWs)   bands (ev):

     1.8775   3.6007   4.2896   4.4651   4.5093   4.6420   4.6943   4.8295
     4.9029   4.9886   5.1952   7.5766  11.3953  24.9564  26.4581  26.5836

     occupation numbers 
     1.0000   1.0000   1.0000   1.0000   1.0000   1.0000   1.0000   1.0000
     1.0000   1.0000   1.0000   1.0000   1.0000   0.0000   0.0000   0.0000

          k = 0.0714 0.1237 0.1536 (  1888 PWs)   bands (ev):

     2.2454   3.5416   4.2929   4.4482   4.4755   4.6358   4.6768   4.7529
     4.9919   5.0092   5.1661   6.2372  13.6910  21.9444  26.8614  26.9592

     occupation numbers 
     1.0000   1.0000   1.0000   1.0000   1.0000   1.0000   1.0000   1.0000
     1.0000   1.0000   1.0000   1.0000   0.0000   0.0000   0.0000   0.0000

          k = 0.0714 0.1237 0.2304 (  1889 PWs)   bands (ev):

     2.7879   3.3017   4.3229   4.4154   4.4608   4.5546   4.6470   4.6578
     5.0600   5.1082   5.1504   5.4519  16.2345  18.9980  27.5190  27.5888

     occupation numbers 
     1.0000   1.0000   1.0000   1.0000   1.0000   1.0000   1.0000   1.0000
     1.0000   1.0000   1.0000   1.0000   0.0000   0.0000   0.0000   0.0000

          k = 0.0714 0.2062 0.0000 (  1887 PWs)   bands (ev):

     2.3551   3.8204   4.2928   4.4406   4.5299   4.5837   4.7845   4.8030
     4.8665   4.9237   5.1996   9.9426   9.9738  22.8889  24.8341  27.6375

     occupation numbers 
     1.0000   1.0000   1.0000   1.0000   1.0000   1.0000   1.0000   1.0000
     1.0000   1.0000   1.0000   1.0000   1.0000   0.0000   0.0000   0.0000

          k = 0.0714 0.2062 0.0768 (  1888 PWs)   bands (ev):

     2.4744   3.8249   4.3006   4.4143   4.4787   4.5971   4.7882   4.8340
     4.8622   4.9459   5.1894   8.2106  11.9932  23.0088  24.9201  25.6343

     occupation numbers 
     1.0000   1.0000   1.0000   1.0000   1.0000   1.0000   1.0000   1.0000
     1.0000   1.0000   1.0000   1.0000   1.0000   0.0000   0.0000   0.0000

          k = 0.0714 0.2062 0.1536 (  1883 PWs)   bands (ev):

     2.8128   3.8155   4.3128   4.3548   4.4061   4.5658   4.7750   4.8355
     4.9736   5.0024   5.1620   6.7991  14.2875  22.4226  23.5335  25.4032

     occupation numbers 
     1.0000   1.0000   1.0000   1.0000   1.0000   1.0000   1.0000   1.0000
     1.0000   1.0000   1.0000   1.0000   0.0000   0.0000   0.0000   0.0000

          k = 0.0714 0.2062 0.2304 (  1890 PWs)   bands (ev):

     3.2865   3.6805   4.2814   4.2914   4.4135   4.4857   4.7859   4.8098
     5.0465   5.0982   5.2708   5.8091  16.8195  19.5625  24.1289  25.0290

     occupation numbers 
     1.0000   1.0000   1.0000   1.0000   1.0000   1.0000   1.0000   1.0000
     1.0000   1.0000   1.0000   1.0000   0.0000   0.0000   0.0000   0.0000

          k = 0.0714 0.2887 0.0000 (  1884 PWs)   bands (ev):

     3.1386   3.9315   4.3341   4.3596   4.4077   4.6937   4.6951   4.8462
     4.9981   5.1207   5.1922  10.6021  11.1083  19.6137  23.5514  25.5834

     occupation numbers 
     1.0000   1.0000   1.0000   1.0000   1.0000   1.0000   1.0000   1.0000
     1.0000   1.0000   1.0000   1.0000   1.0000   0.0000   0.0000   0.0000

          k = 0.0714 0.2887 0.0768 (  1882 PWs)   bands (ev):

     3.2254   3.9434   4.2987   4.3656   4.3942   4.6603   4.7980   4.8436
     5.0157   5.0986   5.2003   9.0726  12.9026  19.7431  23.6783  24.3378

     occupation numbers 
     1.0000   1.0000   1.0000   1.0000   1.0000   1.0000   1.0000   1.0000
     1.0000   1.0000   1.0000   1.0000   0.0000   0.0000   0.0000   0.0000

          k = 0.0714 0.2887 0.1536 (  1883 PWs)   bands (ev):

     3.4510   3.9626   4.2295   4.2994   4.4497   4.6265   4.8471   4.9903
     5.0189   5.0959   5.2477   7.6014  15.1697  20.1141  22.9524  23.3197

     occupation numbers 
     1.0000   1.0000   1.0000   1.0000   1.0000   1.0000   1.0000   1.0000
     1.0000   1.0000   1.0000   1.0000   0.0000   0.0000   0.0000   0.0000

          k = 0.0714 0.2887 0.2304 (  1878 PWs)   bands (ev):

     3.7157   3.9081   4.1932   4.2367   4.5143   4.5763   4.8870   4.9506
     5.0892   5.1206   5.6334   6.4406  17.6574  20.1251  21.1533  21.8264

     occupation numbers 
     1.0000   1.0000   1.0000   1.0000   1.0000   1.0000   1.0000   1.0000
     1.0000   1.0000   1.0000   1.0000   0.0000   0.0000   0.0000   0.0000

          k = 0.0714 0.3712 0.0000 (  1874 PWs)   bands (ev):

     3.6744   3.8774   4.1384   4.4950   4.6076   4.6114   4.7684   4.9858
     5.1832   5.1847   5.6707  11.5391  12.5068  16.6116  22.4821  22.6531

     occupation numbers 
     1.0000   1.0000   1.0000   1.0000   1.0000   1.0000   1.0000   1.0000
     1.0000   1.0000   1.0000   1.0000   0.0000   0.0000   0.0000   0.0000

          k = 0.0714 0.3712 0.0768 (  1870 PWs)   bands (ev):

     3.6837   3.8842   4.1535   4.3743   4.5673   4.7759   4.8447   4.9777
     5.1513   5.1978   5.7230  10.1931  14.0914  16.7428  21.3607  22.6916

     occupation numbers 
     1.0000   1.0000   1.0000   1.0000   1.0000   1.0000   1.0000   1.0000
     1.0000   1.0000   1.0000   1.0000   0.0000   0.0000   0.0000   0.0000

          k = 0.0714 0.3712 0.1536 (  1879 PWs)   bands (ev):

     3.7199   3.8946   4.1546   4.2292   4.6521   4.8212   4.9360   5.0676
     5.0840   5.2196   5.9642   8.7121  16.2560  17.1376  20.0425  23.0821

     occupation numbers 
     1.0000   1.0000   1.0000   1.0000   1.0000   1.0000   1.0000   1.0000
     1.0000   1.0000   1.0000   1.0000   0.0000   0.0000   0.0000   0.0000

          k = 0.0714 0.3712 0.2304 (  1877 PWs)   bands (ev):

     3.7880   3.8647   4.1325   4.1588   4.7709   4.8599   4.9022   4.9766
     5.1902   5.2268   6.5522   7.4853  17.7120  18.1553  19.4831  21.6117

     occupation numbers 
     1.0000   1.0000   1.0000   1.0000   1.0000   1.0000   1.0000   1.0000
     1.0000   1.0000   1.0000   1.0000   0.0000   0.0000   0.0000   0.0000

          k = 0.0714 0.4536 0.0000 (  1861 PWs)   bands (ev):

     3.7369   3.8194   4.0088   4.5395   4.6138   4.7068   4.8561   5.1748
     5.2278   5.3209   6.9562  12.4829  14.0974  14.2416  19.8473  20.8642

     occupation numbers 
     1.0000   1.0000   1.0000   1.0000   1.0000   1.0000   1.0000   1.0000
     1.0000   1.0000   1.0000   0.0000   0.0000   0.0000   0.0000   0.0000

          k = 0.0714 0.4536 0.0768 (  1863 PWs)   bands (ev):

     3.7319   3.7958   4.0512   4.3866   4.6602   4.7459   4.9798   5.1456
     5.2246   5.3250   7.0523  11.4817  14.0728  15.5477  18.7727  21.9878

     occupation numbers 
     1.0000   1.0000   1.0000   1.0000   1.0000   1.0000   1.0000   1.0000
     1.0000   1.0000   1.0000   1.0000   0.0000   0.0000   0.0000   0.0000

          k = 0.0714 0.4536 0.1536 (  1868 PWs)   bands (ev):

     3.7172   3.7949   4.0857   4.2000   4.7315   4.8623   5.0684   5.1150
     5.2255   5.3311   7.3778  10.0986  14.4304  16.6236  18.4621  22.4192

     occupation numbers 
     1.0000   1.0000   1.0000   1.0000   1.0000   1.0000   1.0000   1.0000
     1.0000   1.0000   1.0000   1.0000   0.0000   0.0000   0.0000   0.0000

          k = 0.0714 0.4536 0.2304 (  1876 PWs)   bands (ev):

     3.7377   3.7817   4.0790   4.0957   4.8403   4.9582   5.0000   5.0994
     5.2781   5.3202   7.9929   8.9099  15.0412  15.8669  20.4390  22.6520

     occupation numbers 
     1.0000   1.0000   1.0000   1.0000   1.0000   1.0000   1.0000   1.0000
     1.0000   1.0000   1.0000   1.0000   0.0000   0.0000   0.0000   0.0000

          k = 0.0714 0.5361 0.0000 (  1862 PWs)   bands (ev):

     3.7002   3.7924   3.9451   4.5018   4.6731   4.6803   4.9777   5.1698
     5.3512   5.3829   8.7340  11.0183  14.8537  15.7061  17.5548  18.7819

     occupation numbers 
     1.0000   1.0000   1.0000   1.0000   1.0000   1.0000   1.0000   1.0000
     1.0000   1.0000   1.0000   1.0000   0.0000   0.0000   0.0000   0.0000

          k = 0.0714 0.5361 0.0768 (  1861 PWs)   bands (ev):

     3.7087   3.7413   3.9997   4.3782   4.6623   4.7664   5.0770   5.1412
     5.3475   5.3820   8.8358  11.0259  13.8750  15.6419  17.9899  19.9488

     occupation numbers 
     1.0000   1.0000   1.0000   1.0000   1.0000   1.0000   1.0000   1.0000
     1.0000   1.0000   1.0000   1.0000   0.0000   0.0000   0.0000   0.0000

          k = 0.0714 0.5361 0.1536 (  1864 PWs)   bands (ev):

     3.6897   3.7336   4.0435   4.1862   4.7201   4.9185   5.0620   5.2047
     5.3346   5.3766   9.1501  10.8964  12.9967  14.5722  19.8397  21.7945

     occupation numbers 
     1.0000   1.0000   1.0000   1.0000   1.0000   1.0000   1.0000   1.0000
     1.0000   1.0000   1.0000   1.0000   0.0000   0.0000   0.0000   0.0000

          k = 0.0714 0.5361 0.2304 (  1866 PWs)   bands (ev):

     3.6974   3.7307   4.0440   4.0666   4.8271   4.9498   5.0922   5.2151
     5.3365   5.3610   9.6796  10.3560  12.9740  13.5967  21.9380  22.7435

     occupation numbers 
     1.0000   1.0000   1.0000   1.0000   1.0000   1.0000   1.0000   1.0000
     1.0000   1.0000   1.0000   1.0000   0.0000   0.0000   0.0000   0.0000

          k = 0.1429 0.2474 0.0000 (  1885 PWs)   bands (ev):

     3.0458   4.0123   4.2302   4.3860   4.4249   4.5559   4.6718   4.8888
     4.9912   5.1408   5.1760  10.4997  10.9258  21.4255  21.5944  27.3494

     occupation numbers 
     1.0000   1.0000   1.0000   1.0000   1.0000   1.0000   1.0000   1.0000
     1.0000   1.0000   1.0000   1.0000   1.0000   0.0000   0.0000   0.0000

          k = 0.1429 0.2474 0.0768 (  1886 PWs)   bands (ev):

     3.1442   4.0285   4.2414   4.3277   4.4551   4.4799   4.7820   4.8629
     5.0226   5.0963   5.2062   8.9395  12.7555  21.5634  21.7141  26.0765

     occupation numbers 
     1.0000   1.0000   1.0000   1.0000   1.0000   1.0000   1.0000   1.0000
     1.0000   1.0000   1.0000   1.0000   0.0000   0.0000   0.0000   0.0000

          k = 0.1429 0.2474 0.1536 (  1888 PWs)   bands (ev):

     3.4090   4.0658   4.2312   4.2752   4.3779   4.4548   4.8450   4.9795
     5.0302   5.0711   5.2689   7.4790  15.0299  21.9679  21.9743  23.4112

     occupation numbers 
     1.0000   1.0000   1.0000   1.0000   1.0000   1.0000   1.0000   1.0000
     1.0000   1.0000   1.0000   1.0000   0.0000   0.0000   0.0000   0.0000

          k = 0.1429 0.2474 0.2304 (  1888 PWs)   bands (ev):

     3.7404   4.0008   4.1982   4.2768   4.3344   4.4032   4.8765   4.9432
     5.1077   5.1114   5.5933   6.3470  17.5346  20.2101  22.6478  22.9284

     occupation numbers 
     1.0000   1.0000   1.0000   1.0000   1.0000   1.0000   1.0000   1.0000
     1.0000   1.0000   1.0000   1.0000   0.0000   0.0000   0.0000   0.0000

          k = 0.1429 0.3299 0.0000 (  1876 PWs)   bands (ev):

     3.7449   4.0427   4.2093   4.2930   4.4502   4.5851   4.6951   4.8164
     5.1521   5.1742   5.6500  11.3347  12.1789  18.3711  20.4034  24.3723

     occupation numbers 
     1.0000   1.0000   1.0000   1.0000   1.0000   1.0000   1.0000   1.0000
     1.0000   1.0000   1.0000   1.0000   1.0000   0.0000   0.0000   0.0000

          k = 0.1429 0.3299 0.0768 (  1871 PWs)   bands (ev):

     3.7755   4.0593   4.1875   4.3035   4.4155   4.5996   4.7870   4.8116
     5.1206   5.1903   5.6946   9.9438  13.8211  18.5034  20.5367  23.1168

     occupation numbers 
     1.0000   1.0000   1.0000   1.0000   1.0000   1.0000   1.0000   1.0000
     1.0000   1.0000   1.0000   1.0000   0.0000   0.0000   0.0000   0.0000

          k = 0.1429 0.3299 0.1536 (  1882 PWs)   bands (ev):

     3.8500   4.1003   4.1302   4.3124   4.4042   4.5727   4.8120   5.0127
     5.0422   5.2197   5.8840   8.4686  16.0440  18.8925  20.9194  21.7571

     occupation numbers 
     1.0000   1.0000   1.0000   1.0000   1.0000   1.0000   1.0000   1.0000
     1.0000   1.0000   1.0000   1.0000   0.0000   0.0000   0.0000   0.0000

          k = 0.1429 0.3299 0.2304 (  1881 PWs)   bands (ev):

     3.9402   4.0318   4.1853   4.2612   4.4564   4.5196   4.8586   4.9442
     5.1789   5.2297   6.3867   7.2670  18.4321  19.4645  20.6548  21.1190

     occupation numbers 
     1.0000   1.0000   1.0000   1.0000   1.0000   1.0000   1.0000   1.0000
     1.0000   1.0000   1.0000   1.0000   0.0000   0.0000   0.0000   0.0000

          k = 0.1429 0.4124 0.0000 (  1866 PWs)   bands (ev):

     3.9226   3.9772   4.0803   4.5293   4.5614   4.5931   4.7277   4.9205
     5.1326   5.2956   6.6726  12.4622  13.6618  15.5580  19.5763  21.5044

     occupation numbers 
     1.0000   1.0000   1.0000   1.0000   1.0000   1.0000   1.0000   1.0000
     1.0000   1.0000   1.0000   0.0000   0.0000   0.0000   0.0000   0.0000

          k = 0.1429 0.4124 0.0768 (  1870 PWs)   bands (ev):

     3.9049   3.9625   4.1366   4.3540   4.5590   4.7426   4.8021   4.9177
     5.1017   5.3047   6.7620  11.2258  15.0754  15.7319  19.7059  20.3213

     occupation numbers 
     1.0000   1.0000   1.0000   1.0000   1.0000   1.0000   1.0000   1.0000
     1.0000   1.0000   1.0000   1.0000   0.0000   0.0000   0.0000   0.0000

          k = 0.1429 0.4124 0.1536 (  1872 PWs)   bands (ev):

     3.8781   3.9819   4.1544   4.2324   4.5918   4.7792   4.8712   5.0164
     5.0596   5.3181   7.0680   9.7788  16.0127  17.1679  19.1159  20.1329

     occupation numbers 
     1.0000   1.0000   1.0000   1.0000   1.0000   1.0000   1.0000   1.0000
     1.0000   1.0000   1.0000   1.0000   0.0000   0.0000   0.0000   0.0000

          k = 0.1429 0.4124 0.2304 (  1879 PWs)   bands (ev):

     3.8982   3.9566   4.1378   4.1856   4.6869   4.7815   4.8601   4.9227
     5.2221   5.3024   7.6636   8.5751  16.6604  17.4599  20.0093  20.7489

     occupation numbers 
     1.0000   1.0000   1.0000   1.0000   1.0000   1.0000   1.0000   1.0000
     1.0000   1.0000   1.0000   1.0000   0.0000   0.0000   0.0000   0.0000

          k = 0.1429 0.4949 0.0000 (  1871 PWs)   bands (ev):

     3.8526   3.9526   4.0043   4.5073   4.6489   4.6618   4.7929   5.1195
     5.1385   5.3309   8.2543  12.4477  14.5101  15.3100  18.8540  19.1495

     occupation numbers 
     1.0000   1.0000   1.0000   1.0000   1.0000   1.0000   1.0000   1.0000
     1.0000   1.0000   1.0000   0.0000   0.0000   0.0000   0.0000   0.0000

          k = 0.1429 0.4949 0.0768 (  1865 PWs)   bands (ev):

     3.8590   3.8840   4.0917   4.3778   4.5947   4.7609   4.9130   5.0870
     5.1315   5.3341   8.3621  12.1893  13.6921  16.4011  18.1512  19.2247

     occupation numbers 
     1.0000   1.0000   1.0000   1.0000   1.0000   1.0000   1.0000   1.0000
     1.0000   1.0000   1.0000   1.0000   0.0000   0.0000   0.0000   0.0000

          k = 0.1429 0.4949 0.1536 (  1865 PWs)   bands (ev):

     3.8278   3.8964   4.1468   4.2054   4.6108   4.8803   4.9903   5.0798
     5.1163   5.3335   8.7004  11.2233  13.6427  15.9979  19.2914  19.6433

     occupation numbers 
     1.0000   1.0000   1.0000   1.0000   1.0000   1.0000   1.0000   1.0000
     1.0000   1.0000   1.0000   1.0000   0.0000   0.0000   0.0000   0.0000

          k = 0.1429 0.4949 0.2304 (  1865 PWs)   bands (ev):

     3.8424   3.8908   4.1146   4.1343   4.7166   4.8554   4.9906   5.0603
     5.2215   5.3028   9.2963  10.1555  14.1649  14.9863  20.2940  20.9824

     occupation numbers 
     1.0000   1.0000   1.0000   1.0000   1.0000   1.0000   1.0000   1.0000
     1.0000   1.0000   1.0000   1.0000   0.0000   0.0000   0.0000   0.0000

          k = 0.1429 0.5774 0.0000 (  1870 PWs)   bands (ev):

     3.8246   3.9370   3.9795   4.5067   4.6134   4.6954   4.8603   5.1148
     5.2646   5.2896   9.9393  10.5951  15.6803  16.5153  17.2423  18.5804

     occupation numbers 
     1.0000   1.0000   1.0000   1.0000   1.0000   1.0000   1.0000   1.0000
     1.0000   1.0000   1.0000   1.0000   0.0000   0.0000   0.0000   0.0000

          k = 0.1429 0.5774 0.0768 (  1870 PWs)   bands (ev):

     3.8374   3.8556   4.0734   4.3876   4.5743   4.7885   4.9574   5.0823
     5.2614   5.2876  10.0532  10.6603  14.9689  15.2193  18.7817  19.0911

     occupation numbers 
     1.0000   1.0000   1.0000   1.0000   1.0000   1.0000   1.0000   1.0000
     1.0000   1.0000   1.0000   1.0000   0.0000   0.0000   0.0000   0.0000

          k = 0.1429 0.5774 0.1536 (  1864 PWs)   bands (ev):

     3.8078   3.8653   4.1313   4.2083   4.5958   4.9409   4.9821   5.0926
     5.2511   5.2739  10.3766  10.8378  13.8536  13.9505  19.4577  20.9165

     occupation numbers 
     1.0000   1.0000   1.0000   1.0000   1.0000   1.0000   1.0000   1.0000
     1.0000   1.0000   1.0000   1.0000   0.0000   0.0000   0.0000   0.0000

          k = 0.1429 0.5774 0.2304 (  1861 PWs)   bands (ev):

     3.8211   3.8655   4.1084   4.1165   4.7065   4.8505   5.0896   5.1573
     5.2336   5.2350  10.8041  10.9975  13.0765  13.1270  20.1357  21.0119

     occupation numbers 
     1.0000   1.0000   1.0000   1.0000   1.0000   1.0000   1.0000   1.0000
     1.0000   1.0000   1.0000   1.0000   0.0000   0.0000   0.0000   0.0000

          k = 0.2143 0.3712 0.0000 (  1867 PWs)   bands (ev):

     4.0897   4.1177   4.1713   4.2938   4.5100   4.5234   4.7477   4.7616
     5.1077   5.2908   6.6088  12.4035  13.5152  17.3290  17.5149  23.3216

     occupation numbers 
     1.0000   1.0000   1.0000   1.0000   1.0000   1.0000   1.0000   1.0000
     1.0000   1.0000   1.0000   0.0000   0.0000   0.0000   0.0000   0.0000

          k = 0.2143 0.3712 0.0768 (  1864 PWs)   bands (ev):

     4.0781   4.1028   4.2060   4.2296   4.5085   4.5773   4.7436   4.8362
     5.0767   5.3017   6.6950  11.1276  15.0249  17.4660  17.6467  22.0511

     occupation numbers 
     1.0000   1.0000   1.0000   1.0000   1.0000   1.0000   1.0000   1.0000
     1.0000   1.0000   1.0000   1.0000   0.0000   0.0000   0.0000   0.0000

          k = 0.2143 0.3712 0.1536 (  1867 PWs)   bands (ev):

     4.0405   4.0822   4.1740   4.3067   4.4722   4.5835   4.7522   4.9903
     5.0444   5.3175   6.9905   9.6740  17.1422  17.8796  18.0331  20.6467

     occupation numbers 
     1.0000   1.0000   1.0000   1.0000   1.0000   1.0000   1.0000   1.0000
     1.0000   1.0000   1.0000   1.0000   0.0000   0.0000   0.0000   0.0000

          k = 0.2143 0.3712 0.2304 (  1872 PWs)   bands (ev):

     4.0239   4.0352   4.2400   4.3099   4.4818   4.5401   4.8007   4.8896
     5.2175   5.3024   7.5720   8.4736  18.5278  18.6254  18.9521  19.4723

     occupation numbers 
     1.0000   1.0000   1.0000   1.0000   1.0000   1.0000   1.0000   1.0000
     1.0000   1.0000   1.0000   1.0000   0.0000   0.0000   0.0000   0.0000

          k = 0.2143 0.4536 0.0000 (  1871 PWs)   bands (ev):

     4.0599   4.0632   4.1515   4.4799   4.5357   4.6322   4.6561   4.9072
     5.0728   5.3130   8.0405  13.5937  14.9289  15.0779  16.7690  20.7012

     occupation numbers 
     1.0000   1.0000   1.0000   1.0000   1.0000   1.0000   1.0000   1.0000
     1.0000   1.0000   1.0000   0.0000   0.0000   0.0000   0.0000   0.0000

          k = 0.2143 0.4536 0.0768 (  1870 PWs)   bands (ev):

     4.0229   4.0766   4.2097   4.3347   4.5451   4.6816   4.7268   4.9347
     5.0402   5.3206   8.1504  12.5524  14.8728  16.4672  16.9104  19.5633

     occupation numbers 
     1.0000   1.0000   1.0000   1.0000   1.0000   1.0000   1.0000   1.0000
     1.0000   1.0000   1.0000   0.0000   0.0000   0.0000   0.0000   0.0000

          k = 0.2143 0.4536 0.1536 (  1867 PWs)   bands (ev):

     3.9910   4.1175   4.1709   4.3105   4.5012   4.7163   4.7841   4.9558
     5.0650   5.3276   8.4956  11.1721  15.2465  17.2794  17.6214  19.0153

     occupation numbers 
     1.0000   1.0000   1.0000   1.0000   1.0000   1.0000   1.0000   1.0000
     1.0000   1.0000   1.0000   1.0000   0.0000   0.0000   0.0000   0.0000

          k = 0.2143 0.4536 0.2304 (  1867 PWs)   bands (ev):

     4.0011   4.0572   4.2016   4.2792   4.5699   4.6764   4.8107   4.8674
     5.2127   5.3009   9.1074  10.0036  15.8831  16.7430  17.9733  18.8209

     occupation numbers 
     1.0000   1.0000   1.0000   1.0000   1.0000   1.0000   1.0000   1.0000
     1.0000   1.0000   1.0000   1.0000   0.0000   0.0000   0.0000   0.0000

          k = 0.2143 0.5361 0.0000 (  1868 PWs)   bands (ev):

     4.0172   4.0393   4.1332   4.4977   4.5681   4.6487   4.6966   5.0541
     5.0809   5.2482   9.8548  12.0291  15.7295  16.4272  16.7281  18.3785

     occupation numbers 
     1.0000   1.0000   1.0000   1.0000   1.0000   1.0000   1.0000   1.0000
     1.0000   1.0000   1.0000   1.0000   0.0000   0.0000   0.0000   0.0000

          k = 0.2143 0.5361 0.0768 (  1874 PWs)   bands (ev):

     3.9943   4.0328   4.2074   4.3836   4.5024   4.7353   4.7776   5.0199
     5.0873   5.2550   9.9707  12.0961  14.7025  16.4497  16.7367  18.7451

     occupation numbers 
     1.0000   1.0000   1.0000   1.0000   1.0000   1.0000   1.0000   1.0000
     1.0000   1.0000   1.0000   1.0000   0.0000   0.0000   0.0000   0.0000

          k = 0.2143 0.5361 0.1536 (  1871 PWs)   bands (ev):

     3.9651   4.0714   4.2277   4.2919   4.4609   4.7965   4.8729   4.9535
     5.1190   5.2630  10.3188  12.1417  13.6776  15.4413  16.9924  19.5419

     occupation numbers 
     1.0000   1.0000   1.0000   1.0000   1.0000   1.0000   1.0000   1.0000
     1.0000   1.0000   1.0000   1.0000   0.0000   0.0000   0.0000   0.0000

          k = 0.2143 0.5361 0.2304 (  1865 PWs)   bands (ev):

     3.9881   4.0578   4.1807   4.2482   4.5668   4.7142   4.9146   4.9395
     5.1877   5.2454  10.8931  11.6302  13.6709  14.3952  17.6510  18.5472

     occupation numbers 
     1.0000   1.0000   1.0000   1.0000   1.0000   1.0000   1.0000   1.0000
     1.0000   1.0000   1.0000   1.0000   0.0000   0.0000   0.0000   0.0000

          k = 0.2857 0.4949 0.0000 (  1876 PWs)   bands (ev):

     4.0738   4.1698   4.2423   4.4679   4.4954   4.5709   4.6851   4.9694
     5.0263   5.2392   9.7451  13.8398  14.2064  15.8135  16.7083  19.9932

     occupation numbers 
     1.0000   1.0000   1.0000   1.0000   1.0000   1.0000   1.0000   1.0000
     1.0000   1.0000   1.0000   0.0000   0.0000   0.0000   0.0000   0.0000

          k = 0.2857 0.4949 0.0768 (  1863 PWs)   bands (ev):

     4.0714   4.1807   4.2755   4.3420   4.5246   4.6020   4.7108   4.9919
     5.0008   5.2489   9.8644  13.6768  14.3431  14.9289  17.7323  18.8571

     occupation numbers 
     1.0000   1.0000   1.0000   1.0000   1.0000   1.0000   1.0000   1.0000
     1.0000   1.0000   1.0000   0.0000   0.0000   0.0000   0.0000   0.0000

          k = 0.2857 0.4949 0.1536 (  1876 PWs)   bands (ev):

     4.0732   4.1951   4.2457   4.3621   4.4411   4.6448   4.7461   4.9093
     5.0887   5.2625  10.2264  12.7693  14.7455  14.8394  17.3581  17.4551

     occupation numbers 
     1.0000   1.0000   1.0000   1.0000   1.0000   1.0000   1.0000   1.0000
     1.0000   1.0000   1.0000   0.0000   0.0000   0.0000   0.0000   0.0000

          k = 0.2857 0.4949 0.2304 (  1866 PWs)   bands (ev):

     4.0911   4.1344   4.2823   4.3538   4.4831   4.5953   4.7801   4.8283
     5.1878   5.2489  10.8398  11.7038  15.3574  15.3713  16.3452  16.3749

     occupation numbers 
     1.0000   1.0000   1.0000   1.0000   1.0000   1.0000   1.0000   1.0000
     1.0000   1.0000   1.0000   1.0000   0.0000   0.0000   0.0000   0.0000

          k = 0.2857 0.5774 0.0000 (  1878 PWs)   bands (ev):

     4.0833   4.2105   4.2734   4.4666   4.4937   4.5062   4.7159   5.0088
     5.0620   5.1408  11.6754  11.8439  13.9236  17.1542  18.0833  18.4273

     occupation numbers 
     1.0000   1.0000   1.0000   1.0000   1.0000   1.0000   1.0000   1.0000
     1.0000   1.0000   1.0000   1.0000   0.0000   0.0000   0.0000   0.0000

          k = 0.2857 0.5774 0.0768 (  1874 PWs)   bands (ev):

     4.0930   4.2180   4.2781   4.3873   4.4813   4.5630   4.7324   4.9740
     5.0817   5.1573  11.8070  11.9435  14.0331  16.3900  16.6225  18.5205

     occupation numbers 
     1.0000   1.0000   1.0000   1.0000   1.0000   1.0000   1.0000   1.0000
     1.0000   1.0000   1.0000   1.0000   0.0000   0.0000   0.0000   0.0000

          k = 0.2857 0.5774 0.1536 (  1864 PWs)   bands (ev):

     4.1126   4.2281   4.3019   4.3037   4.4660   4.5951   4.7586   4.8899
     5.1318   5.1898  12.1811  12.2372  14.2690  15.1881  15.4269  17.2865

     occupation numbers 
     1.0000   1.0000   1.0000   1.0000   1.0000   1.0000   1.0000   1.0000
     1.0000   1.0000   1.0000   0.7500   0.0000   0.0000   0.0000   0.0000

          k = 0.2857 0.5774 0.2304 (  1859 PWs)   bands (ev):

     4.1397   4.1863   4.2988   4.3178   4.4970   4.5683   4.7785   4.8126
     5.1833   5.2052  12.6548  12.6707  14.0247  14.2039  15.3855  16.1898

     occupation numbers 
     1.0000   1.0000   1.0000   1.0000   1.0000   1.0000   1.0000   1.0000
     1.0000   1.0000   0.0000   0.0000   0.0000   0.0000   0.0000   0.0000

 ------ SPIN DOWN ----------


          k = 0.0000 0.0000 0.0000 (  1909 PWs)   bands (ev):

     1.2745   3.3958   4.2463   4.5207   4.5208   4.5797   4.5797   4.9642
     4.9643   5.2049   5.2050   8.2785   9.3710  26.5746  30.2054  30.8154

     occupation numbers 
     1.0000   1.0000   1.0000   1.0000   1.0000   1.0000   1.0000   1.0000
     1.0000   1.0000   1.0000   1.0000   1.0000   0.0000   0.0000   0.0000

          k = 0.0000 0.0000 0.0768 (  1890 PWs)   bands (ev):

     1.4051   3.3733   4.2473   4.5190   4.5190   4.5732   4.5732   4.9808
     4.9809   5.1965   5.1967   6.9816  10.9601  24.5346  30.9483  30.9485

     occupation numbers 
     1.0000   1.0000   1.0000   1.0000   1.0000   1.0000   1.0000   1.0000
     1.0000   1.0000   1.0000   1.0000   1.0000   0.0000   0.0000   0.0000

          k = 0.0000 0.0000 0.1536 (  1902 PWs)   bands (ev):

     1.7845   3.2659   4.2649   4.5177   4.5177   4.5568   4.5568   5.0238
     5.0239   5.1715   5.1717   5.6114  13.2424  21.5118  31.3333  31.3334

     occupation numbers 
     1.0000   1.0000   1.0000   1.0000   1.0000   1.0000   1.0000   1.0000
     1.0000   1.0000   1.0000   1.0000   0.0000   0.0000   0.0000   0.0000

          k = 0.0000 0.0000 0.2304 (  1902 PWs)   bands (ev):

     2.3554   2.9377   4.3609   4.5233   4.5233   4.5376   4.5377   4.7208
     5.0784   5.0785   5.1307   5.1309  15.7885  18.5581  31.9078  31.9079

     occupation numbers 
     1.0000   1.0000   1.0000   1.0000   1.0000   1.0000   1.0000   1.0000
     1.0000   1.0000   1.0000   1.0000   0.0000   0.0000   0.0000   0.0000

          k = 0.0000 0.0825 0.0000 (  1881 PWs)   bands (ev):

     1.4346   3.4720   4.2644   4.5028   4.5603   4.5618   4.6188   4.9248
     4.9477   5.0940   5.2069   8.5567   9.4474  26.7551  28.0695  29.3973

     occupation numbers 
     1.0000   1.0000   1.0000   1.0000   1.0000   1.0000   1.0000   1.0000
     1.0000   1.0000   1.0000   1.0000   1.0000   0.0000   0.0000   0.0000

          k = 0.0000 0.0825 0.0768 (  1893 PWs)   bands (ev):

     1.5643   3.4542   4.2643   4.4986   4.5520   4.5596   4.6121   4.9455
     4.9658   5.0732   5.1978   7.2023  11.1034  24.6846  28.2264  29.5364

     occupation numbers 
     1.0000   1.0000   1.0000   1.0000   1.0000   1.0000   1.0000   1.0000
     1.0000   1.0000   1.0000   1.0000   1.0000   0.0000   0.0000   0.0000

          k = 0.0000 0.0825 0.1536 (  1901 PWs)   bands (ev):

     1.9405   3.3638   4.2754   4.4937   4.5308   4.5573   4.5954   4.9538
     5.0121   5.0237   5.1704   5.8852  13.3919  21.6586  28.6171  29.9502

     occupation numbers 
     1.0000   1.0000   1.0000   1.0000   1.0000   1.0000   1.0000   1.0000
     1.0000   1.0000   1.0000   1.0000   0.0000   0.0000   0.0000   0.0000

          k = 0.0000 0.0825 0.2304 (  1896 PWs)   bands (ev):

     2.5035   3.0651   4.3475   4.4968   4.5037   4.5622   4.5762   4.6411
     5.0704   5.0987   5.1264   5.2577  15.9378  18.7059  29.2538  30.1244

     occupation numbers 
     1.0000   1.0000   1.0000   1.0000   1.0000   1.0000   1.0000   1.0000
     1.0000   1.0000   1.0000   1.0000   0.0000   0.0000   0.0000   0.0000

          k = 0.0000 0.1650 0.0000 (  1883 PWs)   bands (ev):

     1.9043   3.6666   4.2960   4.4644   4.5414   4.6788   4.7297   4.7470
     4.9044   4.9239   5.2098   9.2921   9.6958  24.5216  27.2579  27.6144

     occupation numbers 
     1.0000   1.0000   1.0000   1.0000   1.0000   1.0000   1.0000   1.0000
     1.0000   1.0000   1.0000   1.0000   1.0000   0.0000   0.0000   0.0000

          k = 0.0000 0.1650 0.0768 (  1887 PWs)   bands (ev):

     2.0302   3.6614   4.2973   4.4515   4.5186   4.6740   4.7221   4.7518
     4.9275   4.9334   5.1987   7.7440  11.5430  24.5762  25.2243  27.7619

     occupation numbers 
     1.0000   1.0000   1.0000   1.0000   1.0000   1.0000   1.0000   1.0000
     1.0000   1.0000   1.0000   1.0000   1.0000   0.0000   0.0000   0.0000

          k = 0.0000 0.1650 0.1536 (  1890 PWs)   bands (ev):

     2.3922   3.6162   4.2981   4.4299   4.4722   4.6680   4.6906   4.7043
     4.9832   5.0038   5.1661   6.3846  13.8400  22.0784  25.0929  27.7750

     occupation numbers 
     1.0000   1.0000   1.0000   1.0000   1.0000   1.0000   1.0000   1.0000
     1.0000   1.0000   1.0000   1.0000   0.0000   0.0000   0.0000   0.0000

          k = 0.0000 0.1650 0.2304 (  1880 PWs)   bands (ev):

[...]

     occupation numbers 
     1.0000   1.0000   1.0000   1.0000   1.0000   1.0000   1.0000   1.0000
     1.0000   1.0000   1.0000   1.0000   1.0000   0.0000   0.0000   0.0000

          k = 0.1429 0.2474 0.0768 (  1886 PWs)   bands (ev):

     3.1442   4.0285   4.2414   4.3277   4.4551   4.4799   4.7820   4.8629
     5.0226   5.0963   5.2062   8.9395  12.7555  21.5634  21.7141  26.0765

     occupation numbers 
     1.0000   1.0000   1.0000   1.0000   1.0000   1.0000   1.0000   1.0000
     1.0000   1.0000   1.0000   1.0000   0.0000   0.0000   0.0000   0.0000

          k = 0.1429 0.2474 0.1536 (  1888 PWs)   bands (ev):

     3.4090   4.0658   4.2312   4.2752   4.3779   4.4548   4.8450   4.9795
     5.0302   5.0711   5.2689   7.4790  15.0299  21.9679  21.9743  23.4112

     occupation numbers 
     1.0000   1.0000   1.0000   1.0000   1.0000   1.0000   1.0000   1.0000
     1.0000   1.0000   1.0000   1.0000   0.0000   0.0000   0.0000   0.0000

          k = 0.1429 0.2474 0.2304 (  1888 PWs)   bands (ev):

     3.7404   4.0008   4.1982   4.2768   4.3344   4.4032   4.8765   4.9432
     5.1077   5.1114   5.5933   6.3470  17.5346  20.2101  22.6478  22.9284

     occupation numbers 
     1.0000   1.0000   1.0000   1.0000   1.0000   1.0000   1.0000   1.0000
     1.0000   1.0000   1.0000   1.0000   0.0000   0.0000   0.0000   0.0000

          k = 0.1429 0.3299 0.0000 (  1876 PWs)   bands (ev):

     3.7449   4.0427   4.2093   4.2930   4.4502   4.5851   4.6951   4.8164
     5.1521   5.1742   5.6500  11.3347  12.1789  18.3711  20.4034  24.3723

     occupation numbers 
     1.0000   1.0000   1.0000   1.0000   1.0000   1.0000   1.0000   1.0000
     1.0000   1.0000   1.0000   1.0000   1.0000   0.0000   0.0000   0.0000

          k = 0.1429 0.3299 0.0768 (  1871 PWs)   bands (ev):

     3.7755   4.0593   4.1875   4.3035   4.4155   4.5996   4.7870   4.8116
     5.1206   5.1903   5.6946   9.9438  13.8211  18.5034  20.5367  23.1168

     occupation numbers 
     1.0000   1.0000   1.0000   1.0000   1.0000   1.0000   1.0000   1.0000
     1.0000   1.0000   1.0000   1.0000   0.0000   0.0000   0.0000   0.0000

          k = 0.1429 0.3299 0.1536 (  1882 PWs)   bands (ev):

     3.8500   4.1003   4.1302   4.3124   4.4042   4.5727   4.8120   5.0127
     5.0422   5.2197   5.8840   8.4686  16.0440  18.8925  20.9194  21.7571

     occupation numbers 
     1.0000   1.0000   1.0000   1.0000   1.0000   1.0000   1.0000   1.0000
     1.0000   1.0000   1.0000   1.0000   0.0000   0.0000   0.0000   0.0000

          k = 0.1429 0.3299 0.2304 (  1881 PWs)   bands (ev):

     3.9402   4.0318   4.1853   4.2612   4.4564   4.5196   4.8586   4.9442
     5.1789   5.2297   6.3867   7.2670  18.4321  19.4645  20.6548  21.1190

     occupation numbers 
     1.0000   1.0000   1.0000   1.0000   1.0000   1.0000   1.0000   1.0000
     1.0000   1.0000   1.0000   1.0000   0.0000   0.0000   0.0000   0.0000

          k = 0.1429 0.4124 0.0000 (  1866 PWs)   bands (ev):

     3.9226   3.9772   4.0803   4.5293   4.5614   4.5931   4.7277   4.9205
     5.1326   5.2956   6.6726  12.4622  13.6618  15.5580  19.5763  21.5044

     occupation numbers 
     1.0000   1.0000   1.0000   1.0000   1.0000   1.0000   1.0000   1.0000
     1.0000   1.0000   1.0000   0.0000   0.0000   0.0000   0.0000   0.0000

          k = 0.1429 0.4124 0.0768 (  1870 PWs)   bands (ev):

     3.9049   3.9625   4.1366   4.3540   4.5590   4.7426   4.8021   4.9177
     5.1017   5.3047   6.7620  11.2258  15.0754  15.7319  19.7059  20.3213

     occupation numbers 
     1.0000   1.0000   1.0000   1.0000   1.0000   1.0000   1.0000   1.0000
     1.0000   1.0000   1.0000   1.0000   0.0000   0.0000   0.0000   0.0000

          k = 0.1429 0.4124 0.1536 (  1872 PWs)   bands (ev):

     3.8781   3.9819   4.1544   4.2324   4.5918   4.7792   4.8712   5.0164
     5.0596   5.3181   7.0680   9.7788  16.0127  17.1679  19.1159  20.1329

     occupation numbers 
     1.0000   1.0000   1.0000   1.0000   1.0000   1.0000   1.0000   1.0000
     1.0000   1.0000   1.0000   1.0000   0.0000   0.0000   0.0000   0.0000

          k = 0.1429 0.4124 0.2304 (  1879 PWs)   bands (ev):

     3.8982   3.9566   4.1378   4.1856   4.6869   4.7815   4.8601   4.9227
     5.2221   5.3024   7.6636   8.5751  16.6604  17.4599  20.0093  20.7489

     occupation numbers 
     1.0000   1.0000   1.0000   1.0000   1.0000   1.0000   1.0000   1.0000
     1.0000   1.0000   1.0000   1.0000   0.0000   0.0000   0.0000   0.0000

          k = 0.1429 0.4949 0.0000 (  1871 PWs)   bands (ev):

     3.8526   3.9526   4.0043   4.5073   4.6489   4.6618   4.7929   5.1195
     5.1385   5.3309   8.2543  12.4477  14.5101  15.3100  18.8540  19.1495

     occupation numbers 
     1.0000   1.0000   1.0000   1.0000   1.0000   1.0000   1.0000   1.0000
     1.0000   1.0000   1.0000   0.0000   0.0000   0.0000   0.0000   0.0000

          k = 0.1429 0.4949 0.0768 (  1865 PWs)   bands (ev):

     3.8590   3.8840   4.0917   4.3778   4.5947   4.7609   4.9130   5.0870
     5.1315   5.3341   8.3621  12.1893  13.6921  16.4011  18.1512  19.2247

     occupation numbers 
     1.0000   1.0000   1.0000   1.0000   1.0000   1.0000   1.0000   1.0000
     1.0000   1.0000   1.0000   1.0000   0.0000   0.0000   0.0000   0.0000

          k = 0.1429 0.4949 0.1536 (  1865 PWs)   bands (ev):

     3.8278   3.8964   4.1468   4.2054   4.6108   4.8803   4.9903   5.0798
     5.1163   5.3335   8.7004  11.2233  13.6427  15.9979  19.2914  19.6433

     occupation numbers 
     1.0000   1.0000   1.0000   1.0000   1.0000   1.0000   1.0000   1.0000
     1.0000   1.0000   1.0000   1.0000   0.0000   0.0000   0.0000   0.0000

          k = 0.1429 0.4949 0.2304 (  1865 PWs)   bands (ev):

     3.8424   3.8908   4.1146   4.1343   4.7166   4.8554   4.9906   5.0603
     5.2215   5.3028   9.2963  10.1555  14.1649  14.9863  20.2940  20.9824

     occupation numbers 
     1.0000   1.0000   1.0000   1.0000   1.0000   1.0000   1.0000   1.0000
     1.0000   1.0000   1.0000   1.0000   0.0000   0.0000   0.0000   0.0000

          k = 0.1429 0.5774 0.0000 (  1870 PWs)   bands (ev):

     3.8246   3.9370   3.9795   4.5067   4.6134   4.6954   4.8603   5.1148
     5.2646   5.2896   9.9393  10.5951  15.6803  16.5153  17.2423  18.5804

     occupation numbers 
     1.0000   1.0000   1.0000   1.0000   1.0000   1.0000   1.0000   1.0000
     1.0000   1.0000   1.0000   1.0000   0.0000   0.0000   0.0000   0.0000

          k = 0.1429 0.5774 0.0768 (  1870 PWs)   bands (ev):

     3.8374   3.8556   4.0734   4.3876   4.5743   4.7885   4.9574   5.0823
     5.2614   5.2876  10.0532  10.6603  14.9689  15.2193  18.7817  19.0911

     occupation numbers 
     1.0000   1.0000   1.0000   1.0000   1.0000   1.0000   1.0000   1.0000
     1.0000   1.0000   1.0000   1.0000   0.0000   0.0000   0.0000   0.0000

          k = 0.1429 0.5774 0.1536 (  1864 PWs)   bands (ev):

     3.8078   3.8653   4.1313   4.2083   4.5958   4.9409   4.9821   5.0926
     5.2511   5.2739  10.3766  10.8378  13.8536  13.9505  19.4577  20.9165

     occupation numbers 
     1.0000   1.0000   1.0000   1.0000   1.0000   1.0000   1.0000   1.0000
     1.0000   1.0000   1.0000   1.0000   0.0000   0.0000   0.0000   0.0000

          k = 0.1429 0.5774 0.2304 (  1861 PWs)   bands (ev):

     3.8211   3.8655   4.1084   4.1165   4.7065   4.8505   5.0896   5.1573
     5.2336   5.2350  10.8041  10.9975  13.0765  13.1270  20.1357  21.0119

     occupation numbers 
     1.0000   1.0000   1.0000   1.0000   1.0000   1.0000   1.0000   1.0000
     1.0000   1.0000   1.0000   1.0000   0.0000   0.0000   0.0000   0.0000

          k = 0.2143 0.3712 0.0000 (  1867 PWs)   bands (ev):

     4.0897   4.1177   4.1713   4.2938   4.5100   4.5234   4.7477   4.7616
     5.1077   5.2908   6.6088  12.4035  13.5152  17.3290  17.5149  23.3216

     occupation numbers 
     1.0000   1.0000   1.0000   1.0000   1.0000   1.0000   1.0000   1.0000
     1.0000   1.0000   1.0000   0.0000   0.0000   0.0000   0.0000   0.0000

          k = 0.2143 0.3712 0.0768 (  1864 PWs)   bands (ev):

     4.0781   4.1028   4.2060   4.2296   4.5085   4.5773   4.7436   4.8362
     5.0767   5.3017   6.6950  11.1276  15.0249  17.4660  17.6467  22.0511

     occupation numbers 
     1.0000   1.0000   1.0000   1.0000   1.0000   1.0000   1.0000   1.0000
     1.0000   1.0000   1.0000   1.0000   0.0000   0.0000   0.0000   0.0000

          k = 0.2143 0.3712 0.1536 (  1867 PWs)   bands (ev):

     4.0405   4.0822   4.1740   4.3067   4.4722   4.5835   4.7522   4.9903
     5.0444   5.3175   6.9905   9.6740  17.1422  17.8796  18.0331  20.6467

     occupation numbers 
     1.0000   1.0000   1.0000   1.0000   1.0000   1.0000   1.0000   1.0000
     1.0000   1.0000   1.0000   1.0000   0.0000   0.0000   0.0000   0.0000

          k = 0.2143 0.3712 0.2304 (  1872 PWs)   bands (ev):

     4.0239   4.0352   4.2400   4.3099   4.4818   4.5401   4.8007   4.8896
     5.2175   5.3024   7.5720   8.4736  18.5278  18.6254  18.9521  19.4723

     occupation numbers 
     1.0000   1.0000   1.0000   1.0000   1.0000   1.0000   1.0000   1.0000
     1.0000   1.0000   1.0000   1.0000   0.0000   0.0000   0.0000   0.0000

          k = 0.2143 0.4536 0.0000 (  1871 PWs)   bands (ev):

     4.0599   4.0632   4.1515   4.4799   4.5357   4.6322   4.6561   4.9072
     5.0728   5.3130   8.0405  13.5937  14.9289  15.0779  16.7690  20.7012

     occupation numbers 
     1.0000   1.0000   1.0000   1.0000   1.0000   1.0000   1.0000   1.0000
     1.0000   1.0000   1.0000   0.0000   0.0000   0.0000   0.0000   0.0000

          k = 0.2143 0.4536 0.0768 (  1870 PWs)   bands (ev):

     4.0229   4.0766   4.2097   4.3347   4.5451   4.6816   4.7268   4.9347
     5.0402   5.3206   8.1504  12.5524  14.8728  16.4672  16.9104  19.5633

     occupation numbers 
     1.0000   1.0000   1.0000   1.0000   1.0000   1.0000   1.0000   1.0000
     1.0000   1.0000   1.0000   0.0000   0.0000   0.0000   0.0000   0.0000

          k = 0.2143 0.4536 0.1536 (  1867 PWs)   bands (ev):

     3.9910   4.1175   4.1709   4.3105   4.5012   4.7163   4.7841   4.9558
     5.0650   5.3276   8.4956  11.1721  15.2465  17.2794  17.6214  19.0153

     occupation numbers 
     1.0000   1.0000   1.0000   1.0000   1.0000   1.0000   1.0000   1.0000
     1.0000   1.0000   1.0000   1.0000   0.0000   0.0000   0.0000   0.0000

          k = 0.2143 0.4536 0.2304 (  1867 PWs)   bands (ev):

     4.0011   4.0572   4.2016   4.2792   4.5699   4.6764   4.8107   4.8674
     5.2127   5.3009   9.1074  10.0036  15.8831  16.7430  17.9733  18.8209

     occupation numbers 
     1.0000   1.0000   1.0000   1.0000   1.0000   1.0000   1.0000   1.0000
     1.0000   1.0000   1.0000   1.0000   0.0000   0.0000   0.0000   0.0000

          k = 0.2143 0.5361 0.0000 (  1868 PWs)   bands (ev):

     4.0172   4.0393   4.1332   4.4977   4.5681   4.6487   4.6966   5.0541
     5.0809   5.2482   9.8548  12.0291  15.7295  16.4272  16.7281  18.3785

     occupation numbers 
     1.0000   1.0000   1.0000   1.0000   1.0000   1.0000   1.0000   1.0000
     1.0000   1.0000   1.0000   1.0000   0.0000   0.0000   0.0000   0.0000

          k = 0.2143 0.5361 0.0768 (  1874 PWs)   bands (ev):

     3.9943   4.0328   4.2074   4.3836   4.5024   4.7353   4.7776   5.0199
     5.0873   5.2550   9.9707  12.0961  14.7025  16.4497  16.7367  18.7451

     occupation numbers 
     1.0000   1.0000   1.0000   1.0000   1.0000   1.0000   1.0000   1.0000
     1.0000   1.0000   1.0000   1.0000   0.0000   0.0000   0.0000   0.0000

          k = 0.2143 0.5361 0.1536 (  1871 PWs)   bands (ev):

     3.9651   4.0714   4.2277   4.2919   4.4609   4.7965   4.8729   4.9535
     5.1190   5.2630  10.3188  12.1417  13.6776  15.4413  16.9924  19.5419

     occupation numbers 
     1.0000   1.0000   1.0000   1.0000   1.0000   1.0000   1.0000   1.0000
     1.0000   1.0000   1.0000   1.0000   0.0000   0.0000   0.0000   0.0000

          k = 0.2143 0.5361 0.2304 (  1865 PWs)   bands (ev):

     3.9881   4.0578   4.1807   4.2482   4.5668   4.7142   4.9146   4.9395
     5.1877   5.2454  10.8931  11.6302  13.6709  14.3952  17.6510  18.5472

     occupation numbers 
     1.0000   1.0000   1.0000   1.0000   1.0000   1.0000   1.0000   1.0000
     1.0000   1.0000   1.0000   1.0000   0.0000   0.0000   0.0000   0.0000

          k = 0.2857 0.4949 0.0000 (  1876 PWs)   bands (ev):

     4.0738   4.1698   4.2423   4.4679   4.4954   4.5709   4.6851   4.9694
     5.0263   5.2392   9.7451  13.8398  14.2064  15.8135  16.7083  19.9932

     occupation numbers 
     1.0000   1.0000   1.0000   1.0000   1.0000   1.0000   1.0000   1.0000
     1.0000   1.0000   1.0000   0.0000   0.0000   0.0000   0.0000   0.0000

          k = 0.2857 0.4949 0.0768 (  1863 PWs)   bands (ev):

     4.0714   4.1807   4.2755   4.3420   4.5246   4.6020   4.7108   4.9919
     5.0008   5.2489   9.8644  13.6768  14.3431  14.9289  17.7323  18.8571

     occupation numbers 
     1.0000   1.0000   1.0000   1.0000   1.0000   1.0000   1.0000   1.0000
     1.0000   1.0000   1.0000   0.0000   0.0000   0.0000   0.0000   0.0000

          k = 0.2857 0.4949 0.1536 (  1876 PWs)   bands (ev):

     4.0732   4.1951   4.2457   4.3621   4.4411   4.6448   4.7461   4.9093
     5.0887   5.2625  10.2264  12.7693  14.7455  14.8394  17.3581  17.4551

     occupation numbers 
     1.0000   1.0000   1.0000   1.0000   1.0000   1.0000   1.0000   1.0000
     1.0000   1.0000   1.0000   0.0000   0.0000   0.0000   0.0000   0.0000

          k = 0.2857 0.4949 0.2304 (  1866 PWs)   bands (ev):

     4.0911   4.1344   4.2823   4.3538   4.4831   4.5953   4.7801   4.8283
     5.1878   5.2489  10.8398  11.7038  15.3574  15.3713  16.3452  16.3749

     occupation numbers 
     1.0000   1.0000   1.0000   1.0000   1.0000   1.0000   1.0000   1.0000
     1.0000   1.0000   1.0000   1.0000   0.0000   0.0000   0.0000   0.0000

          k = 0.2857 0.5774 0.0000 (  1878 PWs)   bands (ev):

     4.0833   4.2105   4.2734   4.4666   4.4937   4.5062   4.7159   5.0088
     5.0620   5.1408  11.6754  11.8439  13.9236  17.1542  18.0833  18.4273

     occupation numbers 
     1.0000   1.0000   1.0000   1.0000   1.0000   1.0000   1.0000   1.0000
     1.0000   1.0000   1.0000   1.0000   0.0000   0.0000   0.0000   0.0000

          k = 0.2857 0.5774 0.0768 (  1874 PWs)   bands (ev):

     4.0930   4.2180   4.2781   4.3873   4.4813   4.5630   4.7324   4.9740
     5.0817   5.1573  11.8070  11.9435  14.0331  16.3900  16.6225  18.5205

     occupation numbers 
     1.0000   1.0000   1.0000   1.0000   1.0000   1.0000   1.0000   1.0000
     1.0000   1.0000   1.0000   1.0000   0.0000   0.0000   0.0000   0.0000

          k = 0.2857 0.5774 0.1536 (  1864 PWs)   bands (ev):

     4.1126   4.2281   4.3019   4.3037   4.4660   4.5951   4.7586   4.8899
     5.1318   5.1898  12.1811  12.2372  14.2690  15.1881  15.4269  17.2865

     occupation numbers 
     1.0000   1.0000   1.0000   1.0000   1.0000   1.0000   1.0000   1.0000
     1.0000   1.0000   1.0000   0.7500   0.0000   0.0000   0.0000   0.0000

          k = 0.2857 0.5774 0.2304 (  1859 PWs)   bands (ev):

     4.1397   4.1863   4.2988   4.3178   4.4970   4.5683   4.7785   4.8126
     5.1833   5.2052  12.6548  12.6707  14.0247  14.2039  15.3855  16.1898

     occupation numbers 
     1.0000   1.0000   1.0000   1.0000   1.0000   1.0000   1.0000   1.0000
     1.0000   1.0000   0.0000   0.0000   0.0000   0.0000   0.0000   0.0000

     the Fermi energy is    12.2405 ev

!    total energy              =    -487.44371525 Ry
     total all-electron energy =     -7184.237761 Ry
     estimated scf accuracy    <       0.00000321 Ry
     smearing contrib. (-TS)   =      -0.00000076 Ry
     internal energy E=F+TS    =    -487.44371448 Ry

     The total energy is F=E-TS. E is the sum of the following terms:
     one-electron contribution =    -108.73243456 Ry
     hartree contribution      =      88.55739408 Ry
     xc contribution           =     -94.42646366 Ry
     ewald contribution        =    -181.95960572 Ry
     one-center paw contrib.   =    -190.88260463 Ry
      -> PAW hartree energy AE =     123.28042832 Ry
      -> PAW hartree energy PS =    -122.66131083 Ry
      -> PAW xc energy AE      =    -143.16369810 Ry
      -> PAW xc energy PS      =      47.10327829 Ry
      -> total E_H with PAW    =      89.17651157 Ry
      -> total E_XC with PAW   =    -190.48688347 Ry

     total magnetization       =     0.00 Bohr mag/cell
     absolute magnetization    =     0.00 Bohr mag/cell

     convergence has been achieved in   5 iterations

     Writing all to output data dir ./out/Zn.save/
 
     init_run     :      0.26s CPU      0.37s WALL (       1 calls)
     electrons    :      5.73s CPU      6.22s WALL (       1 calls)

     Called by init_run:
     wfcinit      :      0.11s CPU      0.19s WALL (       1 calls)
     potinit      :      0.10s CPU      0.12s WALL (       1 calls)
     hinit0       :      0.04s CPU      0.04s WALL (       1 calls)

     Called by electrons:
     c_bands      :      4.70s CPU      5.07s WALL (       5 calls)
     sum_band     :      0.53s CPU      0.56s WALL (       5 calls)
     v_of_rho     :      0.02s CPU      0.02s WALL (       6 calls)
     v_h          :      0.00s CPU      0.00s WALL (       6 calls)
     v_xc         :      0.02s CPU      0.02s WALL (       6 calls)
     newd         :      0.01s CPU      0.01s WALL (       6 calls)
     PAW_pot      :      0.54s CPU      0.66s WALL (       6 calls)
     mix_rho      :      0.00s CPU      0.00s WALL (       5 calls)

     Called by c_bands:
     init_us_2    :      0.03s CPU      0.04s WALL (     960 calls)
     init_us_2:cp :      0.03s CPU      0.03s WALL (     960 calls)
     cegterg      :      4.46s CPU      4.72s WALL (     480 calls)

     Called by sum_band:
     sum_band:wei :      0.01s CPU      0.01s WALL (       5 calls)
     sum_band:loo :      0.49s CPU      0.51s WALL (       5 calls)
     sum_band:buf :      0.00s CPU      0.00s WALL (     480 calls)
     sum_band:ini :      0.02s CPU      0.02s WALL (     480 calls)
     sum_band:cal :      0.04s CPU      0.04s WALL (     480 calls)
     sum_band:bec :      0.00s CPU      0.00s WALL (     480 calls)
     addusdens    :      0.01s CPU      0.02s WALL (       5 calls)
                                        0.00s GPU  (       5 calls)
     addusd:skk   :      0.00s CPU      0.00s WALL (       5 calls)
                                        0.00s GPU  (       5 calls)

     Called by *egterg:
     cdiaghg      :      0.74s CPU      0.78s WALL (    2442 calls)
     cegterg:over :      0.13s CPU      0.14s WALL (    2058 calls)
     cegterg:upda :      0.03s CPU      0.03s WALL (    2058 calls)
     cegterg:last :      0.05s CPU      0.05s WALL (    1557 calls)
     h_psi        :      3.35s CPU      3.56s WALL (    2538 calls)
     s_psi        :      0.06s CPU      0.06s WALL (    2538 calls)
     g_psi        :      0.01s CPU      0.01s WALL (    2058 calls)

     Called by h_psi:
     h_psi:calbec :      0.16s CPU      0.17s WALL (    2538 calls)
     vloc_psi     :      3.11s CPU      3.30s WALL (    2538 calls)
     add_vuspsi   :      0.06s CPU      0.07s WALL (    2538 calls)

     General routines
     calbec       :      0.19s CPU      0.20s WALL (    3018 calls)
     fft          :      0.01s CPU      0.01s WALL (     124 calls)
     ffts         :      0.00s CPU      0.00s WALL (      10 calls)
     fftw         :      3.29s CPU      3.48s WALL (   66896 calls)
 
     Parallel routines

     PAW routines
     PAW_pot      :      0.54s CPU      0.66s WALL (       6 calls)
     PAW_symme    :      0.00s CPU      0.01s WALL (      10 calls)
 
     PWSCF        :      6.23s CPU      7.14s WALL

 
   This run was terminated on:   3:24:23  13Mar2024            

=------------------------------------------------------------------------------=
   JOB DONE.
=------------------------------------------------------------------------------=
