
     Program PWSCF v.7.2 starts on 13Mar2024 at  3:28: 1 

     This program is part of the open-source Quantum ESPRESSO suite
     for quantum simulation of materials; please cite
         "P. Giannozzi et al., J. Phys.:Condens. Matter 21 395502 (2009);
         "P. Giannozzi et al., J. Phys.:Condens. Matter 29 465901 (2017);
         "P. Giannozzi et al., J. Chem. Phys. 152 154105 (2020);
          URL http://www.quantum-espresso.org", 
     in publications or presentations arising from this work. More details at
     http://www.quantum-espresso.org/quote

     Parallel version (MPI), running on    28 processors

     MPI processes distributed on     1 nodes
     150194 MiB available memory on the printing compute node when the environment starts
 
     Waiting for input...
     Reading input from standard input

     Current dimensions of program PWSCF are:
     Max number of different atomic species (ntypx) = 10
     Max number of k-points (npk) = 120000
     Max angular momentum in pseudopotentials (lmaxx) =  4
     file Zn.pbe-dnl-kjpaw_psl.1.0.0.UPF: wavefunction(s)  4S 3D renormalized
 
     K-points division:     npool     =       2
     R & G space division:  proc/nbgrp/npool/nimage =      14
     Subspace diagonalization in iterative solution of the eigenvalue problem:
     a serial algorithm will be used

 
     Parallelization info
     --------------------
     sticks:   dense  smooth     PW     G-vecs:    dense   smooth      PW
     Min          35      35     10                 1161     1161     192
     Max          36      36     11                 1168     1168     199
     Sum         499     499    151                16303    16303    2745
 
     Using Slab Decomposition
 


     bravais-lattice index     =            4
     lattice parameter (alat)  =       5.0500  a.u.
     unit-cell volume          =     205.2214 (a.u.)^3
     number of atoms/cell      =            2
     number of atomic types    =            1
     number of electrons       =        24.00
     number of Kohn-Sham states=           16
     kinetic-energy cutoff     =      70.0000  Ry
     charge density cutoff     =     280.0000  Ry
     scf convergence threshold =      4.0E-06
     mixing beta               =       0.7000
     number of iterations used =            8  plain     mixing
     Exchange-correlation= SLA  PW   PBX  PBC
                           (   1   4   3   4   0   0   0)

     celldm(1)=   5.050000  celldm(2)=   0.000000  celldm(3)=   1.840000
     celldm(4)=   0.000000  celldm(5)=   0.000000  celldm(6)=   0.000000

     crystal axes: (cart. coord. in units of alat)
               a(1) = (   1.000000   0.000000   0.000000 )  
               a(2) = (  -0.500000   0.866025   0.000000 )  
               a(3) = (   0.000000   0.000000   1.840000 )  

     reciprocal axes: (cart. coord. in units 2 pi/alat)
               b(1) = (  1.000000  0.577350  0.000000 )  
               b(2) = (  0.000000  1.154701  0.000000 )  
               b(3) = (  0.000000  0.000000  0.543478 )  


     PseudoPot. # 1 for Zn read from file:
     /truba/home/amuhaymin/ZnS/pseudo/QE/Zn.pbe-dnl-kjpaw_psl.1.0.0.UPF
     MD5 check sum: c608214d9520ac179f507641260889e3
     Pseudo is Projector augmented-wave + core cor, Zval = 12.0
     Generated using &quot;atomic&quot; code by A. Dal Corso  v.6.2.2
     Shape of augmentation charge: PSQ
     Using radial grid of 1201 points,  6 beta functions with: 
                l(1) =   0
                l(2) =   0
                l(3) =   1
                l(4) =   1
                l(5) =   2
                l(6) =   2
     Q(r) pseudized with 0 coefficients 


     atomic species   valence    mass     pseudopotential
        Zn            12.00    65.38000     Zn( 1.00)

     Starting magnetic structure 
     atomic species   magnetization
        Zn           0.000

     24 Sym. Ops., with inversion, found (12 have fractional translation)


                                    s                        frac. trans.

      isym =  1     identity                                     

 cryst.   s( 1) = (     1          0          0      )
                  (     0          1          0      )
                  (     0          0          1      )

 cart.    s( 1) = (  1.0000000  0.0000000  0.0000000 )
                  (  0.0000000  1.0000000  0.0000000 )
                  (  0.0000000  0.0000000  1.0000000 )


      isym =  2     180 deg rotation - cart. axis [0,0,1]        

 cryst.   s( 2) = (    -1          0          0      )    f =(  0.0000000 )
                  (     0         -1          0      )       ( -0.0000000 )
                  (     0          0          1      )       ( -0.5000000 )

 cart.    s( 2) = ( -1.0000000  0.0000000  0.0000000 )    f =(  0.0000000 )
                  (  0.0000000 -1.0000000  0.0000000 )       ( -0.0000000 )
                  (  0.0000000  0.0000000  1.0000000 )       ( -0.9200000 )


      isym =  3     180 deg rotation - cart. axis [0,1,0]        

 cryst.   s( 3) = (    -1          0          0      )    f =(  0.0000000 )
                  (     1          1          0      )       (  0.0000000 )
                  (     0          0         -1      )       (  0.5000000 )

 cart.    s( 3) = ( -1.0000000  0.0000000  0.0000000 )    f =(  0.0000000 )
                  (  0.0000000  1.0000000  0.0000000 )       (  0.0000000 )
                  (  0.0000000  0.0000000 -1.0000000 )       (  0.9200000 )


      isym =  4     180 deg rotation - cart. axis [1,0,0]        

 cryst.   s( 4) = (     1          0          0      )
                  (    -1         -1          0      )
                  (     0          0         -1      )

 cart.    s( 4) = (  1.0000000  0.0000000  0.0000000 )
                  (  0.0000000 -1.0000000  0.0000000 )
                  (  0.0000000  0.0000000 -1.0000000 )


      isym =  5      60 deg rotation - cryst. axis [0,0,1]       

 cryst.   s( 5) = (     1          1          0      )    f =(  0.0000000 )
                  (    -1          0          0      )       ( -0.0000000 )
                  (     0          0          1      )       ( -0.5000000 )

 cart.    s( 5) = (  0.5000000 -0.8660254  0.0000000 )    f =(  0.0000000 )
                  (  0.8660254  0.5000000  0.0000000 )       ( -0.0000000 )
                  (  0.0000000  0.0000000  1.0000000 )       ( -0.9200000 )


      isym =  6      60 deg rotation - cryst. axis [0,0,-1]      

 cryst.   s( 6) = (     0         -1          0      )    f =(  0.0000000 )
                  (     1          1          0      )       ( -0.0000000 )
                  (     0          0          1      )       ( -0.5000000 )

 cart.    s( 6) = (  0.5000000  0.8660254  0.0000000 )    f =(  0.0000000 )
                  ( -0.8660254  0.5000000  0.0000000 )       ( -0.0000000 )
                  (  0.0000000  0.0000000  1.0000000 )       ( -0.9200000 )


      isym =  7     120 deg rotation - cryst. axis [0,0,1]       

 cryst.   s( 7) = (     0          1          0      )
                  (    -1         -1          0      )
                  (     0          0          1      )

 cart.    s( 7) = ( -0.5000000 -0.8660254  0.0000000 )
                  (  0.8660254 -0.5000000  0.0000000 )
                  (  0.0000000  0.0000000  1.0000000 )


      isym =  8     120 deg rotation - cryst. axis [0,0,-1]      

 cryst.   s( 8) = (    -1         -1          0      )
                  (     1          0          0      )
                  (     0          0          1      )

 cart.    s( 8) = ( -0.5000000  0.8660254  0.0000000 )
                  ( -0.8660254 -0.5000000  0.0000000 )
                  (  0.0000000  0.0000000  1.0000000 )


      isym =  9     180 deg rotation - cryst. axis [1,-1,0]      

 cryst.   s( 9) = (     0         -1          0      )    f =( -0.0000000 )
                  (    -1          0          0      )       ( -0.0000000 )
                  (     0          0         -1      )       (  0.5000000 )

 cart.    s( 9) = (  0.5000000 -0.8660254  0.0000000 )    f =( -0.0000000 )
                  ( -0.8660254 -0.5000000  0.0000000 )       ( -0.0000000 )
                  (  0.0000000  0.0000000 -1.0000000 )       (  0.9200000 )


      isym = 10     180 deg rotation - cryst. axis [2,1,0]       

 cryst.   s(10) = (     1          1          0      )    f =(  0.0000000 )
                  (     0         -1          0      )       ( -0.0000000 )
                  (     0          0         -1      )       (  0.5000000 )

 cart.    s(10) = (  0.5000000  0.8660254  0.0000000 )    f =(  0.0000000 )
                  (  0.8660254 -0.5000000  0.0000000 )       ( -0.0000000 )
                  (  0.0000000  0.0000000 -1.0000000 )       (  0.9200000 )


      isym = 11     180 deg rotation - cryst. axis [0,1,0]       

 cryst.   s(11) = (    -1         -1          0      )
                  (     0          1          0      )
                  (     0          0         -1      )

 cart.    s(11) = ( -0.5000000 -0.8660254  0.0000000 )
                  ( -0.8660254  0.5000000  0.0000000 )
                  (  0.0000000  0.0000000 -1.0000000 )


      isym = 12     180 deg rotation - cryst. axis [1,1,0]       

 cryst.   s(12) = (     0          1          0      )
                  (     1          0          0      )
                  (     0          0         -1      )

 cart.    s(12) = ( -0.5000000  0.8660254  0.0000000 )
                  (  0.8660254  0.5000000  0.0000000 )
                  (  0.0000000  0.0000000 -1.0000000 )


      isym = 13     inversion                                    

 cryst.   s(13) = (    -1          0          0      )
                  (     0         -1          0      )
                  (     0          0         -1      )

 cart.    s(13) = ( -1.0000000  0.0000000  0.0000000 )
                  (  0.0000000 -1.0000000  0.0000000 )
                  (  0.0000000  0.0000000 -1.0000000 )


      isym = 14     inv. 180 deg rotation - cart. axis [0,0,1]   

 cryst.   s(14) = (     1          0          0      )    f =(  0.0000000 )
                  (     0          1          0      )       (  0.0000000 )
                  (     0          0         -1      )       (  0.5000000 )

 cart.    s(14) = (  1.0000000  0.0000000  0.0000000 )    f =(  0.0000000 )
                  (  0.0000000  1.0000000  0.0000000 )       (  0.0000000 )
                  (  0.0000000  0.0000000 -1.0000000 )       (  0.9200000 )


      isym = 15     inv. 180 deg rotation - cart. axis [0,1,0]   

 cryst.   s(15) = (     1          0          0      )    f =(  0.0000000 )
                  (    -1         -1          0      )       ( -0.0000000 )
                  (     0          0          1      )       ( -0.5000000 )

 cart.    s(15) = (  1.0000000  0.0000000  0.0000000 )    f =(  0.0000000 )
                  (  0.0000000 -1.0000000  0.0000000 )       ( -0.0000000 )
                  (  0.0000000  0.0000000  1.0000000 )       ( -0.9200000 )


      isym = 16     inv. 180 deg rotation - cart. axis [1,0,0]   

 cryst.   s(16) = (    -1          0          0      )
                  (     1          1          0      )
                  (     0          0          1      )

 cart.    s(16) = ( -1.0000000  0.0000000  0.0000000 )
                  (  0.0000000  1.0000000  0.0000000 )
                  (  0.0000000  0.0000000  1.0000000 )


      isym = 17     inv.  60 deg rotation - cryst. axis [0,0,1]  

 cryst.   s(17) = (    -1         -1          0      )    f =(  0.0000000 )
                  (     1          0          0      )       ( -0.0000000 )
                  (     0          0         -1      )       (  0.5000000 )

 cart.    s(17) = ( -0.5000000  0.8660254  0.0000000 )    f =(  0.0000000 )
                  ( -0.8660254 -0.5000000  0.0000000 )       ( -0.0000000 )
                  (  0.0000000  0.0000000 -1.0000000 )       (  0.9200000 )


      isym = 18     inv.  60 deg rotation - cryst. axis [0,0,-1] 

 cryst.   s(18) = (     0          1          0      )    f =( -0.0000000 )
                  (    -1         -1          0      )       ( -0.0000000 )
                  (     0          0         -1      )       (  0.5000000 )

 cart.    s(18) = ( -0.5000000 -0.8660254  0.0000000 )    f =(  0.0000000 )
                  (  0.8660254 -0.5000000  0.0000000 )       ( -0.0000000 )
                  (  0.0000000  0.0000000 -1.0000000 )       (  0.9200000 )


      isym = 19     inv. 120 deg rotation - cryst. axis [0,0,1]  

 cryst.   s(19) = (     0         -1          0      )
                  (     1          1          0      )
                  (     0          0         -1      )

 cart.    s(19) = (  0.5000000  0.8660254  0.0000000 )
                  ( -0.8660254  0.5000000  0.0000000 )
                  (  0.0000000  0.0000000 -1.0000000 )


      isym = 20     inv. 120 deg rotation - cryst. axis [0,0,-1] 

 cryst.   s(20) = (     1          1          0      )
                  (    -1          0          0      )
                  (     0          0         -1      )

 cart.    s(20) = (  0.5000000 -0.8660254  0.0000000 )
                  (  0.8660254  0.5000000  0.0000000 )
                  (  0.0000000  0.0000000 -1.0000000 )


      isym = 21     inv. 180 deg rotation - cryst. axis [1,-1,0] 

 cryst.   s(21) = (     0          1          0      )    f =(  0.0000000 )
                  (     1          0          0      )       ( -0.0000000 )
                  (     0          0          1      )       ( -0.5000000 )

 cart.    s(21) = ( -0.5000000  0.8660254  0.0000000 )    f =(  0.0000000 )
                  (  0.8660254  0.5000000  0.0000000 )       ( -0.0000000 )
                  (  0.0000000  0.0000000  1.0000000 )       ( -0.9200000 )


      isym = 22     inv. 180 deg rotation - cryst. axis [2,1,0]  

 cryst.   s(22) = (    -1         -1          0      )    f =(  0.0000000 )
                  (     0          1          0      )       ( -0.0000000 )
                  (     0          0          1      )       ( -0.5000000 )

 cart.    s(22) = ( -0.5000000 -0.8660254  0.0000000 )    f =(  0.0000000 )
                  ( -0.8660254  0.5000000  0.0000000 )       ( -0.0000000 )
                  (  0.0000000  0.0000000  1.0000000 )       ( -0.9200000 )


      isym = 23     inv. 180 deg rotation - cryst. axis [0,1,0]  

 cryst.   s(23) = (     1          1          0      )
                  (     0         -1          0      )
                  (     0          0          1      )

 cart.    s(23) = (  0.5000000  0.8660254  0.0000000 )
                  (  0.8660254 -0.5000000  0.0000000 )
                  (  0.0000000  0.0000000  1.0000000 )


      isym = 24     inv. 180 deg rotation - cryst. axis [1,1,0]  

 cryst.   s(24) = (     0         -1          0      )
                  (    -1          0          0      )
                  (     0          0          1      )

 cart.    s(24) = (  0.5000000 -0.8660254  0.0000000 )
                  ( -0.8660254 -0.5000000  0.0000000 )
                  (  0.0000000  0.0000000  1.0000000 )


     point group D_6h(6/mmm)
     there are 12 classes
     the character table:

       E     2C6   2C3   C2    3C2'  3C2'' i     2S3   2S6   s_h   3s_d  3s_v 
A_1g   1.00  1.00  1.00  1.00  1.00  1.00  1.00  1.00  1.00  1.00  1.00  1.00
A_2g   1.00  1.00  1.00  1.00 -1.00 -1.00  1.00  1.00  1.00  1.00 -1.00 -1.00
B_1g   1.00 -1.00  1.00 -1.00  1.00 -1.00  1.00 -1.00  1.00 -1.00  1.00 -1.00
B_2g   1.00 -1.00  1.00 -1.00 -1.00  1.00  1.00 -1.00  1.00 -1.00 -1.00  1.00
E_1g   2.00  1.00 -1.00 -2.00  0.00  0.00  2.00  1.00 -1.00 -2.00  0.00  0.00
E_2g   2.00 -1.00 -1.00  2.00  0.00  0.00  2.00 -1.00 -1.00  2.00  0.00  0.00
A_1u   1.00  1.00  1.00  1.00  1.00  1.00 -1.00 -1.00 -1.00 -1.00 -1.00 -1.00
A_2u   1.00  1.00  1.00  1.00 -1.00 -1.00 -1.00 -1.00 -1.00 -1.00  1.00  1.00
B_1u   1.00 -1.00  1.00 -1.00  1.00 -1.00 -1.00  1.00 -1.00  1.00 -1.00  1.00
B_2u   1.00 -1.00  1.00 -1.00 -1.00  1.00 -1.00  1.00 -1.00  1.00  1.00 -1.00
E_1u   2.00  1.00 -1.00 -2.00  0.00  0.00 -2.00 -1.00  1.00  2.00  0.00  0.00
E_2u   2.00 -1.00 -1.00  2.00  0.00  0.00 -2.00  1.00  1.00 -2.00  0.00  0.00

     the symmetry operations in each class and the name of the first element:

     E        1
          identity                                               
     2C6      5    6
           60 deg rotation - cryst. axis [0,0,1]                 
     2C3      7    8
          120 deg rotation - cryst. axis [0,0,1]                 
     C2       2
          180 deg rotation - cart. axis [0,0,1]                  
     3C2'     4   12   11
          180 deg rotation - cart. axis [1,0,0]                  
     3C2''    3    9   10
          180 deg rotation - cart. axis [0,1,0]                  
     i       13
          inversion                                              
     2S3     17   18
          inv.  60 deg rotation - cryst. axis [0,0,1]            
     2S6     19   20
          inv. 120 deg rotation - cryst. axis [0,0,1]            
     s_h     14
          inv. 180 deg rotation - cart. axis [0,0,1]             
     3s_d    16   24   23
          inv. 180 deg rotation - cart. axis [1,0,0]             
     3s_v    15   21   22
          inv. 180 deg rotation - cart. axis [0,1,0]             

   Cartesian axes

     site n.     atom                  positions (alat units)
         1           Zn  tau(   1) = (  -0.0000000   0.5773503   0.4600000  )
         2           Zn  tau(   2) = (   0.5000000   0.2886751   1.3800000  )

   Crystallographic axes

     site n.     atom                  positions (cryst. coord.)
         1           Zn  tau(   1) = (  0.3333333  0.6666667  0.2500000  )
         2           Zn  tau(   2) = (  0.6666667  0.3333333  0.7500000  )

     number of k points=    96  Marzari-Vanderbilt smearing, width (Ry)=  0.0005
                       cart. coord. in units 2pi/alat
        k(    1) = (   0.0000000   0.0000000   0.0000000), wk =   0.0007289
        k(    2) = (   0.0000000   0.0000000   0.0776398), wk =   0.0014577
        k(    3) = (   0.0000000   0.0000000   0.1552795), wk =   0.0014577
        k(    4) = (   0.0000000   0.0000000   0.2329193), wk =   0.0014577
        k(    5) = (   0.0000000   0.0824786   0.0000000), wk =   0.0043732
        k(    6) = (   0.0000000   0.0824786   0.0776398), wk =   0.0087464
        k(    7) = (   0.0000000   0.0824786   0.1552795), wk =   0.0087464
        k(    8) = (   0.0000000   0.0824786   0.2329193), wk =   0.0087464
        k(    9) = (   0.0000000   0.1649572   0.0000000), wk =   0.0043732
        k(   10) = (   0.0000000   0.1649572   0.0776398), wk =   0.0087464
        k(   11) = (   0.0000000   0.1649572   0.1552795), wk =   0.0087464
        k(   12) = (   0.0000000   0.1649572   0.2329193), wk =   0.0087464
        k(   13) = (   0.0000000   0.2474358   0.0000000), wk =   0.0043732
        k(   14) = (   0.0000000   0.2474358   0.0776398), wk =   0.0087464
        k(   15) = (   0.0000000   0.2474358   0.1552795), wk =   0.0087464
        k(   16) = (   0.0000000   0.2474358   0.2329193), wk =   0.0087464
        k(   17) = (   0.0000000   0.3299144   0.0000000), wk =   0.0043732
        k(   18) = (   0.0000000   0.3299144   0.0776398), wk =   0.0087464
        k(   19) = (   0.0000000   0.3299144   0.1552795), wk =   0.0087464
        k(   20) = (   0.0000000   0.3299144   0.2329193), wk =   0.0087464
        k(   21) = (   0.0000000   0.4123930   0.0000000), wk =   0.0043732
        k(   22) = (   0.0000000   0.4123930   0.0776398), wk =   0.0087464
        k(   23) = (   0.0000000   0.4123930   0.1552795), wk =   0.0087464
        k(   24) = (   0.0000000   0.4123930   0.2329193), wk =   0.0087464
        k(   25) = (   0.0000000   0.4948717   0.0000000), wk =   0.0043732
        k(   26) = (   0.0000000   0.4948717   0.0776398), wk =   0.0087464
        k(   27) = (   0.0000000   0.4948717   0.1552795), wk =   0.0087464
        k(   28) = (   0.0000000   0.4948717   0.2329193), wk =   0.0087464
        k(   29) = (   0.0000000  -0.5773503   0.0000000), wk =   0.0021866
        k(   30) = (   0.0000000  -0.5773503   0.0776398), wk =   0.0043732
        k(   31) = (   0.0000000  -0.5773503   0.1552795), wk =   0.0043732
        k(   32) = (   0.0000000  -0.5773503   0.2329193), wk =   0.0043732
        k(   33) = (   0.0714286   0.1237179   0.0000000), wk =   0.0043732
        k(   34) = (   0.0714286   0.1237179   0.0776398), wk =   0.0087464
        k(   35) = (   0.0714286   0.1237179   0.1552795), wk =   0.0087464
        k(   36) = (   0.0714286   0.1237179   0.2329193), wk =   0.0087464
        k(   37) = (   0.0714286   0.2061965   0.0000000), wk =   0.0087464
        k(   38) = (   0.0714286   0.2061965   0.0776398), wk =   0.0174927
        k(   39) = (   0.0714286   0.2061965   0.1552795), wk =   0.0174927
        k(   40) = (   0.0714286   0.2061965   0.2329193), wk =   0.0174927
        k(   41) = (   0.0714286   0.2886751   0.0000000), wk =   0.0087464
        k(   42) = (   0.0714286   0.2886751   0.0776398), wk =   0.0174927
        k(   43) = (   0.0714286   0.2886751   0.1552795), wk =   0.0174927
        k(   44) = (   0.0714286   0.2886751   0.2329193), wk =   0.0174927
        k(   45) = (   0.0714286   0.3711537   0.0000000), wk =   0.0087464
        k(   46) = (   0.0714286   0.3711537   0.0776398), wk =   0.0174927
        k(   47) = (   0.0714286   0.3711537   0.1552795), wk =   0.0174927
        k(   48) = (   0.0714286   0.3711537   0.2329193), wk =   0.0174927
        k(   49) = (   0.0714286   0.4536324   0.0000000), wk =   0.0087464
        k(   50) = (   0.0714286   0.4536324   0.0776398), wk =   0.0174927
        k(   51) = (   0.0714286   0.4536324   0.1552795), wk =   0.0174927
        k(   52) = (   0.0714286   0.4536324   0.2329193), wk =   0.0174927
        k(   53) = (   0.0714286   0.5361110   0.0000000), wk =   0.0087464
        k(   54) = (   0.0714286   0.5361110   0.0776398), wk =   0.0174927
        k(   55) = (   0.0714286   0.5361110   0.1552795), wk =   0.0174927
        k(   56) = (   0.0714286   0.5361110   0.2329193), wk =   0.0174927
        k(   57) = (   0.1428571   0.2474358   0.0000000), wk =   0.0043732
        k(   58) = (   0.1428571   0.2474358   0.0776398), wk =   0.0087464
        k(   59) = (   0.1428571   0.2474358   0.1552795), wk =   0.0087464
        k(   60) = (   0.1428571   0.2474358   0.2329193), wk =   0.0087464
        k(   61) = (   0.1428571   0.3299144   0.0000000), wk =   0.0087464
        k(   62) = (   0.1428571   0.3299144   0.0776398), wk =   0.0174927
        k(   63) = (   0.1428571   0.3299144   0.1552795), wk =   0.0174927
        k(   64) = (   0.1428571   0.3299144   0.2329193), wk =   0.0174927
        k(   65) = (   0.1428571   0.4123930   0.0000000), wk =   0.0087464
        k(   66) = (   0.1428571   0.4123930   0.0776398), wk =   0.0174927
        k(   67) = (   0.1428571   0.4123930   0.1552795), wk =   0.0174927
        k(   68) = (   0.1428571   0.4123930   0.2329193), wk =   0.0174927
        k(   69) = (   0.1428571   0.4948717   0.0000000), wk =   0.0087464
        k(   70) = (   0.1428571   0.4948717   0.0776398), wk =   0.0174927
        k(   71) = (   0.1428571   0.4948717   0.1552795), wk =   0.0174927
        k(   72) = (   0.1428571   0.4948717   0.2329193), wk =   0.0174927
        k(   73) = (   0.1428571   0.5773503   0.0000000), wk =   0.0043732
        k(   74) = (   0.1428571   0.5773503   0.0776398), wk =   0.0087464
        k(   75) = (   0.1428571   0.5773503   0.1552795), wk =   0.0087464
        k(   76) = (   0.1428571   0.5773503   0.2329193), wk =   0.0087464
        k(   77) = (   0.2142857   0.3711537   0.0000000), wk =   0.0043732
        k(   78) = (   0.2142857   0.3711537   0.0776398), wk =   0.0087464
        k(   79) = (   0.2142857   0.3711537   0.1552795), wk =   0.0087464
        k(   80) = (   0.2142857   0.3711537   0.2329193), wk =   0.0087464
        k(   81) = (   0.2142857   0.4536324   0.0000000), wk =   0.0087464
        k(   82) = (   0.2142857   0.4536324   0.0776398), wk =   0.0174927
        k(   83) = (   0.2142857   0.4536324   0.1552795), wk =   0.0174927
        k(   84) = (   0.2142857   0.4536324   0.2329193), wk =   0.0174927
        k(   85) = (   0.2142857   0.5361110   0.0000000), wk =   0.0087464
        k(   86) = (   0.2142857   0.5361110   0.0776398), wk =   0.0174927
        k(   87) = (   0.2142857   0.5361110   0.1552795), wk =   0.0174927
        k(   88) = (   0.2142857   0.5361110   0.2329193), wk =   0.0174927
        k(   89) = (   0.2857143   0.4948717   0.0000000), wk =   0.0043732
        k(   90) = (   0.2857143   0.4948717   0.0776398), wk =   0.0087464
        k(   91) = (   0.2857143   0.4948717   0.1552795), wk =   0.0087464
        k(   92) = (   0.2857143   0.4948717   0.2329193), wk =   0.0087464
        k(   93) = (   0.2857143   0.5773503   0.0000000), wk =   0.0043732
        k(   94) = (   0.2857143   0.5773503   0.0776398), wk =   0.0087464
        k(   95) = (   0.2857143   0.5773503   0.1552795), wk =   0.0087464
        k(   96) = (   0.2857143   0.5773503   0.2329193), wk =   0.0087464

                       cryst. coord.
        k(    1) = (   0.0000000   0.0000000   0.0000000), wk =   0.0007289
        k(    2) = (   0.0000000   0.0000000   0.1428571), wk =   0.0014577
        k(    3) = (   0.0000000   0.0000000   0.2857143), wk =   0.0014577
        k(    4) = (   0.0000000   0.0000000   0.4285714), wk =   0.0014577
        k(    5) = (   0.0000000   0.0714286   0.0000000), wk =   0.0043732
        k(    6) = (   0.0000000   0.0714286   0.1428571), wk =   0.0087464
        k(    7) = (   0.0000000   0.0714286   0.2857143), wk =   0.0087464
        k(    8) = (   0.0000000   0.0714286   0.4285714), wk =   0.0087464
        k(    9) = (   0.0000000   0.1428571   0.0000000), wk =   0.0043732
        k(   10) = (   0.0000000   0.1428571   0.1428571), wk =   0.0087464
        k(   11) = (   0.0000000   0.1428571   0.2857143), wk =   0.0087464
        k(   12) = (   0.0000000   0.1428571   0.4285714), wk =   0.0087464
        k(   13) = (   0.0000000   0.2142857   0.0000000), wk =   0.0043732
        k(   14) = (   0.0000000   0.2142857   0.1428571), wk =   0.0087464
        k(   15) = (   0.0000000   0.2142857   0.2857143), wk =   0.0087464
        k(   16) = (   0.0000000   0.2142857   0.4285714), wk =   0.0087464
        k(   17) = (   0.0000000   0.2857143   0.0000000), wk =   0.0043732
        k(   18) = (   0.0000000   0.2857143   0.1428571), wk =   0.0087464
        k(   19) = (   0.0000000   0.2857143   0.2857143), wk =   0.0087464
        k(   20) = (   0.0000000   0.2857143   0.4285714), wk =   0.0087464
        k(   21) = (   0.0000000   0.3571429   0.0000000), wk =   0.0043732
        k(   22) = (   0.0000000   0.3571429   0.1428571), wk =   0.0087464
        k(   23) = (   0.0000000   0.3571429   0.2857143), wk =   0.0087464
        k(   24) = (   0.0000000   0.3571429   0.4285714), wk =   0.0087464
        k(   25) = (   0.0000000   0.4285714   0.0000000), wk =   0.0043732
        k(   26) = (   0.0000000   0.4285714   0.1428571), wk =   0.0087464
        k(   27) = (   0.0000000   0.4285714   0.2857143), wk =   0.0087464
        k(   28) = (   0.0000000   0.4285714   0.4285714), wk =   0.0087464
        k(   29) = (   0.0000000  -0.5000000   0.0000000), wk =   0.0021866
        k(   30) = (   0.0000000  -0.5000000   0.1428571), wk =   0.0043732
        k(   31) = (   0.0000000  -0.5000000   0.2857143), wk =   0.0043732
        k(   32) = (   0.0000000  -0.5000000   0.4285714), wk =   0.0043732
        k(   33) = (   0.0714286   0.0714286   0.0000000), wk =   0.0043732
        k(   34) = (   0.0714286   0.0714286   0.1428571), wk =   0.0087464
        k(   35) = (   0.0714286   0.0714286   0.2857143), wk =   0.0087464
        k(   36) = (   0.0714286   0.0714286   0.4285714), wk =   0.0087464
        k(   37) = (   0.0714286   0.1428571   0.0000000), wk =   0.0087464
        k(   38) = (   0.0714286   0.1428571   0.1428571), wk =   0.0174927
        k(   39) = (   0.0714286   0.1428571   0.2857143), wk =   0.0174927
        k(   40) = (   0.0714286   0.1428571   0.4285714), wk =   0.0174927
        k(   41) = (   0.0714286   0.2142857   0.0000000), wk =   0.0087464
        k(   42) = (   0.0714286   0.2142857   0.1428571), wk =   0.0174927
        k(   43) = (   0.0714286   0.2142857   0.2857143), wk =   0.0174927
        k(   44) = (   0.0714286   0.2142857   0.4285714), wk =   0.0174927
        k(   45) = (   0.0714286   0.2857143   0.0000000), wk =   0.0087464
        k(   46) = (   0.0714286   0.2857143   0.1428571), wk =   0.0174927
        k(   47) = (   0.0714286   0.2857143   0.2857143), wk =   0.0174927
        k(   48) = (   0.0714286   0.2857143   0.4285714), wk =   0.0174927
        k(   49) = (   0.0714286   0.3571429   0.0000000), wk =   0.0087464
        k(   50) = (   0.0714286   0.3571429   0.1428571), wk =   0.0174927
        k(   51) = (   0.0714286   0.3571429   0.2857143), wk =   0.0174927
        k(   52) = (   0.0714286   0.3571429   0.4285714), wk =   0.0174927
        k(   53) = (   0.0714286   0.4285714   0.0000000), wk =   0.0087464
        k(   54) = (   0.0714286   0.4285714   0.1428571), wk =   0.0174927
        k(   55) = (   0.0714286   0.4285714   0.2857143), wk =   0.0174927
        k(   56) = (   0.0714286   0.4285714   0.4285714), wk =   0.0174927
        k(   57) = (   0.1428571   0.1428571   0.0000000), wk =   0.0043732
        k(   58) = (   0.1428571   0.1428571   0.1428571), wk =   0.0087464
        k(   59) = (   0.1428571   0.1428571   0.2857143), wk =   0.0087464
        k(   60) = (   0.1428571   0.1428571   0.4285714), wk =   0.0087464
        k(   61) = (   0.1428571   0.2142857   0.0000000), wk =   0.0087464
        k(   62) = (   0.1428571   0.2142857   0.1428571), wk =   0.0174927
        k(   63) = (   0.1428571   0.2142857   0.2857143), wk =   0.0174927
        k(   64) = (   0.1428571   0.2142857   0.4285714), wk =   0.0174927
        k(   65) = (   0.1428571   0.2857143   0.0000000), wk =   0.0087464
        k(   66) = (   0.1428571   0.2857143   0.1428571), wk =   0.0174927
        k(   67) = (   0.1428571   0.2857143   0.2857143), wk =   0.0174927
        k(   68) = (   0.1428571   0.2857143   0.4285714), wk =   0.0174927
        k(   69) = (   0.1428571   0.3571429   0.0000000), wk =   0.0087464
        k(   70) = (   0.1428571   0.3571429   0.1428571), wk =   0.0174927
        k(   71) = (   0.1428571   0.3571429   0.2857143), wk =   0.0174927
        k(   72) = (   0.1428571   0.3571429   0.4285714), wk =   0.0174927
        k(   73) = (   0.1428571   0.4285714   0.0000000), wk =   0.0043732
        k(   74) = (   0.1428571   0.4285714   0.1428571), wk =   0.0087464
        k(   75) = (   0.1428571   0.4285714   0.2857143), wk =   0.0087464
        k(   76) = (   0.1428571   0.4285714   0.4285714), wk =   0.0087464
        k(   77) = (   0.2142857   0.2142857   0.0000000), wk =   0.0043732
        k(   78) = (   0.2142857   0.2142857   0.1428571), wk =   0.0087464
        k(   79) = (   0.2142857   0.2142857   0.2857143), wk =   0.0087464
        k(   80) = (   0.2142857   0.2142857   0.4285714), wk =   0.0087464
        k(   81) = (   0.2142857   0.2857143   0.0000000), wk =   0.0087464
        k(   82) = (   0.2142857   0.2857143   0.1428571), wk =   0.0174927
        k(   83) = (   0.2142857   0.2857143   0.2857143), wk =   0.0174927
        k(   84) = (   0.2142857   0.2857143   0.4285714), wk =   0.0174927
        k(   85) = (   0.2142857   0.3571429   0.0000000), wk =   0.0087464
        k(   86) = (   0.2142857   0.3571429   0.1428571), wk =   0.0174927
        k(   87) = (   0.2142857   0.3571429   0.2857143), wk =   0.0174927
        k(   88) = (   0.2142857   0.3571429   0.4285714), wk =   0.0174927
        k(   89) = (   0.2857143   0.2857143   0.0000000), wk =   0.0043732
        k(   90) = (   0.2857143   0.2857143   0.1428571), wk =   0.0087464
        k(   91) = (   0.2857143   0.2857143   0.2857143), wk =   0.0087464
        k(   92) = (   0.2857143   0.2857143   0.4285714), wk =   0.0087464
        k(   93) = (   0.2857143   0.3571429   0.0000000), wk =   0.0043732
        k(   94) = (   0.2857143   0.3571429   0.1428571), wk =   0.0087464
        k(   95) = (   0.2857143   0.3571429   0.2857143), wk =   0.0087464
        k(   96) = (   0.2857143   0.3571429   0.4285714), wk =   0.0087464

     Dense  grid:    16303 G-vectors     FFT dimensions: (  27,  27,  50)

     Dynamical RAM for                 wfc:       0.04 MB

     Dynamical RAM for     wfc (w. buffer):       3.43 MB

     Dynamical RAM for           str. fact:       0.02 MB

     Dynamical RAM for           local pot:       0.00 MB

     Dynamical RAM for          nlocal pot:       0.08 MB

     Dynamical RAM for                qrad:       1.34 MB

     Dynamical RAM for          rho,v,vnew:       0.24 MB

     Dynamical RAM for               rhoin:       0.08 MB

     Dynamical RAM for            rho*nmix:       0.57 MB

     Dynamical RAM for           G-vectors:       0.08 MB

     Dynamical RAM for          h,s,v(r/c):       0.05 MB

     Dynamical RAM for          <psi|beta>:       0.01 MB

     Dynamical RAM for                 psi:       0.07 MB

     Dynamical RAM for                hpsi:       0.07 MB

     Dynamical RAM for                spsi:       0.07 MB

     Dynamical RAM for      wfcinit/wfcrot:       0.08 MB

     Dynamical RAM for           addusdens:       1.70 MB

     Estimated static dynamical RAM per process >       5.44 MB

     Estimated max dynamical RAM per process >       7.71 MB

     Estimated total dynamical RAM >     207.97 MB

     Check: negative core charge=   -0.000003
     Generating pointlists ...
     new r_m :   0.4125 (alat units)  2.0831 (a.u.) for type    1

     The initial density is read from file :
     ./out/Zn.save/charge-density


     starting charge      24.1311, renormalised to      24.0000

     negative rho (up, down):  5.964E+00 5.964E+00
     Starting wfcs from file
     Checking if some PAW data can be deallocated... 

     total cpu time spent up to now is        0.5 secs

     Self-consistent Calculation

     iteration #  1     ecut=    70.00 Ry     beta= 0.70
     Davidson diagonalization with overlap

---- Real-time Memory Report at c_bands before calling an iterative solver
            59 MiB given to the printing process from OS
             0 MiB allocation reported by mallinfo(arena+hblkhd)
        149458 MiB available memory on the node where the printing process lives
------------------
     c_bands:  1 eigenvalues not converged
     c_bands:  1 eigenvalues not converged
     c_bands:  1 eigenvalues not converged
     c_bands:  1 eigenvalues not converged
     c_bands:  1 eigenvalues not converged
     c_bands:  1 eigenvalues not converged
     c_bands:  1 eigenvalues not converged
     c_bands:  1 eigenvalues not converged
     c_bands:  1 eigenvalues not converged
     c_bands:  1 eigenvalues not converged
     c_bands:  1 eigenvalues not converged
     c_bands:  1 eigenvalues not converged
     c_bands:  1 eigenvalues not converged
     c_bands:  1 eigenvalues not converged
     c_bands:  1 eigenvalues not converged
     c_bands:  1 eigenvalues not converged
     c_bands:  1 eigenvalues not converged
     c_bands:  1 eigenvalues not converged
     c_bands:  1 eigenvalues not converged
     c_bands:  1 eigenvalues not converged
     c_bands:  1 eigenvalues not converged
     c_bands:  1 eigenvalues not converged
     c_bands:  1 eigenvalues not converged
     c_bands:  2 eigenvalues not converged
     c_bands:  1 eigenvalues not converged
     c_bands:  1 eigenvalues not converged
     c_bands:  1 eigenvalues not converged
     c_bands:  1 eigenvalues not converged
     c_bands:  1 eigenvalues not converged
     c_bands:  1 eigenvalues not converged
     c_bands:  2 eigenvalues not converged
     c_bands:  1 eigenvalues not converged
     c_bands:  1 eigenvalues not converged
     c_bands:  1 eigenvalues not converged
     c_bands:  1 eigenvalues not converged
     c_bands:  1 eigenvalues not converged
     c_bands:  1 eigenvalues not converged
     c_bands:  1 eigenvalues not converged
     c_bands:  1 eigenvalues not converged
     c_bands:  1 eigenvalues not converged
     ethr =  1.00E-05,  avg # of iterations = 19.1

     negative rho (up, down):  1.177E+00 1.177E+00

     total cpu time spent up to now is        4.7 secs

     total energy              =    -483.55785079 Ry
     estimated scf accuracy    <      33.36729053 Ry

     total magnetization       =    -0.00 Bohr mag/cell
     absolute magnetization    =     0.00 Bohr mag/cell

     iteration #  2     ecut=    70.00 Ry     beta= 0.70
     Davidson diagonalization with overlap

---- Real-time Memory Report at c_bands before calling an iterative solver
            81 MiB given to the printing process from OS
             0 MiB allocation reported by mallinfo(arena+hblkhd)
        149162 MiB available memory on the node where the printing process lives
------------------
     ethr =  1.00E-02,  avg # of iterations =  3.6

     negative rho (up, down):  2.754E-01 2.754E-01

     total cpu time spent up to now is        5.8 secs

     total energy              =    -478.69085068 Ry
     estimated scf accuracy    <      20.26776247 Ry

     total magnetization       =    -0.00 Bohr mag/cell
     absolute magnetization    =     0.00 Bohr mag/cell

     iteration #  3     ecut=    70.00 Ry     beta= 0.70
     Davidson diagonalization with overlap

---- Real-time Memory Report at c_bands before calling an iterative solver
            82 MiB given to the printing process from OS
             0 MiB allocation reported by mallinfo(arena+hblkhd)
        149142 MiB available memory on the node where the printing process lives
------------------
     ethr =  1.00E-02,  avg # of iterations =  4.4
     Minimization algorithm failed to find Fermi energy: reverting to bisection
     Possible cause: smearing is larger than the electronic band-gap.

     total cpu time spent up to now is        7.0 secs

     total energy              =    -487.14544393 Ry
     estimated scf accuracy    <       5.79112410 Ry

     total magnetization       =    -0.00 Bohr mag/cell
     absolute magnetization    =     0.00 Bohr mag/cell

     iteration #  4     ecut=    70.00 Ry     beta= 0.70
     Davidson diagonalization with overlap

---- Real-time Memory Report at c_bands before calling an iterative solver
            82 MiB given to the printing process from OS
             0 MiB allocation reported by mallinfo(arena+hblkhd)
        149133 MiB available memory on the node where the printing process lives
------------------
     ethr =  1.00E-02,  avg # of iterations =  2.0

     total cpu time spent up to now is        7.9 secs

     total energy              =    -487.15323973 Ry
     estimated scf accuracy    <       0.67071163 Ry

     total magnetization       =    -0.00 Bohr mag/cell
     absolute magnetization    =     0.00 Bohr mag/cell

     iteration #  5     ecut=    70.00 Ry     beta= 0.70
     Davidson diagonalization with overlap

---- Real-time Memory Report at c_bands before calling an iterative solver
            83 MiB given to the printing process from OS
             0 MiB allocation reported by mallinfo(arena+hblkhd)
        149127 MiB available memory on the node where the printing process lives
------------------
     ethr =  2.79E-03,  avg # of iterations =  2.0

     total cpu time spent up to now is        8.8 secs

     total energy              =    -487.37775437 Ry
     estimated scf accuracy    <       0.42652055 Ry

     total magnetization       =    -0.00 Bohr mag/cell
     absolute magnetization    =     0.00 Bohr mag/cell

     iteration #  6     ecut=    70.00 Ry     beta= 0.70
     Davidson diagonalization with overlap

---- Real-time Memory Report at c_bands before calling an iterative solver
            83 MiB given to the printing process from OS
             0 MiB allocation reported by mallinfo(arena+hblkhd)
        149120 MiB available memory on the node where the printing process lives
------------------
     ethr =  1.78E-03,  avg # of iterations =  1.9

     total cpu time spent up to now is        9.5 secs

     total energy              =    -487.44116349 Ry
     estimated scf accuracy    <       0.00554038 Ry

     total magnetization       =    -0.00 Bohr mag/cell
     absolute magnetization    =     0.00 Bohr mag/cell

     iteration #  7     ecut=    70.00 Ry     beta= 0.70
     Davidson diagonalization with overlap

---- Real-time Memory Report at c_bands before calling an iterative solver
            83 MiB given to the printing process from OS
             0 MiB allocation reported by mallinfo(arena+hblkhd)
        149114 MiB available memory on the node where the printing process lives
------------------
     ethr =  2.31E-05,  avg # of iterations =  6.9

     total cpu time spent up to now is       10.8 secs

     total energy              =    -487.44688920 Ry
     estimated scf accuracy    <       0.00156281 Ry

     total magnetization       =    -0.00 Bohr mag/cell
     absolute magnetization    =     0.00 Bohr mag/cell

     iteration #  8     ecut=    70.00 Ry     beta= 0.70
     Davidson diagonalization with overlap

---- Real-time Memory Report at c_bands before calling an iterative solver
            84 MiB given to the printing process from OS
             0 MiB allocation reported by mallinfo(arena+hblkhd)
        149111 MiB available memory on the node where the printing process lives
------------------
     ethr =  6.51E-06,  avg # of iterations =  1.7

     total cpu time spent up to now is       11.5 secs

     total energy              =    -487.44674822 Ry
     estimated scf accuracy    <       0.00039517 Ry

     total magnetization       =    -0.00 Bohr mag/cell
     absolute magnetization    =     0.00 Bohr mag/cell

     iteration #  9     ecut=    70.00 Ry     beta= 0.70
     Davidson diagonalization with overlap

---- Real-time Memory Report at c_bands before calling an iterative solver
            84 MiB given to the printing process from OS
             0 MiB allocation reported by mallinfo(arena+hblkhd)
        149107 MiB available memory on the node where the printing process lives
------------------
     ethr =  1.65E-06,  avg # of iterations =  2.2

     total cpu time spent up to now is       12.4 secs

     total energy              =    -487.44685619 Ry
     estimated scf accuracy    <       0.00000843 Ry

     total magnetization       =    -0.00 Bohr mag/cell
     absolute magnetization    =     0.00 Bohr mag/cell

     iteration # 10     ecut=    70.00 Ry     beta= 0.70
     Davidson diagonalization with overlap

---- Real-time Memory Report at c_bands before calling an iterative solver
            84 MiB given to the printing process from OS
             0 MiB allocation reported by mallinfo(arena+hblkhd)
        149105 MiB available memory on the node where the printing process lives
------------------
     ethr =  3.51E-08,  avg # of iterations =  3.0
 
     Magnetic moment per site  (integrated on atomic sphere of radius R)
     atom   1 (R=0.413)  charge= 10.7090  magn= -0.0000
     atom   2 (R=0.413)  charge= 10.7090  magn= -0.0000

     total cpu time spent up to now is       13.3 secs

     End of self-consistent calculation

 ------ SPIN UP ------------


          k = 0.0000 0.0000 0.0000 (  2041 PWs)   bands (ev):

     0.6853   2.5623   3.2754   3.4968   3.4968   3.5495   3.5495   3.8657
     3.8657   4.0848   4.0848   7.4960   8.1773  24.9689  28.2777  28.4254

     occupation numbers 
     1.0000   1.0000   1.0000   1.0000   1.0000   1.0000   1.0000   1.0000
     1.0000   1.0000   1.0000   1.0000   1.0000   0.0000   0.0000   0.0000

          k = 0.0000 0.0000 0.0776 (  2041 PWs)   bands (ev):

     0.8108   2.5487   3.2768   3.4948   3.4948   3.5434   3.5434   3.8812
     3.8812   4.0774   4.0774   6.0939   9.8534  22.9890  28.4023  28.4024

     occupation numbers 
     1.0000   1.0000   1.0000   1.0000   1.0000   1.0000   1.0000   1.0000
     1.0000   1.0000   1.0000   1.0000   1.0000   0.0000   0.0000   0.0000

          k = 0.0000 0.0000 0.1553 (  2029 PWs)   bands (ev):

     1.1742   2.4779   3.2959   3.4928   3.4928   3.5282   3.5282   3.9209
     3.9209   4.0551   4.0551   4.7224  12.0732  20.0646  28.7626  30.1435

     occupation numbers 
     1.0000   1.0000   1.0000   1.0000   1.0000   1.0000   1.0000   1.0000
     1.0000   1.0000   1.0000   1.0000   0.0000   0.0000   0.0000   0.0000

          k = 0.0000 0.0000 0.2329 (  2064 PWs)   bands (ev):

     1.7141   2.2292   3.3987   3.4974   3.4974   3.5105   3.5105   3.7924
     3.9709   3.9709   4.0183   4.0183  14.5344  17.2098  29.2993  29.2993

     occupation numbers 
     1.0000   1.0000   1.0000   1.0000   1.0000   1.0000   1.0000   1.0000
     1.0000   1.0000   1.0000   1.0000   0.0000   0.0000   0.0000   0.0000

          k = 0.0000 0.0825 0.0000 (  2039 PWs)   bands (ev):

     0.8355   2.6271   3.2895   3.4831   3.5320   3.5337   3.5828   3.8336
     3.8515   4.0007   4.0868   7.7365   8.2560  25.1287  25.8303  27.0145

     occupation numbers 
     1.0000   1.0000   1.0000   1.0000   1.0000   1.0000   1.0000   1.0000
     1.0000   1.0000   1.0000   1.0000   1.0000   0.0000   0.0000   0.0000

          k = 0.0000 0.0825 0.0776 (  2027 PWs)   bands (ev):

     0.9601   2.6175   3.2901   3.4786   3.5262   3.5295   3.5766   3.8535
     3.8683   3.9854   4.0787   6.2771   9.9941  23.1251  25.9764  27.1467

     occupation numbers 
     1.0000   1.0000   1.0000   1.0000   1.0000   1.0000   1.0000   1.0000
     1.0000   1.0000   1.0000   1.0000   1.0000   0.0000   0.0000   0.0000

          k = 0.0000 0.0825 0.1553 (  2038 PWs)   bands (ev):

     1.3204   2.5613   3.3031   3.4730   3.5072   3.5266   3.5611   3.8919
     3.9110   3.9359   4.0544   4.9330  12.2158  20.2012  26.3540  27.5393

     occupation numbers 
     1.0000   1.0000   1.0000   1.0000   1.0000   1.0000   1.0000   1.0000
     1.0000   1.0000   1.0000   1.0000   0.0000   0.0000   0.0000   0.0000

          k = 0.0000 0.0825 0.2329 (  2046 PWs)   bands (ev):

     1.8514   2.3420   3.3806   3.4793   3.4846   3.5306   3.5434   3.6759
     3.9643   3.9961   4.0149   4.1797  14.6756  17.3488  26.9728  27.8230

     occupation numbers 
     1.0000   1.0000   1.0000   1.0000   1.0000   1.0000   1.0000   1.0000
     1.0000   1.0000   1.0000   1.0000   0.0000   0.0000   0.0000   0.0000

          k = 0.0000 0.1650 0.0000 (  2029 PWs)   bands (ev):

     1.2761   2.7911   3.3123   3.4553   3.5217   3.6321   3.6775   3.7010
     3.8142   3.8539   4.0901   8.3922   8.5097  22.4857  25.3655  25.5554

     occupation numbers 
     1.0000   1.0000   1.0000   1.0000   1.0000   1.0000   1.0000   1.0000
     1.0000   1.0000   1.0000   1.0000   1.0000   0.0000   0.0000   0.0000

          k = 0.0000 0.1650 0.0776 (  2034 PWs)   bands (ev):

     1.3968   2.7916   3.3143   3.4426   3.5017   3.6271   3.6704   3.7153
     3.8359   3.8580   4.0803   6.7561  10.4224  22.5780  23.5810  25.5058

     occupation numbers 
     1.0000   1.0000   1.0000   1.0000   1.0000   1.0000   1.0000   1.0000
     1.0000   1.0000   1.0000   1.0000   1.0000   0.0000   0.0000   0.0000

          k = 0.0000 0.1650 0.1553 (  2032 PWs)   bands (ev):

     1.7424   2.7726   3.3183   3.4221   3.4633   3.6206   3.6539   3.6813
     3.8871   3.9171   4.0514   5.3931  12.6430  20.5894  23.0396  25.6386

     occupation numbers 
     1.0000   1.0000   1.0000   1.0000   1.0000   1.0000   1.0000   1.0000
     1.0000   1.0000   1.0000   1.0000   0.0000   0.0000   0.0000   0.0000

          k = 0.0000 0.1650 0.2329 (  2043 PWs)   bands (ev):

     2.2343   2.6366   3.3353   3.3934   3.4559   3.5523   3.6230   3.6357
     3.9480   4.0056   4.0804   4.4861  15.0954  17.7581  23.6616  24.5354

     occupation numbers 
     1.0000   1.0000   1.0000   1.0000   1.0000   1.0000   1.0000   1.0000
     1.0000   1.0000   1.0000   1.0000   0.0000   0.0000   0.0000   0.0000

          k = 0.0000 0.2474 0.0000 (  2030 PWs)   bands (ev):

     1.9536   2.9418   3.3450   3.4253   3.4782   3.6312   3.7482   3.7646
     3.7806   3.8172   4.0908   8.9866   9.3578  19.2704  23.9066  24.9081

     occupation numbers 
     1.0000   1.0000   1.0000   1.0000   1.0000   1.0000   1.0000   1.0000
     1.0000   1.0000   1.0000   1.0000   1.0000   0.0000   0.0000   0.0000

          k = 0.0000 0.2474 0.0776 (  2025 PWs)   bands (ev):

     2.0581   2.9510   3.3434   3.4000   3.4712   3.6242   3.7464   3.7958
     3.8005   3.8260   4.0794   7.4600  11.1462  19.3936  23.7842  24.0830

     occupation numbers 
     1.0000   1.0000   1.0000   1.0000   1.0000   1.0000   1.0000   1.0000
     1.0000   1.0000   1.0000   1.0000   0.0000   0.0000   0.0000   0.0000

          k = 0.0000 0.2474 0.1553 (  2031 PWs)   bands (ev):

     2.3427   2.9657   3.3204   3.3438   3.4727   3.6018   3.7392   3.7878
     3.8769   3.9473   4.0467   6.0498  13.3490  19.7233  21.3464  22.4745

     occupation numbers 
     1.0000   1.0000   1.0000   1.0000   1.0000   1.0000   1.0000   1.0000
     1.0000   1.0000   1.0000   1.0000   0.0000   0.0000   0.0000   0.0000

          k = 0.0000 0.2474 0.2329 (  2035 PWs)   bands (ev):

     2.6943   2.9203   3.2779   3.2912   3.5088   3.5604   3.7475   3.7663
     3.9379   3.9973   4.2866   4.9716  15.7778  18.3823  20.5204  21.3657

     occupation numbers 
     1.0000   1.0000   1.0000   1.0000   1.0000   1.0000   1.0000   1.0000
     1.0000   1.0000   1.0000   1.0000   0.0000   0.0000   0.0000   0.0000

          k = 0.0000 0.3299 0.0000 (  2026 PWs)   bands (ev):

     2.6083   2.9460   3.2720   3.4352   3.5530   3.6518   3.7131   3.9508
     3.9772   3.9983   4.0880   9.7447  10.5679  16.2778  21.9769  22.8658

     occupation numbers 
     1.0000   1.0000   1.0000   1.0000   1.0000   1.0000   1.0000   1.0000
     1.0000   1.0000   1.0000   1.0000   1.0000   0.0000   0.0000   0.0000

          k = 0.0000 0.3299 0.0776 (  2022 PWs)   bands (ev):

     2.6488   2.9555   3.2675   3.3945   3.5156   3.7267   3.7924   3.9533
     3.9693   4.0218   4.0785   8.3997  12.1556  16.4041  20.8448  22.8598

     occupation numbers 
     1.0000   1.0000   1.0000   1.0000   1.0000   1.0000   1.0000   1.0000
     1.0000   1.0000   1.0000   1.0000   0.0000   0.0000   0.0000   0.0000

          k = 0.0000 0.3299 0.1553 (  2023 PWs)   bands (ev):

     2.7472   2.9719   3.2444   3.2799   3.6020   3.7647   3.8571   3.9301
     3.9752   4.0546   4.2869   6.9676  14.3083  16.7758  19.5420  22.0844

     occupation numbers 
     1.0000   1.0000   1.0000   1.0000   1.0000   1.0000   1.0000   1.0000
     1.0000   1.0000   1.0000   1.0000   0.0000   0.0000   0.0000   0.0000

          k = 0.0000 0.3299 0.2329 (  2015 PWs)   bands (ev):

     2.8613   2.9505   3.2061   3.2182   3.7109   3.8024   3.8196   3.8795
     3.9975   4.0254   4.8909   5.7897  16.6081  17.3337  18.5259  19.5060

     occupation numbers 
     1.0000   1.0000   1.0000   1.0000   1.0000   1.0000   1.0000   1.0000
     1.0000   1.0000   1.0000   1.0000   0.0000   0.0000   0.0000   0.0000

          k = 0.0000 0.4124 0.0000 (  2032 PWs)   bands (ev):

     2.8016   2.8910   3.1189   3.5408   3.5686   3.6690   3.7771   4.0833
     4.1080   4.1275   5.0329  10.7759  11.9839  13.5959  19.2418  20.3526

     occupation numbers 
     1.0000   1.0000   1.0000   1.0000   1.0000   1.0000   1.0000   1.0000
     1.0000   1.0000   1.0000   1.0000   0.0000   0.0000   0.0000   0.0000

          k = 0.0000 0.4124 0.0776 (  2031 PWs)   bands (ev):

     2.7971   2.8855   3.1402   3.4105   3.6178   3.6872   3.8922   4.0534
     4.1104   4.1348   5.1237   9.5897  13.3272  13.7733  18.1773  21.5458

     occupation numbers 
     1.0000   1.0000   1.0000   1.0000   1.0000   1.0000   1.0000   1.0000
     1.0000   1.0000   1.0000   1.0000   0.0000   0.0000   0.0000   0.0000

          k = 0.0000 0.4124 0.1553 (  2029 PWs)   bands (ev):

     2.7983   2.8890   3.1527   3.2470   3.7388   3.7395   3.9876   3.9968
     4.1168   4.1382   5.4504   8.1821  14.0485  15.3087  17.0933  22.3674

     occupation numbers 
     1.0000   1.0000   1.0000   1.0000   1.0000   1.0000   1.0000   1.0000
     1.0000   1.0000   1.0000   1.0000   0.0000   0.0000   0.0000   0.0000

          k = 0.0000 0.4124 0.2329 (  2023 PWs)   bands (ev):

     2.8304   2.8760   3.1400   3.1533   3.8152   3.8824   3.9033   3.9848
     4.1255   4.1338   6.0775   6.9976  14.6630  15.4376  18.1853  20.5306

     occupation numbers 
     1.0000   1.0000   1.0000   1.0000   1.0000   1.0000   1.0000   1.0000
     1.0000   1.0000   1.0000   1.0000   0.0000   0.0000   0.0000   0.0000

          k = 0.0000 0.4949 0.0000 (  2042 PWs)   bands (ev):

     2.7781   2.8583   3.0270   3.5118   3.6191   3.6395   3.9105   4.0793
     4.2173   4.2370   6.6089  10.6695  12.6507  13.5379  16.8055  18.1273

     occupation numbers 
     1.0000   1.0000   1.0000   1.0000   1.0000   1.0000   1.0000   1.0000
     1.0000   1.0000   1.0000   1.0000   0.0000   0.0000   0.0000   0.0000

          k = 0.0000 0.4949 0.0776 (  2035 PWs)   bands (ev):

     2.7824   2.8237   3.0639   3.3958   3.6596   3.6755   3.9935   4.0548
     4.2189   4.2372   6.7133  10.4386  11.8705  14.5175  16.1936  19.3069

     occupation numbers 
     1.0000   1.0000   1.0000   1.0000   1.0000   1.0000   1.0000   1.0000
     1.0000   1.0000   1.0000   1.0000   0.0000   0.0000   0.0000   0.0000

          k = 0.0000 0.4949 0.1553 (  2031 PWs)   bands (ev):

     2.7709   2.8162   3.0922   3.2223   3.7169   3.8107   3.9891   4.0862
     4.2229   4.2361   7.0451   9.5192  11.7993  14.0599  17.4086  20.9996

     occupation numbers 
     1.0000   1.0000   1.0000   1.0000   1.0000   1.0000   1.0000   1.0000
     1.0000   1.0000   1.0000   1.0000   0.0000   0.0000   0.0000   0.0000

          k = 0.0000 0.4949 0.2329 (  2021 PWs)   bands (ev):

     2.7819   2.8124   3.0899   3.1127   3.8014   3.8983   3.9699   4.0787
     4.2279   4.2328   7.6336   8.4785  12.2954  13.0839  19.5224  21.4050

     occupation numbers 
     1.0000   1.0000   1.0000   1.0000   1.0000   1.0000   1.0000   1.0000
     1.0000   1.0000   1.0000   1.0000   0.0000   0.0000   0.0000   0.0000

          k = 0.0000-0.5774 0.0000 (  2042 PWs)   bands (ev):

     2.7592   2.8453   2.9966   3.4916   3.6291   3.6471   3.9536   4.0776
     4.2562   4.2774   8.2255   8.8946  13.7671  14.6303  15.2189  16.8102

     occupation numbers 
     1.0000   1.0000   1.0000   1.0000   1.0000   1.0000   1.0000   1.0000
     1.0000   1.0000   1.0000   1.0000   0.0000   0.0000   0.0000   0.0000

          k = 0.0000-0.5774 0.0776 (  2034 PWs)   bands (ev):

     2.7686   2.8003   3.0385   3.3861   3.6499   3.6966   4.0303   4.0536
     4.2577   4.2765   8.3342   8.9536  13.1075  13.3308  16.7900  17.6890

     occupation numbers 
     1.0000   1.0000   1.0000   1.0000   1.0000   1.0000   1.0000   1.0000
     1.0000   1.0000   1.0000   1.0000   0.0000   0.0000   0.0000   0.0000

          k = 0.0000-0.5774 0.1553 (  2038 PWs)   bands (ev):

     2.7577   2.7878   3.0711   3.2126   3.7088   3.8325   3.9876   4.1181
     4.2613   4.2740   8.6455   9.1141  12.0416  12.1056  18.8153  19.4033

     occupation numbers 
     1.0000   1.0000   1.0000   1.0000   1.0000   1.0000   1.0000   1.0000
     1.0000   1.0000   1.0000   1.0000   0.0000   0.0000   0.0000   0.0000

          k = 0.0000-0.5774 0.2329 (  2032 PWs)   bands (ev):

     2.7624   2.7888   3.0720   3.0985   3.7958   3.8952   3.9962   4.1086
     4.2657   4.2702   9.0601   9.2540  11.2869  11.3216  20.7807  21.0748

     occupation numbers 
     1.0000   1.0000   1.0000   1.0000   1.0000   1.0000   1.0000   1.0000
     1.0000   1.0000   1.0000   1.0000   0.0000   0.0000   0.0000   0.0000

          k = 0.0714 0.1237 0.0000 (  2021 PWs)   bands (ev):

     1.1315   2.7435   3.3072   3.4658   3.5024   3.6043   3.6544   3.7745
     3.7864   3.9069   4.0861   8.1824   8.4225  24.1252  24.3112  25.4287

     occupation numbers 
     1.0000   1.0000   1.0000   1.0000   1.0000   1.0000   1.0000   1.0000
     1.0000   1.0000   1.0000   1.0000   1.0000   0.0000   0.0000   0.0000

          k = 0.0714 0.1237 0.0776 (  2033 PWs)   bands (ev):

     1.2538   2.7411   3.3087   3.4529   3.4915   3.5999   3.6473   3.7779
     3.8181   3.9016   4.0773   6.6047  10.2789  23.3582  24.2558  24.5146

     occupation numbers 
     1.0000   1.0000   1.0000   1.0000   1.0000   1.0000   1.0000   1.0000
     1.0000   1.0000   1.0000   1.0000   1.0000   0.0000   0.0000   0.0000

          k = 0.0714 0.1237 0.1553 (  2041 PWs)   bands (ev):

     1.6055   2.7110   3.3149   3.4356   3.4631   3.5938   3.6312   3.7354
     3.9009   3.9124   4.0517   5.2527  12.5009  20.4668  24.6453  24.8672

     occupation numbers 
     1.0000   1.0000   1.0000   1.0000   1.0000   1.0000   1.0000   1.0000
     1.0000   1.0000   1.0000   1.0000   0.0000   0.0000   0.0000   0.0000

          k = 0.0714 0.1237 0.2329 (  2040 PWs)   bands (ev):

     2.1135   2.5485   3.3492   3.4208   3.4496   3.5608   3.6107   3.6140
     3.9564   4.0010   4.0546   4.3927  14.9563  17.6235  25.2868  25.4877

     occupation numbers 
     1.0000   1.0000   1.0000   1.0000   1.0000   1.0000   1.0000   1.0000
     1.0000   1.0000   1.0000   1.0000   0.0000   0.0000   0.0000   0.0000

          k = 0.0714 0.2062 0.0000 (  2028 PWs)   bands (ev):

     1.6980   2.9191   3.3065   3.4383   3.5152   3.5738   3.7185   3.7387
     3.7978   3.8407   4.0825   8.7900   8.9860  20.9379  22.7883  25.8095

     occupation numbers 
     1.0000   1.0000   1.0000   1.0000   1.0000   1.0000   1.0000   1.0000
     1.0000   1.0000   1.0000   1.0000   1.0000   0.0000   0.0000   0.0000

          k = 0.0714 0.2062 0.0776 (  2025 PWs)   bands (ev):

     1.8118   2.9270   3.3138   3.4152   3.4725   3.5879   3.7236   3.7659
     3.7920   3.8605   4.0738   7.1874  10.8570  21.0576  22.8907  23.9692

     occupation numbers 
     1.0000   1.0000   1.0000   1.0000   1.0000   1.0000   1.0000   1.0000
     1.0000   1.0000   1.0000   1.0000   1.0000   0.0000   0.0000   0.0000

          k = 0.0714 0.2062 0.1553 (  2032 PWs)   bands (ev):

     2.1316   2.9357   3.3274   3.3651   3.4113   3.5644   3.7103   3.7694
     3.8870   3.9179   4.0519   5.7947  13.0689  20.8634  21.6021  23.3542

     occupation numbers 
     1.0000   1.0000   1.0000   1.0000   1.0000   1.0000   1.0000   1.0000
     1.0000   1.0000   1.0000   1.0000   0.0000   0.0000   0.0000   0.0000

          k = 0.0714 0.2062 0.2329 (  2040 PWs)   bands (ev):

     2.5607   2.8660   3.3026   3.3163   3.4157   3.4881   3.7217   3.7448
     3.9471   3.9927   4.1989   4.7763  15.5100  18.1539  22.1357  23.0110

     occupation numbers 
     1.0000   1.0000   1.0000   1.0000   1.0000   1.0000   1.0000   1.0000
     1.0000   1.0000   1.0000   1.0000   0.0000   0.0000   0.0000   0.0000

          k = 0.0714 0.2887 0.0000 (  2023 PWs)   bands (ev):

     2.4149   3.0047   3.3613   3.3696   3.4220   3.6461   3.6625   3.7718
     3.9054   4.0326   4.0774   9.4157  10.0663  17.8365  21.5793  23.5216

     occupation numbers 
     1.0000   1.0000   1.0000   1.0000   1.0000   1.0000   1.0000   1.0000
     1.0000   1.0000   1.0000   1.0000   1.0000   0.0000   0.0000   0.0000

          k = 0.0714 0.2887 0.0776 (  2023 PWs)   bands (ev):

     2.4915   3.0172   3.3306   3.3778   3.4051   3.6388   3.7369   3.7724
     3.9219   4.0079   4.0938   8.0048  11.7288  17.9625  21.7077  22.3805

     occupation numbers 
     1.0000   1.0000   1.0000   1.0000   1.0000   1.0000   1.0000   1.0000
     1.0000   1.0000   1.0000   1.0000   0.0000   0.0000   0.0000   0.0000

          k = 0.0714 0.2887 0.1553 (  2024 PWs)   bands (ev):

     2.6825   3.0439   3.2718   3.3162   3.4581   3.6128   3.7682   3.9061
     3.9292   4.0010   4.1784   6.5800  13.9086  18.3279  21.0677  21.6737

     occupation numbers 
     1.0000   1.0000   1.0000   1.0000   1.0000   1.0000   1.0000   1.0000
     1.0000   1.0000   1.0000   1.0000   0.0000   0.0000   0.0000   0.0000

          k = 0.0714 0.2887 0.2329 (  2025 PWs)   bands (ev):

     2.8887   3.0241   3.2300   3.2642   3.5169   3.5705   3.8043   3.8630
     3.9865   4.0142   4.6166   5.4369  16.3031  18.5651  19.4355  19.9712

     occupation numbers 
     1.0000   1.0000   1.0000   1.0000   1.0000   1.0000   1.0000   1.0000
     1.0000   1.0000   1.0000   1.0000   0.0000   0.0000   0.0000   0.0000

          k = 0.0714 0.3712 0.0000 (  2036 PWs)   bands (ev):

     2.8316   2.9582   3.1896   3.4930   3.5789   3.6088   3.7027   3.9151
     4.0646   4.0709   4.6266  10.3418  11.3757  14.9815  20.6296  20.6813

     occupation numbers 
     1.0000   1.0000   1.0000   1.0000   1.0000   1.0000   1.0000   1.0000
     1.0000   1.0000   1.0000   1.0000   0.0000   0.0000   0.0000   0.0000

          k = 0.0714 0.3712 0.0776 (  2030 PWs)   bands (ev):

     2.8333   2.9646   3.2060   3.3919   3.5462   3.7073   3.7976   3.9110
     4.0426   4.0774   4.6940   9.0815  12.8670  15.1085  19.5676  20.7678

     occupation numbers 
     1.0000   1.0000   1.0000   1.0000   1.0000   1.0000   1.0000   1.0000
     1.0000   1.0000   1.0000   1.0000   0.0000   0.0000   0.0000   0.0000

          k = 0.0714 0.3712 0.1553 (  2031 PWs)   bands (ev):

     2.8531   2.9793   3.2083   3.2569   3.6229   3.7484   3.8661   3.9696
     3.9955   4.0972   4.9710   7.6595  14.9517  15.4883  18.3008  21.1509

     occupation numbers 
     1.0000   1.0000   1.0000   1.0000   1.0000   1.0000   1.0000   1.0000
     1.0000   1.0000   1.0000   1.0000   0.0000   0.0000   0.0000   0.0000

          k = 0.0714 0.3712 0.2329 (  2019 PWs)   bands (ev):

     2.9036   2.9638   3.1776   3.1960   3.7295   3.7953   3.8298   3.8859
     4.0743   4.1041   5.5674   6.4760  16.0796  16.6223  17.8925  20.0634

     occupation numbers 
     1.0000   1.0000   1.0000   1.0000   1.0000   1.0000   1.0000   1.0000
     1.0000   1.0000   1.0000   1.0000   0.0000   0.0000   0.0000   0.0000

          k = 0.0714 0.4536 0.0000 (  2038 PWs)   bands (ev):

     2.8428   2.9191   3.0737   3.5268   3.5888   3.6472   3.8067   4.0647
     4.1082   4.1810   5.9270  11.3196  12.6737  12.8727  18.0797  19.2865

     occupation numbers 
     1.0000   1.0000   1.0000   1.0000   1.0000   1.0000   1.0000   1.0000
     1.0000   1.0000   1.0000   0.0000   0.0000   0.0000   0.0000   0.0000

          k = 0.0714 0.4536 0.0776 (  2027 PWs)   bands (ev):

     2.8425   2.8916   3.1130   3.3986   3.6191   3.6869   3.9082   4.0382
     4.1065   4.1849   6.0290  10.3477  12.5817  14.2114  17.1041  20.1147

     occupation numbers 
     1.0000   1.0000   1.0000   1.0000   1.0000   1.0000   1.0000   1.0000
     1.0000   1.0000   1.0000   1.0000   0.0000   0.0000   0.0000   0.0000

          k = 0.0714 0.4536 0.1553 (  2027 PWs)   bands (ev):

     2.8299   2.8915   3.1412   3.2338   3.6752   3.7952   3.9695   4.0155
     4.1084   4.1913   6.3621   9.0080  12.9242  15.1527  16.9214  20.5239

     occupation numbers 
     1.0000   1.0000   1.0000   1.0000   1.0000   1.0000   1.0000   1.0000
     1.0000   1.0000   1.0000   1.0000   0.0000   0.0000   0.0000   0.0000

          k = 0.0714 0.4536 0.2329 (  2025 PWs)   bands (ev):

     2.8472   2.8853   3.1301   3.1399   3.7688   3.8727   3.9164   4.0016
     4.1494   4.1831   6.9692   7.8592  13.5234  14.3399  18.9080  20.9427

     occupation numbers 
     1.0000   1.0000   1.0000   1.0000   1.0000   1.0000   1.0000   1.0000
     1.0000   1.0000   1.0000   1.0000   0.0000   0.0000   0.0000   0.0000

          k = 0.0714 0.5361 0.0000 (  2031 PWs)   bands (ev):

     2.8051   2.8958   3.0161   3.4983   3.6166   3.6424   3.9058   4.0609
     4.2083   4.2345   7.6526   9.7842  13.4256  14.3869  15.8714  17.3222

     occupation numbers 
     1.0000   1.0000   1.0000   1.0000   1.0000   1.0000   1.0000   1.0000
     1.0000   1.0000   1.0000   1.0000   0.0000   0.0000   0.0000   0.0000

          k = 0.0714 0.5361 0.0776 (  2034 PWs)   bands (ev):

     2.8141   2.8467   3.0663   3.3911   3.6125   3.7121   3.9881   4.0354
     4.2055   4.2339   7.7582   9.8235  12.4653  14.2150  16.4341  18.4019

     occupation numbers 
     1.0000   1.0000   1.0000   1.0000   1.0000   1.0000   1.0000   1.0000
     1.0000   1.0000   1.0000   1.0000   0.0000   0.0000   0.0000   0.0000

          k = 0.0714 0.5361 0.1553 (  2035 PWs)   bands (ev):

     2.8011   2.8382   3.1023   3.2216   3.6627   3.8459   3.9650   4.0925
     4.1955   4.2299   8.0802   9.7928  11.5307  13.1263  18.2807  20.1500

     occupation numbers 
     1.0000   1.0000   1.0000   1.0000   1.0000   1.0000   1.0000   1.0000
     1.0000   1.0000   1.0000   1.0000   0.0000   0.0000   0.0000   0.0000

          k = 0.0714 0.5361 0.2329 (  2022 PWs)   bands (ev):

     2.8089   2.8391   3.0981   3.1147   3.7567   3.8653   3.9956   4.0995
     4.1973   4.2173   8.6166   9.2983  11.4974  12.1444  20.3169  20.8545

     occupation numbers 
     1.0000   1.0000   1.0000   1.0000   1.0000   1.0000   1.0000   1.0000
     1.0000   1.0000   1.0000   1.0000   0.0000   0.0000   0.0000   0.0000

          k = 0.1429 0.2474 0.0000 (  2025 PWs)   bands (ev):

     2.3372   3.0772   3.2536   3.4077   3.4273   3.5392   3.6227   3.8103
     3.9000   4.0505   4.0641   9.3120   9.8958  19.4963  19.7841  25.2375

     occupation numbers 
     1.0000   1.0000   1.0000   1.0000   1.0000   1.0000   1.0000   1.0000
     1.0000   1.0000   1.0000   1.0000   1.0000   0.0000   0.0000   0.0000

          k = 0.1429 0.2474 0.0776 (  2022 PWs)   bands (ev):

     2.4274   3.0927   3.2631   3.3565   3.4582   3.4703   3.7259   3.7853
     3.9284   4.0010   4.1042   7.8760  11.5872  19.6292  19.9020  24.0176

     occupation numbers 
     1.0000   1.0000   1.0000   1.0000   1.0000   1.0000   1.0000   1.0000
     1.0000   1.0000   1.0000   1.0000   0.0000   0.0000   0.0000   0.0000

          k = 0.1429 0.2474 0.1553 (  2040 PWs)   bands (ev):

     2.6630   3.1346   3.2777   3.2927   3.3833   3.4595   3.7670   3.8978
     3.9427   3.9714   4.1887   6.4574  13.7746  20.0253  20.1830  21.8116

     occupation numbers 
     1.0000   1.0000   1.0000   1.0000   1.0000   1.0000   1.0000   1.0000
     1.0000   1.0000   1.0000   1.0000   0.0000   0.0000   0.0000   0.0000

          k = 0.1429 0.2474 0.2329 (  2028 PWs)   bands (ev):

     2.9360   3.1292   3.2262   3.2965   3.3461   3.4113   3.7956   3.8569
     4.0033   4.0067   4.5600   5.3352  16.1867  18.7552  20.6779  21.0937

     occupation numbers 
     1.0000   1.0000   1.0000   1.0000   1.0000   1.0000   1.0000   1.0000
     1.0000   1.0000   1.0000   1.0000   0.0000   0.0000   0.0000   0.0000

          k = 0.1429 0.3299 0.0000 (  2030 PWs)   bands (ev):

     2.9312   3.0961   3.2523   3.3257   3.4561   3.5522   3.6585   3.7489
     4.0453   4.0564   4.5638  10.1297  11.0668  16.6557  18.6059  22.3686

     occupation numbers 
     1.0000   1.0000   1.0000   1.0000   1.0000   1.0000   1.0000   1.0000
     1.0000   1.0000   1.0000   1.0000   0.7498   0.0000   0.0000   0.0000

          k = 0.1429 0.3299 0.0776 (  2035 PWs)   bands (ev):

     2.9466   3.1113   3.2397   3.3269   3.4195   3.5869   3.7298   3.7484
     4.0172   4.0711   4.6181   8.8345  12.6031  16.7843  18.7349  21.2240

     occupation numbers 
     1.0000   1.0000   1.0000   1.0000   1.0000   1.0000   1.0000   1.0000
     1.0000   1.0000   1.0000   1.0000   0.0000   0.0000   0.0000   0.0000

          k = 0.1429 0.3299 0.1553 (  2025 PWs)   bands (ev):

     2.9865   3.1541   3.1846   3.3354   3.4144   3.5671   3.7410   3.9333
     3.9469   4.0976   4.8415   7.4146  14.7389  17.1637  19.1094  19.9149

     occupation numbers 
     1.0000   1.0000   1.0000   1.0000   1.0000   1.0000   1.0000   1.0000
     1.0000   1.0000   1.0000   1.0000   0.0000   0.0000   0.0000   0.0000

          k = 0.1429 0.3299 0.2329 (  2020 PWs)   bands (ev):

     3.0428   3.1098   3.2236   3.2909   3.4652   3.5213   3.7816   3.8587
     4.0671   4.1074   5.3745   6.2474  17.0285  17.7436  18.8689  19.4404

     occupation numbers 
     1.0000   1.0000   1.0000   1.0000   1.0000   1.0000   1.0000   1.0000
     1.0000   1.0000   1.0000   1.0000   0.0000   0.0000   0.0000   0.0000

          k = 0.1429 0.4124 0.0000 (  2035 PWs)   bands (ev):

     3.0017   3.0603   3.1358   3.5092   3.5424   3.6008   3.6729   3.8540
     4.0300   4.1610   5.6096  11.2396  12.4605  13.9706  17.8278  19.6474

     occupation numbers 
     1.0000   1.0000   1.0000   1.0000   1.0000   1.0000   1.0000   1.0000
     1.0000   1.0000   1.0000   0.0000   0.0000   0.0000   0.0000   0.0000

          k = 0.1429 0.4124 0.0776 (  2030 PWs)   bands (ev):

     2.9944   3.0325   3.1932   3.3679   3.5382   3.6854   3.7700   3.8487
     4.0024   4.1694   5.7059  10.0667  13.7997  14.1449  17.9604  18.5642

     occupation numbers 
     1.0000   1.0000   1.0000   1.0000   1.0000   1.0000   1.0000   1.0000
     1.0000   1.0000   1.0000   1.0000   0.0000   0.0000   0.0000   0.0000

          k = 0.1429 0.4124 0.1553 (  2027 PWs)   bands (ev):

     2.9687   3.0527   3.2061   3.2605   3.5654   3.7217   3.8167   3.9267
     3.9727   4.1822   6.0252   8.6744  14.4481  15.7708  17.4417  18.3513

     occupation numbers 
     1.0000   1.0000   1.0000   1.0000   1.0000   1.0000   1.0000   1.0000
     1.0000   1.0000   1.0000   1.0000   0.0000   0.0000   0.0000   0.0000

          k = 0.1429 0.4124 0.2329 (  2024 PWs)   bands (ev):

     2.9849   3.0368   3.1790   3.2226   3.6525   3.7365   3.7929   3.8419
     4.1059   4.1707   6.6215   7.5113  15.0704  15.8686  18.4753  18.9582

     occupation numbers 
     1.0000   1.0000   1.0000   1.0000   1.0000   1.0000   1.0000   1.0000
     1.0000   1.0000   1.0000   1.0000   0.0000   0.0000   0.0000   0.0000

          k = 0.1429 0.4949 0.0000 (  2030 PWs)   bands (ev):

     2.9366   3.0342   3.0659   3.4964   3.6032   3.6270   3.7543   4.0197
     4.0351   4.1927   7.1531  11.1846  13.0346  14.0126  17.2050  17.3510

     occupation numbers 
     1.0000   1.0000   1.0000   1.0000   1.0000   1.0000   1.0000   1.0000
     1.0000   1.0000   1.0000   0.0000   0.0000   0.0000   0.0000   0.0000

          k = 0.1429 0.4949 0.0776 (  2030 PWs)   bands (ev):

     2.9446   2.9665   3.1482   3.3878   3.5586   3.7076   3.8540   3.9911
     4.0289   4.1960   7.2630  11.0089  12.2084  15.0133  16.5422  17.4849

     occupation numbers 
     1.0000   1.0000   1.0000   1.0000   1.0000   1.0000   1.0000   1.0000
     1.0000   1.0000   1.0000   1.0000   0.0000   0.0000   0.0000   0.0000

          k = 0.1429 0.4949 0.1553 (  2026 PWs)   bands (ev):

     2.9186   2.9788   3.1948   3.2358   3.5727   3.8127   3.9077   3.9903
     4.0149   4.1968   7.6037  10.0908  12.1503  14.5031  17.7699  17.8852

     occupation numbers 
     1.0000   1.0000   1.0000   1.0000   1.0000   1.0000   1.0000   1.0000
     1.0000   1.0000   1.0000   1.0000   0.0000   0.0000   0.0000   0.0000

          k = 0.1429 0.4949 0.2329 (  2030 PWs)   bands (ev):

     2.9327   2.9777   3.1560   3.1766   3.6669   3.7895   3.9083   3.9689
     4.1055   4.1724   8.1952   9.0405  12.6800  13.4953  18.5246  19.2489

     occupation numbers 
     1.0000   1.0000   1.0000   1.0000   1.0000   1.0000   1.0000   1.0000
     1.0000   1.0000   1.0000   1.0000   0.0000   0.0000   0.0000   0.0000

          k = 0.1429 0.5774 0.0000 (  2022 PWs)   bands (ev):

     2.9123   3.0196   3.0429   3.5011   3.5689   3.6550   3.8074   4.0160
     4.1392   4.1593   8.8374   9.2971  14.2666  15.1416  15.5559  17.1333

     occupation numbers 
     1.0000   1.0000   1.0000   1.0000   1.0000   1.0000   1.0000   1.0000
     1.0000   1.0000   1.0000   1.0000   0.0000   0.0000   0.0000   0.0000

          k = 0.1429 0.5774 0.0776 (  2038 PWs)   bands (ev):

     2.9245   2.9421   3.1308   3.3977   3.5385   3.7325   3.8886   3.9872
     4.1365   4.1580   8.9551   9.3744  13.5742  13.7471  17.2112  17.3246

     occupation numbers 
     1.0000   1.0000   1.0000   1.0000   1.0000   1.0000   1.0000   1.0000
     1.0000   1.0000   1.0000   1.0000   0.0000   0.0000   0.0000   0.0000

          k = 0.1429 0.5774 0.1553 (  2035 PWs)   bands (ev):

     2.9000   2.9521   3.1790   3.2390   3.5589   3.8647   3.9007   3.9990
     4.1281   4.1478   9.2900   9.5957  12.4628  12.4765  17.7251  19.2483

     occupation numbers 
     1.0000   1.0000   1.0000   1.0000   1.0000   1.0000   1.0000   1.0000
     1.0000   1.0000   1.0000   1.0000   0.0000   0.0000   0.0000   0.0000

          k = 0.1429 0.5774 0.2329 (  2033 PWs)   bands (ev):

     2.9136   2.9554   3.1492   3.1609   3.6576   3.7844   3.9932   4.0515
     4.1139   4.1159   9.7300   9.8544  11.6281  11.6356  18.3742  19.2235

     occupation numbers 
     1.0000   1.0000   1.0000   1.0000   1.0000   1.0000   1.0000   1.0000
     1.0000   1.0000   1.0000   1.0000   0.0000   0.0000   0.0000   0.0000

          k = 0.2143 0.3712 0.0000 (  2031 PWs)   bands (ev):

     3.1434   3.1686   3.2063   3.3773   3.4893   3.5158   3.6926   3.7133
     4.0096   4.1573   5.5290  11.1625  12.3214  15.6096  15.9272  21.4166

     occupation numbers 
     1.0000   1.0000   1.0000   1.0000   1.0000   1.0000   1.0000   1.0000
     1.0000   1.0000   1.0000   0.0000   0.0000   0.0000   0.0000   0.0000

          k = 0.2143 0.3712 0.0776 (  2027 PWs)   bands (ev):

     3.1306   3.1571   3.2629   3.2668   3.5019   3.5751   3.6885   3.7774
     3.9819   4.1673   5.6222   9.9618  13.7483  15.7415  16.0552  20.1768

     occupation numbers 
     1.0000   1.0000   1.0000   1.0000   1.0000   1.0000   1.0000   1.0000
     1.0000   1.0000   1.0000   1.0000   0.0000   0.0000   0.0000   0.0000

          k = 0.2143 0.3712 0.1553 (  2021 PWs)   bands (ev):

     3.0984   3.1508   3.2122   3.3357   3.4682   3.5806   3.6946   3.9046
     3.9588   4.1821   5.9328   8.5643  15.7883  16.1373  16.4313  18.8206

     occupation numbers 
     1.0000   1.0000   1.0000   1.0000   1.0000   1.0000   1.0000   1.0000
     1.0000   1.0000   1.0000   1.0000   0.0000   0.0000   0.0000   0.0000

          k = 0.2143 0.3712 0.2329 (  2028 PWs)   bands (ev):

     3.0865   3.1011   3.2711   3.3357   3.4834   3.5404   3.7357   3.8141
     4.1023   4.1711   6.5193   7.4028  16.7832  17.0169  17.4284  17.6830

     occupation numbers 
     1.0000   1.0000   1.0000   1.0000   1.0000   1.0000   1.0000   1.0000
     1.0000   1.0000   1.0000   1.0000   0.0000   0.0000   0.0000   0.0000

          k = 0.2143 0.4536 0.0000 (  2039 PWs)   bands (ev):

     3.1138   3.1156   3.1995   3.4662   3.5444   3.6105   3.6163   3.8382
     3.9816   4.1787   6.9237  12.3487  13.3520  13.7923  15.1624  18.8927

     occupation numbers 
     1.0000   1.0000   1.0000   1.0000   1.0000   1.0000   1.0000   1.0000
     1.0000   1.0000   1.0000   0.0000   0.0000   0.0000   0.0000   0.0000

          k = 0.2143 0.4536 0.0776 (  2031 PWs)   bands (ev):

     3.0820   3.1288   3.2507   3.3500   3.5263   3.6496   3.6951   3.8601
     3.9525   4.1856   7.0351  11.3362  13.3448  15.0989  15.2986  17.8483

     occupation numbers 
     1.0000   1.0000   1.0000   1.0000   1.0000   1.0000   1.0000   1.0000
     1.0000   1.0000   1.0000   0.0000   0.0000   0.0000   0.0000   0.0000

          k = 0.2143 0.4536 0.1553 (  2022 PWs)   bands (ev):

     3.0550   3.1680   3.2097   3.3358   3.4840   3.6815   3.7392   3.8766
     3.9732   4.1926   7.3813   9.9965  13.7092  15.6791  16.0820  17.4128

     occupation numbers 
     1.0000   1.0000   1.0000   1.0000   1.0000   1.0000   1.0000   1.0000
     1.0000   1.0000   1.0000   1.0000   0.0000   0.0000   0.0000   0.0000

          k = 0.2143 0.4536 0.2329 (  2028 PWs)   bands (ev):

     3.0643   3.1146   3.2360   3.3060   3.5501   3.6496   3.7533   3.7996
     4.0982   4.1714   7.9862   8.8617  14.3317  15.1803  16.3208  17.1505

     occupation numbers 
     1.0000   1.0000   1.0000   1.0000   1.0000   1.0000   1.0000   1.0000
     1.0000   1.0000   1.0000   1.0000   0.0000   0.0000   0.0000   0.0000

          k = 0.2143 0.5361 0.0000 (  2027 PWs)   bands (ev):

     3.0786   3.0908   3.1860   3.4849   3.5409   3.6284   3.6606   3.9666
     3.9861   4.1257   8.6657  10.7186  14.2925  14.8458  15.3424  16.6477

     occupation numbers 
     1.0000   1.0000   1.0000   1.0000   1.0000   1.0000   1.0000   1.0000
     1.0000   1.0000   1.0000   1.0000   0.0000   0.0000   0.0000   0.0000

          k = 0.2143 0.5361 0.0776 (  2032 PWs)   bands (ev):

     3.0555   3.0927   3.2470   3.3912   3.4829   3.6969   3.7321   3.9363
     3.9909   4.1317   8.7813  10.8033  13.2813  14.9426  15.1733  17.1583

     occupation numbers 
     1.0000   1.0000   1.0000   1.0000   1.0000   1.0000   1.0000   1.0000
     1.0000   1.0000   1.0000   1.0000   0.0000   0.0000   0.0000   0.0000

          k = 0.2143 0.5361 0.1553 (  2032 PWs)   bands (ev):

     3.0315   3.1293   3.2547   3.3194   3.4460   3.7512   3.8113   3.8776
     4.0167   4.1390   9.1286  10.9277  12.2098  13.9724  15.3740  17.8697

     occupation numbers 
     1.0000   1.0000   1.0000   1.0000   1.0000   1.0000   1.0000   1.0000
     1.0000   1.0000   1.0000   1.0000   0.0000   0.0000   0.0000   0.0000

          k = 0.2143 0.5361 0.2329 (  2031 PWs)   bands (ev):

     3.0528   3.1179   3.2128   3.2762   3.5438   3.6754   3.8460   3.8683
     4.0752   4.1244   9.7032  10.4496  12.1911  12.9311  16.0153  16.8846

     occupation numbers 
     1.0000   1.0000   1.0000   1.0000   1.0000   1.0000   1.0000   1.0000
     1.0000   1.0000   1.0000   1.0000   0.0000   0.0000   0.0000   0.0000

          k = 0.2857 0.4949 0.0000 (  2023 PWs)   bands (ev):

     3.1184   3.2117   3.2702   3.4571   3.5067   3.5470   3.6537   3.8896
     3.9441   4.1183   8.5458  12.4381  12.8080  14.2766  15.3250  18.2626

     occupation numbers 
     1.0000   1.0000   1.0000   1.0000   1.0000   1.0000   1.0000   1.0000
     1.0000   1.0000   1.0000   0.0000   0.0000   0.0000   0.0000   0.0000

          k = 0.2857 0.4949 0.0776 (  2035 PWs)   bands (ev):

     3.1181   3.2198   3.2970   3.3579   3.5098   3.5908   3.6739   3.9134
     3.9156   4.1267   8.6641  12.3710  12.9414  13.3610  16.2860  17.1579

     occupation numbers 
     1.0000   1.0000   1.0000   1.0000   1.0000   1.0000   1.0000   1.0000
     1.0000   1.0000   1.0000   0.0000   0.0000   0.0000   0.0000   0.0000

          k = 0.2857 0.4949 0.1553 (  2033 PWs)   bands (ev):

     3.1218   3.2234   3.2819   3.3684   3.4429   3.6277   3.7028   3.8398
     3.9905   4.1386   9.0221  11.5314  13.2407  13.3353  15.7923  15.8527

     occupation numbers 
     1.0000   1.0000   1.0000   1.0000   1.0000   1.0000   1.0000   1.0000
     1.0000   1.0000   1.0000   0.0000   0.0000   0.0000   0.0000   0.0000

          k = 0.2857 0.4949 0.2329 (  2037 PWs)   bands (ev):

     3.1373   3.1729   3.3096   3.3661   3.4800   3.5811   3.7305   3.7699
     4.0753   4.1273   9.6270  10.4776  13.7874  13.9594  14.6914  14.8672

     occupation numbers 
     1.0000   1.0000   1.0000   1.0000   1.0000   1.0000   1.0000   1.0000
     1.0000   1.0000   1.0000   1.0000   0.0000   0.0000   0.0000   0.0000

          k = 0.2857 0.5774 0.0000 (  2015 PWs)   bands (ev):

     3.1233   3.2458   3.3016   3.4742   3.4789   3.4943   3.6807   3.9301
     3.9689   4.0352  10.4336  10.4736  12.5111  15.6853  16.6077  16.6557

     occupation numbers 
     1.0000   1.0000   1.0000   1.0000   1.0000   1.0000   1.0000   1.0000
     1.0000   1.0000   1.0000   1.0000   0.0000   0.0000   0.0000   0.0000

          k = 0.2857 0.5774 0.0776 (  2033 PWs)   bands (ev):

[...]

     occupation numbers 
     1.0000   1.0000   1.0000   1.0000   1.0000   1.0000   1.0000   1.0000
     1.0000   1.0000   1.0000   1.0000   1.0000   0.0000   0.0000   0.0000

          k = 0.1429 0.2474 0.0776 (  2022 PWs)   bands (ev):

     2.4274   3.0927   3.2631   3.3565   3.4582   3.4703   3.7259   3.7853
     3.9284   4.0010   4.1042   7.8760  11.5872  19.6292  19.9020  24.0176

     occupation numbers 
     1.0000   1.0000   1.0000   1.0000   1.0000   1.0000   1.0000   1.0000
     1.0000   1.0000   1.0000   1.0000   0.0000   0.0000   0.0000   0.0000

          k = 0.1429 0.2474 0.1553 (  2040 PWs)   bands (ev):

     2.6630   3.1346   3.2777   3.2927   3.3833   3.4595   3.7670   3.8978
     3.9427   3.9714   4.1887   6.4574  13.7746  20.0253  20.1830  21.8116

     occupation numbers 
     1.0000   1.0000   1.0000   1.0000   1.0000   1.0000   1.0000   1.0000
     1.0000   1.0000   1.0000   1.0000   0.0000   0.0000   0.0000   0.0000

          k = 0.1429 0.2474 0.2329 (  2028 PWs)   bands (ev):

     2.9360   3.1292   3.2262   3.2965   3.3461   3.4113   3.7956   3.8569
     4.0033   4.0067   4.5600   5.3352  16.1867  18.7552  20.6779  21.0937

     occupation numbers 
     1.0000   1.0000   1.0000   1.0000   1.0000   1.0000   1.0000   1.0000
     1.0000   1.0000   1.0000   1.0000   0.0000   0.0000   0.0000   0.0000

          k = 0.1429 0.3299 0.0000 (  2030 PWs)   bands (ev):

     2.9312   3.0961   3.2523   3.3257   3.4561   3.5522   3.6585   3.7489
     4.0453   4.0564   4.5638  10.1297  11.0668  16.6557  18.6059  22.3686

     occupation numbers 
     1.0000   1.0000   1.0000   1.0000   1.0000   1.0000   1.0000   1.0000
     1.0000   1.0000   1.0000   1.0000   0.7502   0.0000   0.0000   0.0000

          k = 0.1429 0.3299 0.0776 (  2035 PWs)   bands (ev):

     2.9466   3.1113   3.2397   3.3269   3.4195   3.5869   3.7298   3.7484
     4.0172   4.0711   4.6181   8.8345  12.6031  16.7843  18.7349  21.2240

     occupation numbers 
     1.0000   1.0000   1.0000   1.0000   1.0000   1.0000   1.0000   1.0000
     1.0000   1.0000   1.0000   1.0000   0.0000   0.0000   0.0000   0.0000

          k = 0.1429 0.3299 0.1553 (  2025 PWs)   bands (ev):

     2.9865   3.1541   3.1846   3.3354   3.4144   3.5671   3.7410   3.9333
     3.9469   4.0976   4.8415   7.4146  14.7389  17.1637  19.1094  19.9149

     occupation numbers 
     1.0000   1.0000   1.0000   1.0000   1.0000   1.0000   1.0000   1.0000
     1.0000   1.0000   1.0000   1.0000   0.0000   0.0000   0.0000   0.0000

          k = 0.1429 0.3299 0.2329 (  2020 PWs)   bands (ev):

     3.0428   3.1098   3.2236   3.2909   3.4652   3.5213   3.7816   3.8587
     4.0671   4.1074   5.3745   6.2474  17.0285  17.7436  18.8689  19.4404

     occupation numbers 
     1.0000   1.0000   1.0000   1.0000   1.0000   1.0000   1.0000   1.0000
     1.0000   1.0000   1.0000   1.0000   0.0000   0.0000   0.0000   0.0000

          k = 0.1429 0.4124 0.0000 (  2035 PWs)   bands (ev):

     3.0017   3.0603   3.1358   3.5092   3.5424   3.6008   3.6729   3.8540
     4.0300   4.1610   5.6096  11.2396  12.4604  13.9706  17.8278  19.6474

     occupation numbers 
     1.0000   1.0000   1.0000   1.0000   1.0000   1.0000   1.0000   1.0000
     1.0000   1.0000   1.0000   0.0000   0.0000   0.0000   0.0000   0.0000

          k = 0.1429 0.4124 0.0776 (  2030 PWs)   bands (ev):

     2.9944   3.0325   3.1932   3.3679   3.5382   3.6854   3.7700   3.8487
     4.0024   4.1694   5.7059  10.0667  13.7997  14.1448  17.9604  18.5642

     occupation numbers 
     1.0000   1.0000   1.0000   1.0000   1.0000   1.0000   1.0000   1.0000
     1.0000   1.0000   1.0000   1.0000   0.0000   0.0000   0.0000   0.0000

          k = 0.1429 0.4124 0.1553 (  2027 PWs)   bands (ev):

     2.9687   3.0527   3.2061   3.2605   3.5654   3.7217   3.8167   3.9267
     3.9727   4.1822   6.0252   8.6744  14.4481  15.7708  17.4417  18.3513

     occupation numbers 
     1.0000   1.0000   1.0000   1.0000   1.0000   1.0000   1.0000   1.0000
     1.0000   1.0000   1.0000   1.0000   0.0000   0.0000   0.0000   0.0000

          k = 0.1429 0.4124 0.2329 (  2024 PWs)   bands (ev):

     2.9849   3.0368   3.1790   3.2226   3.6525   3.7365   3.7929   3.8419
     4.1059   4.1707   6.6215   7.5113  15.0704  15.8686  18.4753  18.9582

     occupation numbers 
     1.0000   1.0000   1.0000   1.0000   1.0000   1.0000   1.0000   1.0000
     1.0000   1.0000   1.0000   1.0000   0.0000   0.0000   0.0000   0.0000

          k = 0.1429 0.4949 0.0000 (  2030 PWs)   bands (ev):

     2.9366   3.0342   3.0659   3.4964   3.6032   3.6270   3.7543   4.0197
     4.0351   4.1927   7.1531  11.1846  13.0346  14.0126  17.2050  17.3510

     occupation numbers 
     1.0000   1.0000   1.0000   1.0000   1.0000   1.0000   1.0000   1.0000
     1.0000   1.0000   1.0000   0.0000   0.0000   0.0000   0.0000   0.0000

          k = 0.1429 0.4949 0.0776 (  2030 PWs)   bands (ev):

     2.9446   2.9665   3.1482   3.3878   3.5586   3.7076   3.8540   3.9911
     4.0289   4.1960   7.2630  11.0089  12.2084  15.0133  16.5422  17.4849

     occupation numbers 
     1.0000   1.0000   1.0000   1.0000   1.0000   1.0000   1.0000   1.0000
     1.0000   1.0000   1.0000   1.0000   0.0000   0.0000   0.0000   0.0000

          k = 0.1429 0.4949 0.1553 (  2026 PWs)   bands (ev):

     2.9186   2.9788   3.1948   3.2358   3.5727   3.8127   3.9077   3.9903
     4.0149   4.1968   7.6037  10.0908  12.1503  14.5031  17.7699  17.8852

     occupation numbers 
     1.0000   1.0000   1.0000   1.0000   1.0000   1.0000   1.0000   1.0000
     1.0000   1.0000   1.0000   1.0000   0.0000   0.0000   0.0000   0.0000

          k = 0.1429 0.4949 0.2329 (  2030 PWs)   bands (ev):

     2.9327   2.9777   3.1560   3.1766   3.6669   3.7895   3.9083   3.9689
     4.1055   4.1724   8.1952   9.0405  12.6800  13.4953  18.5246  19.2489

     occupation numbers 
     1.0000   1.0000   1.0000   1.0000   1.0000   1.0000   1.0000   1.0000
     1.0000   1.0000   1.0000   1.0000   0.0000   0.0000   0.0000   0.0000

          k = 0.1429 0.5774 0.0000 (  2022 PWs)   bands (ev):

     2.9123   3.0196   3.0429   3.5011   3.5689   3.6550   3.8074   4.0160
     4.1392   4.1593   8.8374   9.2971  14.2666  15.1416  15.5559  17.1333

     occupation numbers 
     1.0000   1.0000   1.0000   1.0000   1.0000   1.0000   1.0000   1.0000
     1.0000   1.0000   1.0000   1.0000   0.0000   0.0000   0.0000   0.0000

          k = 0.1429 0.5774 0.0776 (  2038 PWs)   bands (ev):

     2.9245   2.9421   3.1308   3.3977   3.5385   3.7325   3.8886   3.9872
     4.1365   4.1580   8.9551   9.3744  13.5742  13.7471  17.2111  17.3246

     occupation numbers 
     1.0000   1.0000   1.0000   1.0000   1.0000   1.0000   1.0000   1.0000
     1.0000   1.0000   1.0000   1.0000   0.0000   0.0000   0.0000   0.0000

          k = 0.1429 0.5774 0.1553 (  2035 PWs)   bands (ev):

     2.9000   2.9521   3.1790   3.2390   3.5589   3.8647   3.9007   3.9990
     4.1281   4.1478   9.2900   9.5957  12.4628  12.4765  17.7251  19.2483

     occupation numbers 
     1.0000   1.0000   1.0000   1.0000   1.0000   1.0000   1.0000   1.0000
     1.0000   1.0000   1.0000   1.0000   0.0000   0.0000   0.0000   0.0000

          k = 0.1429 0.5774 0.2329 (  2033 PWs)   bands (ev):

     2.9136   2.9554   3.1492   3.1609   3.6576   3.7844   3.9932   4.0515
     4.1139   4.1159   9.7300   9.8544  11.6281  11.6356  18.3742  19.2235

     occupation numbers 
     1.0000   1.0000   1.0000   1.0000   1.0000   1.0000   1.0000   1.0000
     1.0000   1.0000   1.0000   1.0000   0.0000   0.0000   0.0000   0.0000

          k = 0.2143 0.3712 0.0000 (  2031 PWs)   bands (ev):

     3.1434   3.1686   3.2063   3.3773   3.4893   3.5158   3.6926   3.7133
     4.0096   4.1573   5.5290  11.1625  12.3214  15.6096  15.9272  21.4166

     occupation numbers 
     1.0000   1.0000   1.0000   1.0000   1.0000   1.0000   1.0000   1.0000
     1.0000   1.0000   1.0000   0.0000   0.0000   0.0000   0.0000   0.0000

          k = 0.2143 0.3712 0.0776 (  2027 PWs)   bands (ev):

     3.1306   3.1571   3.2629   3.2668   3.5019   3.5751   3.6885   3.7774
     3.9819   4.1673   5.6222   9.9618  13.7483  15.7415  16.0552  20.1768

     occupation numbers 
     1.0000   1.0000   1.0000   1.0000   1.0000   1.0000   1.0000   1.0000
     1.0000   1.0000   1.0000   1.0000   0.0000   0.0000   0.0000   0.0000

          k = 0.2143 0.3712 0.1553 (  2021 PWs)   bands (ev):

     3.0984   3.1508   3.2122   3.3357   3.4682   3.5806   3.6946   3.9046
     3.9588   4.1821   5.9328   8.5643  15.7883  16.1373  16.4313  18.8206

     occupation numbers 
     1.0000   1.0000   1.0000   1.0000   1.0000   1.0000   1.0000   1.0000
     1.0000   1.0000   1.0000   1.0000   0.0000   0.0000   0.0000   0.0000

          k = 0.2143 0.3712 0.2329 (  2028 PWs)   bands (ev):

     3.0865   3.1011   3.2711   3.3357   3.4834   3.5404   3.7357   3.8141
     4.1023   4.1711   6.5193   7.4028  16.7832  17.0168  17.4284  17.6830

     occupation numbers 
     1.0000   1.0000   1.0000   1.0000   1.0000   1.0000   1.0000   1.0000
     1.0000   1.0000   1.0000   1.0000   0.0000   0.0000   0.0000   0.0000

          k = 0.2143 0.4536 0.0000 (  2039 PWs)   bands (ev):

     3.1138   3.1156   3.1995   3.4662   3.5444   3.6105   3.6163   3.8382
     3.9816   4.1787   6.9237  12.3487  13.3520  13.7922  15.1624  18.8927

     occupation numbers 
     1.0000   1.0000   1.0000   1.0000   1.0000   1.0000   1.0000   1.0000
     1.0000   1.0000   1.0000   0.0000   0.0000   0.0000   0.0000   0.0000

          k = 0.2143 0.4536 0.0776 (  2031 PWs)   bands (ev):

     3.0820   3.1288   3.2507   3.3500   3.5263   3.6496   3.6951   3.8601
     3.9525   4.1856   7.0351  11.3362  13.3448  15.0989  15.2986  17.8483

     occupation numbers 
     1.0000   1.0000   1.0000   1.0000   1.0000   1.0000   1.0000   1.0000
     1.0000   1.0000   1.0000   0.0000   0.0000   0.0000   0.0000   0.0000

          k = 0.2143 0.4536 0.1553 (  2022 PWs)   bands (ev):

     3.0550   3.1680   3.2097   3.3358   3.4840   3.6815   3.7392   3.8766
     3.9732   4.1926   7.3813   9.9965  13.7092  15.6791  16.0820  17.4128

     occupation numbers 
     1.0000   1.0000   1.0000   1.0000   1.0000   1.0000   1.0000   1.0000
     1.0000   1.0000   1.0000   1.0000   0.0000   0.0000   0.0000   0.0000

          k = 0.2143 0.4536 0.2329 (  2028 PWs)   bands (ev):

     3.0643   3.1146   3.2360   3.3060   3.5501   3.6496   3.7533   3.7996
     4.0982   4.1714   7.9862   8.8617  14.3317  15.1803  16.3208  17.1505

     occupation numbers 
     1.0000   1.0000   1.0000   1.0000   1.0000   1.0000   1.0000   1.0000
     1.0000   1.0000   1.0000   1.0000   0.0000   0.0000   0.0000   0.0000

          k = 0.2143 0.5361 0.0000 (  2027 PWs)   bands (ev):

     3.0786   3.0908   3.1860   3.4849   3.5409   3.6284   3.6606   3.9666
     3.9861   4.1257   8.6657  10.7186  14.2925  14.8458  15.3424  16.6477

     occupation numbers 
     1.0000   1.0000   1.0000   1.0000   1.0000   1.0000   1.0000   1.0000
     1.0000   1.0000   1.0000   1.0000   0.0000   0.0000   0.0000   0.0000

          k = 0.2143 0.5361 0.0776 (  2032 PWs)   bands (ev):

     3.0555   3.0927   3.2470   3.3912   3.4829   3.6969   3.7321   3.9363
     3.9909   4.1317   8.7813  10.8033  13.2813  14.9426  15.1733  17.1583

     occupation numbers 
     1.0000   1.0000   1.0000   1.0000   1.0000   1.0000   1.0000   1.0000
     1.0000   1.0000   1.0000   1.0000   0.0000   0.0000   0.0000   0.0000

          k = 0.2143 0.5361 0.1553 (  2032 PWs)   bands (ev):

     3.0315   3.1293   3.2547   3.3194   3.4460   3.7512   3.8113   3.8776
     4.0167   4.1390   9.1286  10.9277  12.2098  13.9724  15.3740  17.8697

     occupation numbers 
     1.0000   1.0000   1.0000   1.0000   1.0000   1.0000   1.0000   1.0000
     1.0000   1.0000   1.0000   1.0000   0.0000   0.0000   0.0000   0.0000

          k = 0.2143 0.5361 0.2329 (  2031 PWs)   bands (ev):

     3.0528   3.1179   3.2128   3.2762   3.5438   3.6754   3.8460   3.8683
     4.0752   4.1244   9.7032  10.4496  12.1911  12.9311  16.0153  16.8846

     occupation numbers 
     1.0000   1.0000   1.0000   1.0000   1.0000   1.0000   1.0000   1.0000
     1.0000   1.0000   1.0000   1.0000   0.0000   0.0000   0.0000   0.0000

          k = 0.2857 0.4949 0.0000 (  2023 PWs)   bands (ev):

     3.1184   3.2117   3.2702   3.4571   3.5067   3.5470   3.6537   3.8896
     3.9441   4.1183   8.5458  12.4381  12.8080  14.2766  15.3250  18.2626

     occupation numbers 
     1.0000   1.0000   1.0000   1.0000   1.0000   1.0000   1.0000   1.0000
     1.0000   1.0000   1.0000   0.0000   0.0000   0.0000   0.0000   0.0000

          k = 0.2857 0.4949 0.0776 (  2035 PWs)   bands (ev):

     3.1181   3.2198   3.2970   3.3579   3.5098   3.5908   3.6739   3.9134
     3.9156   4.1267   8.6641  12.3710  12.9414  13.3610  16.2860  17.1579

     occupation numbers 
     1.0000   1.0000   1.0000   1.0000   1.0000   1.0000   1.0000   1.0000
     1.0000   1.0000   1.0000   0.0000   0.0000   0.0000   0.0000   0.0000

          k = 0.2857 0.4949 0.1553 (  2033 PWs)   bands (ev):

     3.1218   3.2234   3.2819   3.3684   3.4429   3.6277   3.7028   3.8398
     3.9905   4.1386   9.0221  11.5314  13.2407  13.3353  15.7923  15.8527

     occupation numbers 
     1.0000   1.0000   1.0000   1.0000   1.0000   1.0000   1.0000   1.0000
     1.0000   1.0000   1.0000   0.0000   0.0000   0.0000   0.0000   0.0000

          k = 0.2857 0.4949 0.2329 (  2037 PWs)   bands (ev):

     3.1373   3.1729   3.3096   3.3661   3.4800   3.5811   3.7305   3.7699
     4.0753   4.1273   9.6270  10.4776  13.7874  13.9594  14.6914  14.8672

     occupation numbers 
     1.0000   1.0000   1.0000   1.0000   1.0000   1.0000   1.0000   1.0000
     1.0000   1.0000   1.0000   1.0000   0.0000   0.0000   0.0000   0.0000

          k = 0.2857 0.5774 0.0000 (  2015 PWs)   bands (ev):

     3.1233   3.2458   3.3016   3.4742   3.4789   3.4943   3.6807   3.9301
     3.9689   4.0352  10.4336  10.4736  12.5111  15.6853  16.6077  16.6557

     occupation numbers 
     1.0000   1.0000   1.0000   1.0000   1.0000   1.0000   1.0000   1.0000
     1.0000   1.0000   1.0000   1.0000   0.0000   0.0000   0.0000   0.0000

          k = 0.2857 0.5774 0.0776 (  2033 PWs)   bands (ev):

     3.1341   3.2506   3.2995   3.3995   3.4742   3.5514   3.6940   3.8991
     3.9851   4.0492  10.5625  10.5777  12.6291  14.9397  15.0340  16.9084

     occupation numbers 
     1.0000   1.0000   1.0000   1.0000   1.0000   1.0000   1.0000   1.0000
     1.0000   1.0000   1.0000   1.0000   0.0000   0.0000   0.0000   0.0000

          k = 0.2857 0.5774 0.1553 (  2030 PWs)   bands (ev):

     3.1544   3.2511   3.3126   3.3326   3.4692   3.5817   3.7156   3.8242
     4.0270   4.0766  10.8881  10.9332  12.9155  13.7605  13.7971  15.7067

     occupation numbers 
     1.0000   1.0000   1.0000   1.0000   1.0000   1.0000   1.0000   1.0000
     1.0000   1.0000   1.0000   1.0000   0.0000   0.0000   0.0000   0.0000

          k = 0.2857 0.5774 0.2329 (  2026 PWs)   bands (ev):

     3.1764   3.2134   3.3267   3.3331   3.4959   3.5578   3.7312   3.7575
     4.0706   4.0894  11.3570  11.4354  12.5905  12.7675  13.8063  14.6326

     occupation numbers 
     1.0000   1.0000   1.0000   1.0000   1.0000   1.0000   1.0000   1.0000
     1.0000   1.0000   0.0000   0.0000   0.0000   0.0000   0.0000   0.0000

     the Fermi energy is    11.0701 ev

!    total energy              =    -487.44685585 Ry
     total all-electron energy =     -7184.240901 Ry
     estimated scf accuracy    <       0.00000251 Ry
     smearing contrib. (-TS)   =      -0.00000076 Ry
     internal energy E=F+TS    =    -487.44685508 Ry

     The total energy is F=E-TS. E is the sum of the following terms:
     one-electron contribution =    -116.31848174 Ry
     hartree contribution      =      91.37415427 Ry
     xc contribution           =     -94.35804608 Ry
     ewald contribution        =    -177.27414259 Ry
     one-center paw contrib.   =    -190.87033894 Ry
      -> PAW hartree energy AE =     121.81703787 Ry
      -> PAW hartree energy PS =    -121.19279752 Ry
      -> PAW xc energy AE      =    -143.06395114 Ry
      -> PAW xc energy PS      =      47.00454132 Ry
      -> total E_H with PAW    =      91.99839462 Ry
      -> total E_XC with PAW   =    -190.41745589 Ry

     total magnetization       =    -0.00 Bohr mag/cell
     absolute magnetization    =     0.00 Bohr mag/cell

     convergence has been achieved in  10 iterations

     Writing all to output data dir ./out/Zn.save/
 
     init_run     :      0.27s CPU      0.38s WALL (       1 calls)
     electrons    :     11.82s CPU     12.77s WALL (       1 calls)

     Called by init_run:
     wfcinit      :      0.12s CPU      0.20s WALL (       1 calls)
     potinit      :      0.10s CPU      0.13s WALL (       1 calls)
     hinit0       :      0.04s CPU      0.04s WALL (       1 calls)

     Called by electrons:
     c_bands      :      9.81s CPU     10.51s WALL (      10 calls)
     sum_band     :      1.05s CPU      1.11s WALL (      10 calls)
     v_of_rho     :      0.03s CPU      0.04s WALL (      11 calls)
     v_h          :      0.00s CPU      0.00s WALL (      11 calls)
     v_xc         :      0.03s CPU      0.03s WALL (      11 calls)
     newd         :      0.02s CPU      0.02s WALL (      11 calls)
     PAW_pot      :      0.99s CPU      1.19s WALL (      11 calls)
     mix_rho      :      0.01s CPU      0.01s WALL (      10 calls)

     Called by c_bands:
     init_us_2    :      0.07s CPU      0.07s WALL (    1920 calls)
     init_us_2:cp :      0.07s CPU      0.07s WALL (    1920 calls)
     cegterg      :      9.39s CPU      9.90s WALL (     960 calls)

     Called by sum_band:
     sum_band:wei :      0.01s CPU      0.02s WALL (      10 calls)
     sum_band:loo :      0.98s CPU      1.04s WALL (      10 calls)
     sum_band:buf :      0.01s CPU      0.01s WALL (     960 calls)
     sum_band:ini :      0.04s CPU      0.04s WALL (     960 calls)
     sum_band:cal :      0.08s CPU      0.08s WALL (     960 calls)
     sum_band:bec :      0.01s CPU      0.01s WALL (     960 calls)
     addusdens    :      0.03s CPU      0.04s WALL (      10 calls)
                                        0.00s GPU  (      10 calls)
     addusd:skk   :      0.00s CPU      0.00s WALL (      10 calls)
                                        0.00s GPU  (      10 calls)

     Called by *egterg:
     cdiaghg      :      1.58s CPU      1.67s WALL (    5337 calls)
     cegterg:over :      0.26s CPU      0.28s WALL (    4473 calls)
     cegterg:upda :      0.06s CPU      0.07s WALL (    4473 calls)
     cegterg:last :      0.11s CPU      0.12s WALL (    3501 calls)
     h_psi        :      7.04s CPU      7.43s WALL (    5433 calls)
     s_psi        :      0.12s CPU      0.13s WALL (    5433 calls)
     g_psi        :      0.02s CPU      0.03s WALL (    4473 calls)

     Called by h_psi:
     h_psi:calbec :      0.34s CPU      0.35s WALL (    5433 calls)
     vloc_psi     :      6.53s CPU      6.88s WALL (    5433 calls)
     add_vuspsi   :      0.13s CPU      0.14s WALL (    5433 calls)

     General routines
     calbec       :      0.40s CPU      0.42s WALL (    6393 calls)
     fft          :      0.02s CPU      0.02s WALL (     229 calls)
     ffts         :      0.00s CPU      0.00s WALL (      20 calls)
     fftw         :      6.85s CPU      7.22s WALL (  141122 calls)
 
     Parallel routines

     PAW routines
     PAW_pot      :      0.99s CPU      1.19s WALL (      11 calls)
     PAW_symme    :      0.01s CPU      0.01s WALL (      20 calls)
 
     PWSCF        :     12.35s CPU     13.78s WALL

 
   This run was terminated on:   3:28:15  13Mar2024            

=------------------------------------------------------------------------------=
   JOB DONE.
=------------------------------------------------------------------------------=
