
     Program PWSCF v.7.2 starts on 13Mar2024 at  3:28:15 

     This program is part of the open-source Quantum ESPRESSO suite
     for quantum simulation of materials; please cite
         "P. Giannozzi et al., J. Phys.:Condens. Matter 21 395502 (2009);
         "P. Giannozzi et al., J. Phys.:Condens. Matter 29 465901 (2017);
         "P. Giannozzi et al., J. Chem. Phys. 152 154105 (2020);
          URL http://www.quantum-espresso.org", 
     in publications or presentations arising from this work. More details at
     http://www.quantum-espresso.org/quote

     Parallel version (MPI), running on    28 processors

     MPI processes distributed on     1 nodes
     150190 MiB available memory on the printing compute node when the environment starts
 
     Waiting for input...
     Reading input from standard input

     Current dimensions of program PWSCF are:
     Max number of different atomic species (ntypx) = 10
     Max number of k-points (npk) = 120000
     Max angular momentum in pseudopotentials (lmaxx) =  4
     file Zn.pbe-dnl-kjpaw_psl.1.0.0.UPF: wavefunction(s)  4S 3D renormalized
 
     K-points division:     npool     =       2
     R & G space division:  proc/nbgrp/npool/nimage =      14
     Subspace diagonalization in iterative solution of the eigenvalue problem:
     a serial algorithm will be used

 
     Parallelization info
     --------------------
     sticks:   dense  smooth     PW     G-vecs:    dense   smooth      PW
     Min          35      35     10                 1169     1169     194
     Max          36      36     11                 1176     1176     201
     Sum         499     499    151                16435    16435    2769
 
     Using Slab Decomposition
 


     bravais-lattice index     =            4
     lattice parameter (alat)  =       5.0500  a.u.
     unit-cell volume          =     206.3367 (a.u.)^3
     number of atoms/cell      =            2
     number of atomic types    =            1
     number of electrons       =        24.00
     number of Kohn-Sham states=           16
     kinetic-energy cutoff     =      70.0000  Ry
     charge density cutoff     =     280.0000  Ry
     scf convergence threshold =      4.0E-06
     mixing beta               =       0.7000
     number of iterations used =            8  plain     mixing
     Exchange-correlation= SLA  PW   PBX  PBC
                           (   1   4   3   4   0   0   0)

     celldm(1)=   5.050000  celldm(2)=   0.000000  celldm(3)=   1.850000
     celldm(4)=   0.000000  celldm(5)=   0.000000  celldm(6)=   0.000000

     crystal axes: (cart. coord. in units of alat)
               a(1) = (   1.000000   0.000000   0.000000 )  
               a(2) = (  -0.500000   0.866025   0.000000 )  
               a(3) = (   0.000000   0.000000   1.850000 )  

     reciprocal axes: (cart. coord. in units 2 pi/alat)
               b(1) = (  1.000000  0.577350  0.000000 )  
               b(2) = (  0.000000  1.154701  0.000000 )  
               b(3) = (  0.000000  0.000000  0.540541 )  


     PseudoPot. # 1 for Zn read from file:
     /truba/home/amuhaymin/ZnS/pseudo/QE/Zn.pbe-dnl-kjpaw_psl.1.0.0.UPF
     MD5 check sum: c608214d9520ac179f507641260889e3
     Pseudo is Projector augmented-wave + core cor, Zval = 12.0
     Generated using &quot;atomic&quot; code by A. Dal Corso  v.6.2.2
     Shape of augmentation charge: PSQ
     Using radial grid of 1201 points,  6 beta functions with: 
                l(1) =   0
                l(2) =   0
                l(3) =   1
                l(4) =   1
                l(5) =   2
                l(6) =   2
     Q(r) pseudized with 0 coefficients 


     atomic species   valence    mass     pseudopotential
        Zn            12.00    65.38000     Zn( 1.00)

     Starting magnetic structure 
     atomic species   magnetization
        Zn           0.000

     24 Sym. Ops., with inversion, found (12 have fractional translation)


                                    s                        frac. trans.

      isym =  1     identity                                     

 cryst.   s( 1) = (     1          0          0      )
                  (     0          1          0      )
                  (     0          0          1      )

 cart.    s( 1) = (  1.0000000  0.0000000  0.0000000 )
                  (  0.0000000  1.0000000  0.0000000 )
                  (  0.0000000  0.0000000  1.0000000 )


      isym =  2     180 deg rotation - cart. axis [0,0,1]        

 cryst.   s( 2) = (    -1          0          0      )    f =(  0.0000000 )
                  (     0         -1          0      )       ( -0.0000000 )
                  (     0          0          1      )       ( -0.5000000 )

 cart.    s( 2) = ( -1.0000000  0.0000000  0.0000000 )    f =(  0.0000000 )
                  (  0.0000000 -1.0000000  0.0000000 )       ( -0.0000000 )
                  (  0.0000000  0.0000000  1.0000000 )       ( -0.9250000 )


      isym =  3     180 deg rotation - cart. axis [0,1,0]        

 cryst.   s( 3) = (    -1          0          0      )    f =(  0.0000000 )
                  (     1          1          0      )       (  0.0000000 )
                  (     0          0         -1      )       (  0.5000000 )

 cart.    s( 3) = ( -1.0000000  0.0000000  0.0000000 )    f =(  0.0000000 )
                  (  0.0000000  1.0000000  0.0000000 )       (  0.0000000 )
                  (  0.0000000  0.0000000 -1.0000000 )       (  0.9250000 )


      isym =  4     180 deg rotation - cart. axis [1,0,0]        

 cryst.   s( 4) = (     1          0          0      )
                  (    -1         -1          0      )
                  (     0          0         -1      )

 cart.    s( 4) = (  1.0000000  0.0000000  0.0000000 )
                  (  0.0000000 -1.0000000  0.0000000 )
                  (  0.0000000  0.0000000 -1.0000000 )


      isym =  5      60 deg rotation - cryst. axis [0,0,1]       

 cryst.   s( 5) = (     1          1          0      )    f =(  0.0000000 )
                  (    -1          0          0      )       ( -0.0000000 )
                  (     0          0          1      )       ( -0.5000000 )

 cart.    s( 5) = (  0.5000000 -0.8660254  0.0000000 )    f =(  0.0000000 )
                  (  0.8660254  0.5000000  0.0000000 )       ( -0.0000000 )
                  (  0.0000000  0.0000000  1.0000000 )       ( -0.9250000 )


      isym =  6      60 deg rotation - cryst. axis [0,0,-1]      

 cryst.   s( 6) = (     0         -1          0      )    f =(  0.0000000 )
                  (     1          1          0      )       ( -0.0000000 )
                  (     0          0          1      )       ( -0.5000000 )

 cart.    s( 6) = (  0.5000000  0.8660254  0.0000000 )    f =(  0.0000000 )
                  ( -0.8660254  0.5000000  0.0000000 )       ( -0.0000000 )
                  (  0.0000000  0.0000000  1.0000000 )       ( -0.9250000 )


      isym =  7     120 deg rotation - cryst. axis [0,0,1]       

 cryst.   s( 7) = (     0          1          0      )
                  (    -1         -1          0      )
                  (     0          0          1      )

 cart.    s( 7) = ( -0.5000000 -0.8660254  0.0000000 )
                  (  0.8660254 -0.5000000  0.0000000 )
                  (  0.0000000  0.0000000  1.0000000 )


      isym =  8     120 deg rotation - cryst. axis [0,0,-1]      

 cryst.   s( 8) = (    -1         -1          0      )
                  (     1          0          0      )
                  (     0          0          1      )

 cart.    s( 8) = ( -0.5000000  0.8660254  0.0000000 )
                  ( -0.8660254 -0.5000000  0.0000000 )
                  (  0.0000000  0.0000000  1.0000000 )


      isym =  9     180 deg rotation - cryst. axis [1,-1,0]      

 cryst.   s( 9) = (     0         -1          0      )    f =( -0.0000000 )
                  (    -1          0          0      )       ( -0.0000000 )
                  (     0          0         -1      )       (  0.5000000 )

 cart.    s( 9) = (  0.5000000 -0.8660254  0.0000000 )    f =( -0.0000000 )
                  ( -0.8660254 -0.5000000  0.0000000 )       ( -0.0000000 )
                  (  0.0000000  0.0000000 -1.0000000 )       (  0.9250000 )


      isym = 10     180 deg rotation - cryst. axis [2,1,0]       

 cryst.   s(10) = (     1          1          0      )    f =(  0.0000000 )
                  (     0         -1          0      )       ( -0.0000000 )
                  (     0          0         -1      )       (  0.5000000 )

 cart.    s(10) = (  0.5000000  0.8660254  0.0000000 )    f =(  0.0000000 )
                  (  0.8660254 -0.5000000  0.0000000 )       ( -0.0000000 )
                  (  0.0000000  0.0000000 -1.0000000 )       (  0.9250000 )


      isym = 11     180 deg rotation - cryst. axis [0,1,0]       

 cryst.   s(11) = (    -1         -1          0      )
                  (     0          1          0      )
                  (     0          0         -1      )

 cart.    s(11) = ( -0.5000000 -0.8660254  0.0000000 )
                  ( -0.8660254  0.5000000  0.0000000 )
                  (  0.0000000  0.0000000 -1.0000000 )


      isym = 12     180 deg rotation - cryst. axis [1,1,0]       

 cryst.   s(12) = (     0          1          0      )
                  (     1          0          0      )
                  (     0          0         -1      )

 cart.    s(12) = ( -0.5000000  0.8660254  0.0000000 )
                  (  0.8660254  0.5000000  0.0000000 )
                  (  0.0000000  0.0000000 -1.0000000 )


      isym = 13     inversion                                    

 cryst.   s(13) = (    -1          0          0      )
                  (     0         -1          0      )
                  (     0          0         -1      )

 cart.    s(13) = ( -1.0000000  0.0000000  0.0000000 )
                  (  0.0000000 -1.0000000  0.0000000 )
                  (  0.0000000  0.0000000 -1.0000000 )


      isym = 14     inv. 180 deg rotation - cart. axis [0,0,1]   

 cryst.   s(14) = (     1          0          0      )    f =(  0.0000000 )
                  (     0          1          0      )       (  0.0000000 )
                  (     0          0         -1      )       (  0.5000000 )

 cart.    s(14) = (  1.0000000  0.0000000  0.0000000 )    f =(  0.0000000 )
                  (  0.0000000  1.0000000  0.0000000 )       (  0.0000000 )
                  (  0.0000000  0.0000000 -1.0000000 )       (  0.9250000 )


      isym = 15     inv. 180 deg rotation - cart. axis [0,1,0]   

 cryst.   s(15) = (     1          0          0      )    f =(  0.0000000 )
                  (    -1         -1          0      )       ( -0.0000000 )
                  (     0          0          1      )       ( -0.5000000 )

 cart.    s(15) = (  1.0000000  0.0000000  0.0000000 )    f =(  0.0000000 )
                  (  0.0000000 -1.0000000  0.0000000 )       ( -0.0000000 )
                  (  0.0000000  0.0000000  1.0000000 )       ( -0.9250000 )


      isym = 16     inv. 180 deg rotation - cart. axis [1,0,0]   

 cryst.   s(16) = (    -1          0          0      )
                  (     1          1          0      )
                  (     0          0          1      )

 cart.    s(16) = ( -1.0000000  0.0000000  0.0000000 )
                  (  0.0000000  1.0000000  0.0000000 )
                  (  0.0000000  0.0000000  1.0000000 )


      isym = 17     inv.  60 deg rotation - cryst. axis [0,0,1]  

 cryst.   s(17) = (    -1         -1          0      )    f =(  0.0000000 )
                  (     1          0          0      )       ( -0.0000000 )
                  (     0          0         -1      )       (  0.5000000 )

 cart.    s(17) = ( -0.5000000  0.8660254  0.0000000 )    f =(  0.0000000 )
                  ( -0.8660254 -0.5000000  0.0000000 )       ( -0.0000000 )
                  (  0.0000000  0.0000000 -1.0000000 )       (  0.9250000 )


      isym = 18     inv.  60 deg rotation - cryst. axis [0,0,-1] 

 cryst.   s(18) = (     0          1          0      )    f =( -0.0000000 )
                  (    -1         -1          0      )       ( -0.0000000 )
                  (     0          0         -1      )       (  0.5000000 )

 cart.    s(18) = ( -0.5000000 -0.8660254  0.0000000 )    f =(  0.0000000 )
                  (  0.8660254 -0.5000000  0.0000000 )       ( -0.0000000 )
                  (  0.0000000  0.0000000 -1.0000000 )       (  0.9250000 )


      isym = 19     inv. 120 deg rotation - cryst. axis [0,0,1]  

 cryst.   s(19) = (     0         -1          0      )
                  (     1          1          0      )
                  (     0          0         -1      )

 cart.    s(19) = (  0.5000000  0.8660254  0.0000000 )
                  ( -0.8660254  0.5000000  0.0000000 )
                  (  0.0000000  0.0000000 -1.0000000 )


      isym = 20     inv. 120 deg rotation - cryst. axis [0,0,-1] 

 cryst.   s(20) = (     1          1          0      )
                  (    -1          0          0      )
                  (     0          0         -1      )

 cart.    s(20) = (  0.5000000 -0.8660254  0.0000000 )
                  (  0.8660254  0.5000000  0.0000000 )
                  (  0.0000000  0.0000000 -1.0000000 )


      isym = 21     inv. 180 deg rotation - cryst. axis [1,-1,0] 

 cryst.   s(21) = (     0          1          0      )    f =(  0.0000000 )
                  (     1          0          0      )       ( -0.0000000 )
                  (     0          0          1      )       ( -0.5000000 )

 cart.    s(21) = ( -0.5000000  0.8660254  0.0000000 )    f =(  0.0000000 )
                  (  0.8660254  0.5000000  0.0000000 )       ( -0.0000000 )
                  (  0.0000000  0.0000000  1.0000000 )       ( -0.9250000 )


      isym = 22     inv. 180 deg rotation - cryst. axis [2,1,0]  

 cryst.   s(22) = (    -1         -1          0      )    f =(  0.0000000 )
                  (     0          1          0      )       ( -0.0000000 )
                  (     0          0          1      )       ( -0.5000000 )

 cart.    s(22) = ( -0.5000000 -0.8660254  0.0000000 )    f =(  0.0000000 )
                  ( -0.8660254  0.5000000  0.0000000 )       ( -0.0000000 )
                  (  0.0000000  0.0000000  1.0000000 )       ( -0.9250000 )


      isym = 23     inv. 180 deg rotation - cryst. axis [0,1,0]  

 cryst.   s(23) = (     1          1          0      )
                  (     0         -1          0      )
                  (     0          0          1      )

 cart.    s(23) = (  0.5000000  0.8660254  0.0000000 )
                  (  0.8660254 -0.5000000  0.0000000 )
                  (  0.0000000  0.0000000  1.0000000 )


      isym = 24     inv. 180 deg rotation - cryst. axis [1,1,0]  

 cryst.   s(24) = (     0         -1          0      )
                  (    -1          0          0      )
                  (     0          0          1      )

 cart.    s(24) = (  0.5000000 -0.8660254  0.0000000 )
                  ( -0.8660254 -0.5000000  0.0000000 )
                  (  0.0000000  0.0000000  1.0000000 )


     point group D_6h(6/mmm)
     there are 12 classes
     the character table:

       E     2C6   2C3   C2    3C2'  3C2'' i     2S3   2S6   s_h   3s_d  3s_v 
A_1g   1.00  1.00  1.00  1.00  1.00  1.00  1.00  1.00  1.00  1.00  1.00  1.00
A_2g   1.00  1.00  1.00  1.00 -1.00 -1.00  1.00  1.00  1.00  1.00 -1.00 -1.00
B_1g   1.00 -1.00  1.00 -1.00  1.00 -1.00  1.00 -1.00  1.00 -1.00  1.00 -1.00
B_2g   1.00 -1.00  1.00 -1.00 -1.00  1.00  1.00 -1.00  1.00 -1.00 -1.00  1.00
E_1g   2.00  1.00 -1.00 -2.00  0.00  0.00  2.00  1.00 -1.00 -2.00  0.00  0.00
E_2g   2.00 -1.00 -1.00  2.00  0.00  0.00  2.00 -1.00 -1.00  2.00  0.00  0.00
A_1u   1.00  1.00  1.00  1.00  1.00  1.00 -1.00 -1.00 -1.00 -1.00 -1.00 -1.00
A_2u   1.00  1.00  1.00  1.00 -1.00 -1.00 -1.00 -1.00 -1.00 -1.00  1.00  1.00
B_1u   1.00 -1.00  1.00 -1.00  1.00 -1.00 -1.00  1.00 -1.00  1.00 -1.00  1.00
B_2u   1.00 -1.00  1.00 -1.00 -1.00  1.00 -1.00  1.00 -1.00  1.00  1.00 -1.00
E_1u   2.00  1.00 -1.00 -2.00  0.00  0.00 -2.00 -1.00  1.00  2.00  0.00  0.00
E_2u   2.00 -1.00 -1.00  2.00  0.00  0.00 -2.00  1.00  1.00 -2.00  0.00  0.00

     the symmetry operations in each class and the name of the first element:

     E        1
          identity                                               
     2C6      5    6
           60 deg rotation - cryst. axis [0,0,1]                 
     2C3      7    8
          120 deg rotation - cryst. axis [0,0,1]                 
     C2       2
          180 deg rotation - cart. axis [0,0,1]                  
     3C2'     4   12   11
          180 deg rotation - cart. axis [1,0,0]                  
     3C2''    3    9   10
          180 deg rotation - cart. axis [0,1,0]                  
     i       13
          inversion                                              
     2S3     17   18
          inv.  60 deg rotation - cryst. axis [0,0,1]            
     2S6     19   20
          inv. 120 deg rotation - cryst. axis [0,0,1]            
     s_h     14
          inv. 180 deg rotation - cart. axis [0,0,1]             
     3s_d    16   24   23
          inv. 180 deg rotation - cart. axis [1,0,0]             
     3s_v    15   21   22
          inv. 180 deg rotation - cart. axis [0,1,0]             

   Cartesian axes

     site n.     atom                  positions (alat units)
         1           Zn  tau(   1) = (  -0.0000000   0.5773503   0.4625000  )
         2           Zn  tau(   2) = (   0.5000000   0.2886751   1.3875000  )

   Crystallographic axes

     site n.     atom                  positions (cryst. coord.)
         1           Zn  tau(   1) = (  0.3333333  0.6666667  0.2500000  )
         2           Zn  tau(   2) = (  0.6666667  0.3333333  0.7500000  )

     number of k points=    96  Marzari-Vanderbilt smearing, width (Ry)=  0.0005
                       cart. coord. in units 2pi/alat
        k(    1) = (   0.0000000   0.0000000   0.0000000), wk =   0.0007289
        k(    2) = (   0.0000000   0.0000000   0.0772201), wk =   0.0014577
        k(    3) = (   0.0000000   0.0000000   0.1544402), wk =   0.0014577
        k(    4) = (   0.0000000   0.0000000   0.2316602), wk =   0.0014577
        k(    5) = (   0.0000000   0.0824786   0.0000000), wk =   0.0043732
        k(    6) = (   0.0000000   0.0824786   0.0772201), wk =   0.0087464
        k(    7) = (   0.0000000   0.0824786   0.1544402), wk =   0.0087464
        k(    8) = (   0.0000000   0.0824786   0.2316602), wk =   0.0087464
        k(    9) = (   0.0000000   0.1649572   0.0000000), wk =   0.0043732
        k(   10) = (   0.0000000   0.1649572   0.0772201), wk =   0.0087464
        k(   11) = (   0.0000000   0.1649572   0.1544402), wk =   0.0087464
        k(   12) = (   0.0000000   0.1649572   0.2316602), wk =   0.0087464
        k(   13) = (   0.0000000   0.2474358   0.0000000), wk =   0.0043732
        k(   14) = (   0.0000000   0.2474358   0.0772201), wk =   0.0087464
        k(   15) = (   0.0000000   0.2474358   0.1544402), wk =   0.0087464
        k(   16) = (   0.0000000   0.2474358   0.2316602), wk =   0.0087464
        k(   17) = (   0.0000000   0.3299144   0.0000000), wk =   0.0043732
        k(   18) = (   0.0000000   0.3299144   0.0772201), wk =   0.0087464
        k(   19) = (   0.0000000   0.3299144   0.1544402), wk =   0.0087464
        k(   20) = (   0.0000000   0.3299144   0.2316602), wk =   0.0087464
        k(   21) = (   0.0000000   0.4123930   0.0000000), wk =   0.0043732
        k(   22) = (   0.0000000   0.4123930   0.0772201), wk =   0.0087464
        k(   23) = (   0.0000000   0.4123930   0.1544402), wk =   0.0087464
        k(   24) = (   0.0000000   0.4123930   0.2316602), wk =   0.0087464
        k(   25) = (   0.0000000   0.4948717   0.0000000), wk =   0.0043732
        k(   26) = (   0.0000000   0.4948717   0.0772201), wk =   0.0087464
        k(   27) = (   0.0000000   0.4948717   0.1544402), wk =   0.0087464
        k(   28) = (   0.0000000   0.4948717   0.2316602), wk =   0.0087464
        k(   29) = (   0.0000000  -0.5773503   0.0000000), wk =   0.0021866
        k(   30) = (   0.0000000  -0.5773503   0.0772201), wk =   0.0043732
        k(   31) = (   0.0000000  -0.5773503   0.1544402), wk =   0.0043732
        k(   32) = (   0.0000000  -0.5773503   0.2316602), wk =   0.0043732
        k(   33) = (   0.0714286   0.1237179   0.0000000), wk =   0.0043732
        k(   34) = (   0.0714286   0.1237179   0.0772201), wk =   0.0087464
        k(   35) = (   0.0714286   0.1237179   0.1544402), wk =   0.0087464
        k(   36) = (   0.0714286   0.1237179   0.2316602), wk =   0.0087464
        k(   37) = (   0.0714286   0.2061965   0.0000000), wk =   0.0087464
        k(   38) = (   0.0714286   0.2061965   0.0772201), wk =   0.0174927
        k(   39) = (   0.0714286   0.2061965   0.1544402), wk =   0.0174927
        k(   40) = (   0.0714286   0.2061965   0.2316602), wk =   0.0174927
        k(   41) = (   0.0714286   0.2886751   0.0000000), wk =   0.0087464
        k(   42) = (   0.0714286   0.2886751   0.0772201), wk =   0.0174927
        k(   43) = (   0.0714286   0.2886751   0.1544402), wk =   0.0174927
        k(   44) = (   0.0714286   0.2886751   0.2316602), wk =   0.0174927
        k(   45) = (   0.0714286   0.3711537   0.0000000), wk =   0.0087464
        k(   46) = (   0.0714286   0.3711537   0.0772201), wk =   0.0174927
        k(   47) = (   0.0714286   0.3711537   0.1544402), wk =   0.0174927
        k(   48) = (   0.0714286   0.3711537   0.2316602), wk =   0.0174927
        k(   49) = (   0.0714286   0.4536324   0.0000000), wk =   0.0087464
        k(   50) = (   0.0714286   0.4536324   0.0772201), wk =   0.0174927
        k(   51) = (   0.0714286   0.4536324   0.1544402), wk =   0.0174927
        k(   52) = (   0.0714286   0.4536324   0.2316602), wk =   0.0174927
        k(   53) = (   0.0714286   0.5361110   0.0000000), wk =   0.0087464
        k(   54) = (   0.0714286   0.5361110   0.0772201), wk =   0.0174927
        k(   55) = (   0.0714286   0.5361110   0.1544402), wk =   0.0174927
        k(   56) = (   0.0714286   0.5361110   0.2316602), wk =   0.0174927
        k(   57) = (   0.1428571   0.2474358   0.0000000), wk =   0.0043732
        k(   58) = (   0.1428571   0.2474358   0.0772201), wk =   0.0087464
        k(   59) = (   0.1428571   0.2474358   0.1544402), wk =   0.0087464
        k(   60) = (   0.1428571   0.2474358   0.2316602), wk =   0.0087464
        k(   61) = (   0.1428571   0.3299144   0.0000000), wk =   0.0087464
        k(   62) = (   0.1428571   0.3299144   0.0772201), wk =   0.0174927
        k(   63) = (   0.1428571   0.3299144   0.1544402), wk =   0.0174927
        k(   64) = (   0.1428571   0.3299144   0.2316602), wk =   0.0174927
        k(   65) = (   0.1428571   0.4123930   0.0000000), wk =   0.0087464
        k(   66) = (   0.1428571   0.4123930   0.0772201), wk =   0.0174927
        k(   67) = (   0.1428571   0.4123930   0.1544402), wk =   0.0174927
        k(   68) = (   0.1428571   0.4123930   0.2316602), wk =   0.0174927
        k(   69) = (   0.1428571   0.4948717   0.0000000), wk =   0.0087464
        k(   70) = (   0.1428571   0.4948717   0.0772201), wk =   0.0174927
        k(   71) = (   0.1428571   0.4948717   0.1544402), wk =   0.0174927
        k(   72) = (   0.1428571   0.4948717   0.2316602), wk =   0.0174927
        k(   73) = (   0.1428571   0.5773503   0.0000000), wk =   0.0043732
        k(   74) = (   0.1428571   0.5773503   0.0772201), wk =   0.0087464
        k(   75) = (   0.1428571   0.5773503   0.1544402), wk =   0.0087464
        k(   76) = (   0.1428571   0.5773503   0.2316602), wk =   0.0087464
        k(   77) = (   0.2142857   0.3711537   0.0000000), wk =   0.0043732
        k(   78) = (   0.2142857   0.3711537   0.0772201), wk =   0.0087464
        k(   79) = (   0.2142857   0.3711537   0.1544402), wk =   0.0087464
        k(   80) = (   0.2142857   0.3711537   0.2316602), wk =   0.0087464
        k(   81) = (   0.2142857   0.4536324   0.0000000), wk =   0.0087464
        k(   82) = (   0.2142857   0.4536324   0.0772201), wk =   0.0174927
        k(   83) = (   0.2142857   0.4536324   0.1544402), wk =   0.0174927
        k(   84) = (   0.2142857   0.4536324   0.2316602), wk =   0.0174927
        k(   85) = (   0.2142857   0.5361110   0.0000000), wk =   0.0087464
        k(   86) = (   0.2142857   0.5361110   0.0772201), wk =   0.0174927
        k(   87) = (   0.2142857   0.5361110   0.1544402), wk =   0.0174927
        k(   88) = (   0.2142857   0.5361110   0.2316602), wk =   0.0174927
        k(   89) = (   0.2857143   0.4948717   0.0000000), wk =   0.0043732
        k(   90) = (   0.2857143   0.4948717   0.0772201), wk =   0.0087464
        k(   91) = (   0.2857143   0.4948717   0.1544402), wk =   0.0087464
        k(   92) = (   0.2857143   0.4948717   0.2316602), wk =   0.0087464
        k(   93) = (   0.2857143   0.5773503   0.0000000), wk =   0.0043732
        k(   94) = (   0.2857143   0.5773503   0.0772201), wk =   0.0087464
        k(   95) = (   0.2857143   0.5773503   0.1544402), wk =   0.0087464
        k(   96) = (   0.2857143   0.5773503   0.2316602), wk =   0.0087464

                       cryst. coord.
        k(    1) = (   0.0000000   0.0000000   0.0000000), wk =   0.0007289
        k(    2) = (   0.0000000   0.0000000   0.1428571), wk =   0.0014577
        k(    3) = (   0.0000000   0.0000000   0.2857143), wk =   0.0014577
        k(    4) = (   0.0000000   0.0000000   0.4285714), wk =   0.0014577
        k(    5) = (   0.0000000   0.0714286   0.0000000), wk =   0.0043732
        k(    6) = (   0.0000000   0.0714286   0.1428571), wk =   0.0087464
        k(    7) = (   0.0000000   0.0714286   0.2857143), wk =   0.0087464
        k(    8) = (   0.0000000   0.0714286   0.4285714), wk =   0.0087464
        k(    9) = (   0.0000000   0.1428571   0.0000000), wk =   0.0043732
        k(   10) = (   0.0000000   0.1428571   0.1428571), wk =   0.0087464
        k(   11) = (   0.0000000   0.1428571   0.2857143), wk =   0.0087464
        k(   12) = (   0.0000000   0.1428571   0.4285714), wk =   0.0087464
        k(   13) = (   0.0000000   0.2142857   0.0000000), wk =   0.0043732
        k(   14) = (   0.0000000   0.2142857   0.1428571), wk =   0.0087464
        k(   15) = (   0.0000000   0.2142857   0.2857143), wk =   0.0087464
        k(   16) = (   0.0000000   0.2142857   0.4285714), wk =   0.0087464
        k(   17) = (   0.0000000   0.2857143   0.0000000), wk =   0.0043732
        k(   18) = (   0.0000000   0.2857143   0.1428571), wk =   0.0087464
        k(   19) = (   0.0000000   0.2857143   0.2857143), wk =   0.0087464
        k(   20) = (   0.0000000   0.2857143   0.4285714), wk =   0.0087464
        k(   21) = (   0.0000000   0.3571429   0.0000000), wk =   0.0043732
        k(   22) = (   0.0000000   0.3571429   0.1428571), wk =   0.0087464
        k(   23) = (   0.0000000   0.3571429   0.2857143), wk =   0.0087464
        k(   24) = (   0.0000000   0.3571429   0.4285714), wk =   0.0087464
        k(   25) = (   0.0000000   0.4285714   0.0000000), wk =   0.0043732
        k(   26) = (   0.0000000   0.4285714   0.1428571), wk =   0.0087464
        k(   27) = (   0.0000000   0.4285714   0.2857143), wk =   0.0087464
        k(   28) = (   0.0000000   0.4285714   0.4285714), wk =   0.0087464
        k(   29) = (   0.0000000  -0.5000000   0.0000000), wk =   0.0021866
        k(   30) = (   0.0000000  -0.5000000   0.1428571), wk =   0.0043732
        k(   31) = (   0.0000000  -0.5000000   0.2857143), wk =   0.0043732
        k(   32) = (   0.0000000  -0.5000000   0.4285714), wk =   0.0043732
        k(   33) = (   0.0714286   0.0714286   0.0000000), wk =   0.0043732
        k(   34) = (   0.0714286   0.0714286   0.1428571), wk =   0.0087464
        k(   35) = (   0.0714286   0.0714286   0.2857143), wk =   0.0087464
        k(   36) = (   0.0714286   0.0714286   0.4285714), wk =   0.0087464
        k(   37) = (   0.0714286   0.1428571   0.0000000), wk =   0.0087464
        k(   38) = (   0.0714286   0.1428571   0.1428571), wk =   0.0174927
        k(   39) = (   0.0714286   0.1428571   0.2857143), wk =   0.0174927
        k(   40) = (   0.0714286   0.1428571   0.4285714), wk =   0.0174927
        k(   41) = (   0.0714286   0.2142857   0.0000000), wk =   0.0087464
        k(   42) = (   0.0714286   0.2142857   0.1428571), wk =   0.0174927
        k(   43) = (   0.0714286   0.2142857   0.2857143), wk =   0.0174927
        k(   44) = (   0.0714286   0.2142857   0.4285714), wk =   0.0174927
        k(   45) = (   0.0714286   0.2857143   0.0000000), wk =   0.0087464
        k(   46) = (   0.0714286   0.2857143   0.1428571), wk =   0.0174927
        k(   47) = (   0.0714286   0.2857143   0.2857143), wk =   0.0174927
        k(   48) = (   0.0714286   0.2857143   0.4285714), wk =   0.0174927
        k(   49) = (   0.0714286   0.3571429   0.0000000), wk =   0.0087464
        k(   50) = (   0.0714286   0.3571429   0.1428571), wk =   0.0174927
        k(   51) = (   0.0714286   0.3571429   0.2857143), wk =   0.0174927
        k(   52) = (   0.0714286   0.3571429   0.4285714), wk =   0.0174927
        k(   53) = (   0.0714286   0.4285714   0.0000000), wk =   0.0087464
        k(   54) = (   0.0714286   0.4285714   0.1428571), wk =   0.0174927
        k(   55) = (   0.0714286   0.4285714   0.2857143), wk =   0.0174927
        k(   56) = (   0.0714286   0.4285714   0.4285714), wk =   0.0174927
        k(   57) = (   0.1428571   0.1428571   0.0000000), wk =   0.0043732
        k(   58) = (   0.1428571   0.1428571   0.1428571), wk =   0.0087464
        k(   59) = (   0.1428571   0.1428571   0.2857143), wk =   0.0087464
        k(   60) = (   0.1428571   0.1428571   0.4285714), wk =   0.0087464
        k(   61) = (   0.1428571   0.2142857   0.0000000), wk =   0.0087464
        k(   62) = (   0.1428571   0.2142857   0.1428571), wk =   0.0174927
        k(   63) = (   0.1428571   0.2142857   0.2857143), wk =   0.0174927
        k(   64) = (   0.1428571   0.2142857   0.4285714), wk =   0.0174927
        k(   65) = (   0.1428571   0.2857143   0.0000000), wk =   0.0087464
        k(   66) = (   0.1428571   0.2857143   0.1428571), wk =   0.0174927
        k(   67) = (   0.1428571   0.2857143   0.2857143), wk =   0.0174927
        k(   68) = (   0.1428571   0.2857143   0.4285714), wk =   0.0174927
        k(   69) = (   0.1428571   0.3571429   0.0000000), wk =   0.0087464
        k(   70) = (   0.1428571   0.3571429   0.1428571), wk =   0.0174927
        k(   71) = (   0.1428571   0.3571429   0.2857143), wk =   0.0174927
        k(   72) = (   0.1428571   0.3571429   0.4285714), wk =   0.0174927
        k(   73) = (   0.1428571   0.4285714   0.0000000), wk =   0.0043732
        k(   74) = (   0.1428571   0.4285714   0.1428571), wk =   0.0087464
        k(   75) = (   0.1428571   0.4285714   0.2857143), wk =   0.0087464
        k(   76) = (   0.1428571   0.4285714   0.4285714), wk =   0.0087464
        k(   77) = (   0.2142857   0.2142857   0.0000000), wk =   0.0043732
        k(   78) = (   0.2142857   0.2142857   0.1428571), wk =   0.0087464
        k(   79) = (   0.2142857   0.2142857   0.2857143), wk =   0.0087464
        k(   80) = (   0.2142857   0.2142857   0.4285714), wk =   0.0087464
        k(   81) = (   0.2142857   0.2857143   0.0000000), wk =   0.0087464
        k(   82) = (   0.2142857   0.2857143   0.1428571), wk =   0.0174927
        k(   83) = (   0.2142857   0.2857143   0.2857143), wk =   0.0174927
        k(   84) = (   0.2142857   0.2857143   0.4285714), wk =   0.0174927
        k(   85) = (   0.2142857   0.3571429   0.0000000), wk =   0.0087464
        k(   86) = (   0.2142857   0.3571429   0.1428571), wk =   0.0174927
        k(   87) = (   0.2142857   0.3571429   0.2857143), wk =   0.0174927
        k(   88) = (   0.2142857   0.3571429   0.4285714), wk =   0.0174927
        k(   89) = (   0.2857143   0.2857143   0.0000000), wk =   0.0043732
        k(   90) = (   0.2857143   0.2857143   0.1428571), wk =   0.0087464
        k(   91) = (   0.2857143   0.2857143   0.2857143), wk =   0.0087464
        k(   92) = (   0.2857143   0.2857143   0.4285714), wk =   0.0087464
        k(   93) = (   0.2857143   0.3571429   0.0000000), wk =   0.0043732
        k(   94) = (   0.2857143   0.3571429   0.1428571), wk =   0.0087464
        k(   95) = (   0.2857143   0.3571429   0.2857143), wk =   0.0087464
        k(   96) = (   0.2857143   0.3571429   0.4285714), wk =   0.0087464

     Dense  grid:    16435 G-vectors     FFT dimensions: (  27,  27,  50)

     Dynamical RAM for                 wfc:       0.04 MB

     Dynamical RAM for     wfc (w. buffer):       3.43 MB

     Dynamical RAM for           str. fact:       0.02 MB

     Dynamical RAM for           local pot:       0.00 MB

     Dynamical RAM for          nlocal pot:       0.08 MB

     Dynamical RAM for                qrad:       1.34 MB

     Dynamical RAM for          rho,v,vnew:       0.24 MB

     Dynamical RAM for               rhoin:       0.08 MB

     Dynamical RAM for            rho*nmix:       0.57 MB

     Dynamical RAM for           G-vectors:       0.08 MB

     Dynamical RAM for          h,s,v(r/c):       0.05 MB

     Dynamical RAM for          <psi|beta>:       0.01 MB

     Dynamical RAM for                 psi:       0.07 MB

     Dynamical RAM for                hpsi:       0.07 MB

     Dynamical RAM for                spsi:       0.07 MB

     Dynamical RAM for      wfcinit/wfcrot:       0.08 MB

     Dynamical RAM for           addusdens:       1.70 MB

     Estimated static dynamical RAM per process >       5.44 MB

     Estimated max dynamical RAM per process >       7.72 MB

     Estimated total dynamical RAM >     208.09 MB

     Check: negative core charge=   -0.000003
     Generating pointlists ...
     new r_m :   0.4125 (alat units)  2.0831 (a.u.) for type    1

     The initial density is read from file :
     ./out/Zn.save/charge-density


     starting charge      24.1304, renormalised to      24.0000

     negative rho (up, down):  7.164E-05 7.164E-05
     Starting wfcs from file
     Checking if some PAW data can be deallocated... 

     total cpu time spent up to now is        0.6 secs

     Self-consistent Calculation

     iteration #  1     ecut=    70.00 Ry     beta= 0.70
     Davidson diagonalization with overlap

---- Real-time Memory Report at c_bands before calling an iterative solver
            58 MiB given to the printing process from OS
             0 MiB allocation reported by mallinfo(arena+hblkhd)
        149456 MiB available memory on the node where the printing process lives
------------------
     ethr =  1.00E-05,  avg # of iterations =  6.5

     total cpu time spent up to now is        2.1 secs

     total energy              =    -487.42909352 Ry
     estimated scf accuracy    <       0.01352903 Ry

     total magnetization       =    -0.00 Bohr mag/cell
     absolute magnetization    =     0.00 Bohr mag/cell

     iteration #  2     ecut=    70.00 Ry     beta= 0.70
     Davidson diagonalization with overlap

---- Real-time Memory Report at c_bands before calling an iterative solver
            79 MiB given to the printing process from OS
             0 MiB allocation reported by mallinfo(arena+hblkhd)
        149174 MiB available memory on the node where the printing process lives
------------------
     ethr =  5.64E-05,  avg # of iterations =  3.0

     total cpu time spent up to now is        3.1 secs

     total energy              =    -487.43857280 Ry
     estimated scf accuracy    <       0.01894480 Ry

     total magnetization       =    -0.00 Bohr mag/cell
     absolute magnetization    =     0.00 Bohr mag/cell

     iteration #  3     ecut=    70.00 Ry     beta= 0.70
     Davidson diagonalization with overlap

---- Real-time Memory Report at c_bands before calling an iterative solver
            81 MiB given to the printing process from OS
             0 MiB allocation reported by mallinfo(arena+hblkhd)
        149155 MiB available memory on the node where the printing process lives
------------------
     ethr =  5.64E-05,  avg # of iterations =  2.0

     total cpu time spent up to now is        4.0 secs

     total energy              =    -487.44650456 Ry
     estimated scf accuracy    <       0.00029216 Ry

     total magnetization       =    -0.00 Bohr mag/cell
     absolute magnetization    =     0.00 Bohr mag/cell

     iteration #  4     ecut=    70.00 Ry     beta= 0.70
     Davidson diagonalization with overlap

---- Real-time Memory Report at c_bands before calling an iterative solver
            81 MiB given to the printing process from OS
             0 MiB allocation reported by mallinfo(arena+hblkhd)
        149143 MiB available memory on the node where the printing process lives
------------------
     ethr =  1.22E-06,  avg # of iterations =  4.8

     total cpu time spent up to now is        5.1 secs

     total energy              =    -487.44668496 Ry
     estimated scf accuracy    <       0.00005506 Ry

     total magnetization       =    -0.00 Bohr mag/cell
     absolute magnetization    =     0.00 Bohr mag/cell

     iteration #  5     ecut=    70.00 Ry     beta= 0.70
     Davidson diagonalization with overlap

---- Real-time Memory Report at c_bands before calling an iterative solver
            82 MiB given to the printing process from OS
             0 MiB allocation reported by mallinfo(arena+hblkhd)
        149137 MiB available memory on the node where the printing process lives
------------------
     ethr =  2.29E-07,  avg # of iterations =  2.3
 
     Magnetic moment per site  (integrated on atomic sphere of radius R)
     atom   1 (R=0.413)  charge= 10.7064  magn= -0.0000
     atom   2 (R=0.413)  charge= 10.7064  magn= -0.0000

     total cpu time spent up to now is        6.1 secs

     End of self-consistent calculation

 ------ SPIN UP ------------


          k = 0.0000 0.0000 0.0000 (  2065 PWs)   bands (ev):

     0.6448   2.4907   3.1969   3.4234   3.4234   3.4742   3.4742   3.7949
     3.7949   4.0062   4.0062   7.4167   8.0274  24.6551  28.1505  28.2355

     occupation numbers 
     1.0000   1.0000   1.0000   1.0000   1.0000   1.0000   1.0000   1.0000
     1.0000   1.0000   1.0000   1.0000   1.0000   0.0000   0.0000   0.0000

          k = 0.0000 0.0000 0.0772 (  2047 PWs)   bands (ev):

     0.7685   2.4768   3.1991   3.4216   3.4216   3.4685   3.4685   3.8097
     3.8097   3.9990   3.9990   6.0043   9.7112  22.7080  28.3584  28.3584

     occupation numbers 
     1.0000   1.0000   1.0000   1.0000   1.0000   1.0000   1.0000   1.0000
     1.0000   1.0000   1.0000   1.0000   1.0000   0.0000   0.0000   0.0000

          k = 0.0000 0.0000 0.1544 (  2029 PWs)   bands (ev):

     1.1265   2.4059   3.2202   3.4201   3.4201   3.4540   3.4540   3.8477
     3.8477   3.9772   3.9772   4.6456  11.9096  19.8173  28.7134  28.7134

     occupation numbers 
     1.0000   1.0000   1.0000   1.0000   1.0000   1.0000   1.0000   1.0000
     1.0000   1.0000   1.0000   1.0000   0.0000   0.0000   0.0000   0.0000

          k = 0.0000 0.0000 0.2317 (  2065 PWs)   bands (ev):

     1.6570   2.1613   3.3266   3.4247   3.4247   3.4372   3.4372   3.7227
     3.8957   3.8957   3.9415   3.9415  14.3454  16.9928  29.2421  29.2421

     occupation numbers 
     1.0000   1.0000   1.0000   1.0000   1.0000   1.0000   1.0000   1.0000
     1.0000   1.0000   1.0000   1.0000   0.0000   0.0000   0.0000   0.0000

          k = 0.0000 0.0825 0.0000 (  2047 PWs)   bands (ev):

     0.7951   2.5559   3.2116   3.4093   3.4583   3.4586   3.5076   3.7628
     3.7810   3.9229   4.0081   7.6560   8.1061  24.8153  25.7833  26.9717

     occupation numbers 
     1.0000   1.0000   1.0000   1.0000   1.0000   1.0000   1.0000   1.0000
     1.0000   1.0000   1.0000   1.0000   1.0000   0.0000   0.0000   0.0000

          k = 0.0000 0.0825 0.0772 (  2045 PWs)   bands (ev):

     0.9179   2.5460   3.2128   3.4052   3.4512   3.4563   3.5017   3.7818
     3.7970   3.9080   4.0001   6.1852   9.8530  22.8455  25.9288  27.1022

     occupation numbers 
     1.0000   1.0000   1.0000   1.0000   1.0000   1.0000   1.0000   1.0000
     1.0000   1.0000   1.0000   1.0000   1.0000   0.0000   0.0000   0.0000

          k = 0.0000 0.0825 0.1544 (  2044 PWs)   bands (ev):

     1.2728   2.4895   3.2277   3.4004   3.4333   3.4539   3.4870   3.8176
     3.8378   3.8607   3.9763   4.8532  12.0528  19.9546  26.3028  27.4897

     occupation numbers 
     1.0000   1.0000   1.0000   1.0000   1.0000   1.0000   1.0000   1.0000
     1.0000   1.0000   1.0000   1.0000   0.0000   0.0000   0.0000   0.0000

          k = 0.0000 0.0825 0.2317 (  2054 PWs)   bands (ev):

     1.7943   2.2741   3.3092   3.4066   3.4120   3.4579   3.4702   3.6049
     3.8890   3.9203   3.9380   4.1030  14.4870  17.1323  26.9144  27.7545

     occupation numbers 
     1.0000   1.0000   1.0000   1.0000   1.0000   1.0000   1.0000   1.0000
     1.0000   1.0000   1.0000   1.0000   0.0000   0.0000   0.0000   0.0000

          k = 0.0000 0.1650 0.0000 (  2033 PWs)   bands (ev):

     1.2359   2.7209   3.2368   3.3801   3.4452   3.5585   3.6022   3.6296
     3.7443   3.7782   4.0108   8.3093   8.3599  22.4392  25.2475  25.3233

     occupation numbers 
     1.0000   1.0000   1.0000   1.0000   1.0000   1.0000   1.0000   1.0000
     1.0000   1.0000   1.0000   1.0000   1.0000   0.0000   0.0000   0.0000

          k = 0.0000 0.1650 0.0772 (  2046 PWs)   bands (ev):

     1.3548   2.7209   3.2388   3.3685   3.4267   3.5540   3.5956   3.6420
     3.7648   3.7828   4.0012   6.6587  10.2841  22.5179  23.3162  25.4619

     occupation numbers 
     1.0000   1.0000   1.0000   1.0000   1.0000   1.0000   1.0000   1.0000
     1.0000   1.0000   1.0000   1.0000   1.0000   0.0000   0.0000   0.0000

          k = 0.0000 0.1650 0.1544 (  2041 PWs)   bands (ev):

     1.6951   2.7013   3.2436   3.3499   3.3907   3.5482   3.5800   3.6071
     3.8138   3.8417   3.9730   5.3091  12.4814  20.3467  22.9850  25.5549

     occupation numbers 
     1.0000   1.0000   1.0000   1.0000   1.0000   1.0000   1.0000   1.0000
     1.0000   1.0000   1.0000   1.0000   0.0000   0.0000   0.0000   0.0000

          k = 0.0000 0.1650 0.2317 (  2049 PWs)   bands (ev):

     2.1772   2.5685   3.2647   3.3240   3.3830   3.4790   3.5506   3.5627
     3.8726   3.9284   4.0035   4.4082  14.9082  17.5433  23.6016  24.4654

     occupation numbers 
     1.0000   1.0000   1.0000   1.0000   1.0000   1.0000   1.0000   1.0000
     1.0000   1.0000   1.0000   1.0000   0.0000   0.0000   0.0000   0.0000

          k = 0.0000 0.2474 0.0000 (  2042 PWs)   bands (ev):

     1.9127   2.8722   3.2714   3.3516   3.4075   3.5526   3.6729   3.6953
     3.7068   3.7421   4.0108   8.8377   9.2722  19.2234  23.8653  24.7687

     occupation numbers 
     1.0000   1.0000   1.0000   1.0000   1.0000   1.0000   1.0000   1.0000
     1.0000   1.0000   1.0000   1.0000   1.0000   0.0000   0.0000   0.0000

          k = 0.0000 0.2474 0.0772 (  2040 PWs)   bands (ev):

     2.0153   2.8810   3.2692   3.3278   3.4008   3.5462   3.6760   3.7200
     3.7265   3.7521   3.9997   7.3570  11.0118  19.3447  23.6801  23.8205

     occupation numbers 
     1.0000   1.0000   1.0000   1.0000   1.0000   1.0000   1.0000   1.0000
     1.0000   1.0000   1.0000   1.0000   0.0000   0.0000   0.0000   0.0000

          k = 0.0000 0.2474 0.1544 (  2046 PWs)   bands (ev):

     2.2939   2.8946   3.2465   3.2750   3.4022   3.5251   3.6685   3.7140
     3.8023   3.8712   3.9678   5.9627  13.1898  19.6616  21.1133  22.3893

     occupation numbers 
     1.0000   1.0000   1.0000   1.0000   1.0000   1.0000   1.0000   1.0000
     1.0000   1.0000   1.0000   1.0000   0.0000   0.0000   0.0000   0.0000

          k = 0.0000 0.2474 0.2317 (  2042 PWs)   bands (ev):

     2.6352   2.8511   3.2086   3.2224   3.4364   3.4856   3.6761   3.6938
     3.8617   3.9196   4.2110   4.8938  15.5932  18.1750  20.4537  21.2936

     occupation numbers 
     1.0000   1.0000   1.0000   1.0000   1.0000   1.0000   1.0000   1.0000
     1.0000   1.0000   1.0000   1.0000   0.0000   0.0000   0.0000   0.0000

          k = 0.0000 0.3299 0.0000 (  2036 PWs)   bands (ev):

     2.5569   2.8766   3.2029   3.3609   3.4849   3.5759   3.6446   3.8768
     3.9022   3.9256   4.0074   9.5982  10.4800  16.2298  21.8396  22.7602

     occupation numbers 
     1.0000   1.0000   1.0000   1.0000   1.0000   1.0000   1.0000   1.0000
     1.0000   1.0000   1.0000   1.0000   1.0000   0.0000   0.0000   0.0000

          k = 0.0000 0.3299 0.0772 (  2033 PWs)   bands (ev):

     2.5953   2.8855   3.1970   3.3232   3.4450   3.6578   3.7149   3.8790
     3.8945   3.9531   3.9983   8.2932  12.0253  16.3545  20.7392  22.8172

     occupation numbers 
     1.0000   1.0000   1.0000   1.0000   1.0000   1.0000   1.0000   1.0000
     1.0000   1.0000   1.0000   1.0000   0.0000   0.0000   0.0000   0.0000

          k = 0.0000 0.3299 0.1544 (  2039 PWs)   bands (ev):

     2.6887   2.9009   3.1737   3.2105   3.5298   3.6949   3.7779   3.8561
     3.9001   3.9755   4.2221   6.8795  14.1526  16.7211  19.4539  21.8515

     occupation numbers 
     1.0000   1.0000   1.0000   1.0000   1.0000   1.0000   1.0000   1.0000
     1.0000   1.0000   1.0000   1.0000   0.0000   0.0000   0.0000   0.0000

          k = 0.0000 0.3299 0.2317 (  2025 PWs)   bands (ev):

     2.7971   2.8810   3.1381   3.1472   3.6364   3.7256   3.7484   3.8068
     3.9213   3.9477   4.8231   5.7142  16.4368  17.2653  18.4411  19.3020

     occupation numbers 
     1.0000   1.0000   1.0000   1.0000   1.0000   1.0000   1.0000   1.0000
     1.0000   1.0000   1.0000   1.0000   0.0000   0.0000   0.0000   0.0000

          k = 0.0000 0.4124 0.0000 (  2036 PWs)   bands (ev):

     2.7352   2.8223   3.0512   3.4678   3.4918   3.6011   3.7061   4.0022
     4.0338   4.0524   4.9761  10.6366  11.8944  13.5432  19.1041  20.2527

     occupation numbers 
     1.0000   1.0000   1.0000   1.0000   1.0000   1.0000   1.0000   1.0000
     1.0000   1.0000   1.0000   1.0000   0.0000   0.0000   0.0000   0.0000

          k = 0.0000 0.4124 0.0772 (  2045 PWs)   bands (ev):

     2.7317   2.8163   3.0700   3.3388   3.5453   3.6188   3.8152   3.9741
     4.0361   4.0587   5.0678   9.4833  13.2165  13.7063  18.0682  21.4095

     occupation numbers 
     1.0000   1.0000   1.0000   1.0000   1.0000   1.0000   1.0000   1.0000
     1.0000   1.0000   1.0000   1.0000   0.0000   0.0000   0.0000   0.0000

          k = 0.0000 0.4124 0.1544 (  2041 PWs)   bands (ev):

     2.7337   2.8185   3.0806   3.1785   3.6658   3.6689   3.9104   3.9161
     4.0421   4.0620   5.3940   8.0954  13.9925  15.1716  16.9870  22.1705

     occupation numbers 
     1.0000   1.0000   1.0000   1.0000   1.0000   1.0000   1.0000   1.0000
     1.0000   1.0000   1.0000   1.0000   0.0000   0.0000   0.0000   0.0000

          k = 0.0000 0.4124 0.2317 (  2029 PWs)   bands (ev):

     2.7642   2.8065   3.0694   3.0845   3.7430   3.8056   3.8286   3.9050
     4.0503   4.0580   6.0152   6.9250  14.5996  15.3602  18.0068  20.3245

     occupation numbers 
     1.0000   1.0000   1.0000   1.0000   1.0000   1.0000   1.0000   1.0000
     1.0000   1.0000   1.0000   1.0000   0.0000   0.0000   0.0000   0.0000

          k = 0.0000 0.4949 0.0000 (  2044 PWs)   bands (ev):

     2.7087   2.7885   2.9602   3.4343   3.5464   3.5719   3.8374   3.9978
     4.1431   4.1618   6.5580  10.6088  12.5229  13.4483  16.6656  18.0275

     occupation numbers 
     1.0000   1.0000   1.0000   1.0000   1.0000   1.0000   1.0000   1.0000
     1.0000   1.0000   1.0000   1.0000   0.0000   0.0000   0.0000   0.0000

          k = 0.0000 0.4949 0.0772 (  2044 PWs)   bands (ev):

     2.7135   2.7557   2.9935   3.3227   3.5915   3.6026   3.9162   3.9742
     4.1446   4.1619   6.6619  10.3655  11.7861  14.4063  16.0677  19.1768

     occupation numbers 
     1.0000   1.0000   1.0000   1.0000   1.0000   1.0000   1.0000   1.0000
     1.0000   1.0000   1.0000   1.0000   0.0000   0.0000   0.0000   0.0000

          k = 0.0000 0.4949 0.1544 (  2040 PWs)   bands (ev):

     2.7051   2.7458   3.0196   3.1534   3.6470   3.7360   3.9107   4.0053
     4.1483   4.1609   6.9914   9.4413  11.7352  13.9713  17.2524  20.8385

     occupation numbers 
     1.0000   1.0000   1.0000   1.0000   1.0000   1.0000   1.0000   1.0000
     1.0000   1.0000   1.0000   1.0000   0.0000   0.0000   0.0000   0.0000

          k = 0.0000 0.4949 0.2317 (  2029 PWs)   bands (ev):

     2.7152   2.7428   3.0188   3.0442   3.7290   3.8229   3.8918   3.9978
     4.1531   4.1577   7.5743   8.4103  12.2291  13.0089  19.3409  21.2090

     occupation numbers 
     1.0000   1.0000   1.0000   1.0000   1.0000   1.0000   1.0000   1.0000
     1.0000   1.0000   1.0000   1.0000   0.0000   0.0000   0.0000   0.0000

          k = 0.0000-0.5774 0.0000 (  2054 PWs)   bands (ev):

     2.6896   2.7748   2.9301   3.4139   3.5616   3.5744   3.8798   3.9960
     4.1820   4.2022   8.1782   8.8416  13.6352  14.5438  15.0734  16.7073

     occupation numbers 
     1.0000   1.0000   1.0000   1.0000   1.0000   1.0000   1.0000   1.0000
     1.0000   1.0000   1.0000   1.0000   0.0000   0.0000   0.0000   0.0000

          k = 0.0000-0.5774 0.0772 (  2036 PWs)   bands (ev):

     2.6986   2.7330   2.9681   3.3125   3.5818   3.6237   3.9527   3.9728
     4.1834   4.2013   8.2857   8.9003  12.9931  13.2375  16.6481  17.5662

     occupation numbers 
     1.0000   1.0000   1.0000   1.0000   1.0000   1.0000   1.0000   1.0000
     1.0000   1.0000   1.0000   1.0000   0.0000   0.0000   0.0000   0.0000

          k = 0.0000-0.5774 0.1544 (  2046 PWs)   bands (ev):

     2.6920   2.7171   2.9985   3.1435   3.6390   3.7576   3.9090   4.0370
     4.1868   4.1989   8.5935   9.0597  11.9474  12.0240  18.6517  19.2531

     occupation numbers 
     1.0000   1.0000   1.0000   1.0000   1.0000   1.0000   1.0000   1.0000
     1.0000   1.0000   1.0000   1.0000   0.0000   0.0000   0.0000   0.0000

          k = 0.0000-0.5774 0.2317 (  2048 PWs)   bands (ev):

     2.6956   2.7191   3.0008   3.0301   3.7233   3.8196   3.9177   4.0274
     4.1910   4.1952   9.0038   9.1974  11.2070  11.2466  20.5941  20.8958

     occupation numbers 
     1.0000   1.0000   1.0000   1.0000   1.0000   1.0000   1.0000   1.0000
     1.0000   1.0000   1.0000   1.0000   0.0000   0.0000   0.0000   0.0000

          k = 0.0714 0.1237 0.0000 (  2029 PWs)   bands (ev):

     1.0912   2.6730   3.2310   3.3903   3.4268   3.5307   3.5791   3.7030
     3.7156   3.8317   4.0069   8.1002   8.2726  24.0805  24.2634  25.1174

     occupation numbers 
     1.0000   1.0000   1.0000   1.0000   1.0000   1.0000   1.0000   1.0000
     1.0000   1.0000   1.0000   1.0000   1.0000   0.0000   0.0000   0.0000

          k = 0.0714 0.1237 0.0772 (  2042 PWs)   bands (ev):

     1.2118   2.6702   3.2326   3.3787   3.4166   3.5268   3.5725   3.7049
     3.7460   3.8271   3.9983   6.5089  10.1397  23.0893  24.2095  24.4566

     occupation numbers 
     1.0000   1.0000   1.0000   1.0000   1.0000   1.0000   1.0000   1.0000
     1.0000   1.0000   1.0000   1.0000   1.0000   0.0000   0.0000   0.0000

          k = 0.0714 0.1237 0.1544 (  2053 PWs)   bands (ev):

     1.5581   2.6396   3.2400   3.3630   3.3899   3.5213   3.5573   3.6615
     3.8265   3.8385   3.9734   5.1698  12.3389  20.2220  24.5943  24.8142

     occupation numbers 
     1.0000   1.0000   1.0000   1.0000   1.0000   1.0000   1.0000   1.0000
     1.0000   1.0000   1.0000   1.0000   0.0000   0.0000   0.0000   0.0000

          k = 0.0714 0.1237 0.2317 (  2049 PWs)   bands (ev):

     2.0565   2.4805   3.2784   3.3505   3.3764   3.4882   3.5384   3.5410
     3.8809   3.9241   3.9778   4.3151  14.7686  17.4080  25.2283  25.4287

     occupation numbers 
     1.0000   1.0000   1.0000   1.0000   1.0000   1.0000   1.0000   1.0000
     1.0000   1.0000   1.0000   1.0000   0.0000   0.0000   0.0000   0.0000

          k = 0.0714 0.2062 0.0000 (  2036 PWs)   bands (ev):

     1.6578   2.8496   3.2337   3.3621   3.4371   3.5024   3.6472   3.6650
     3.7226   3.7678   4.0027   8.6407   8.9014  20.8913  22.7427  25.5289

     occupation numbers 
     1.0000   1.0000   1.0000   1.0000   1.0000   1.0000   1.0000   1.0000
     1.0000   1.0000   1.0000   1.0000   1.0000   0.0000   0.0000   0.0000

          k = 0.0714 0.2062 0.0772 (  2041 PWs)   bands (ev):

     1.7699   2.8570   3.2406   3.3403   3.3977   3.5140   3.6511   3.6935
     3.7168   3.7868   3.9942   7.0862  10.7212  21.0085  22.8346  23.7063

     occupation numbers 
     1.0000   1.0000   1.0000   1.0000   1.0000   1.0000   1.0000   1.0000
     1.0000   1.0000   1.0000   1.0000   1.0000   0.0000   0.0000   0.0000

          k = 0.0714 0.2062 0.1544 (  2041 PWs)   bands (ev):

     2.0842   2.8647   3.2533   3.2938   3.3395   3.4894   3.6390   3.6958
     3.8124   3.8424   3.9730   5.7085  12.9087  20.6519  21.5200  23.3002

     occupation numbers 
     1.0000   1.0000   1.0000   1.0000   1.0000   1.0000   1.0000   1.0000
     1.0000   1.0000   1.0000   1.0000   0.0000   0.0000   0.0000   0.0000

          k = 0.0714 0.2062 0.2317 (  2049 PWs)   bands (ev):

     2.5033   2.7974   3.2323   3.2481   3.3426   3.4138   3.6500   3.6722
     3.8708   3.9152   4.1224   4.6983  15.3242  17.9414  22.0745  22.9403

     occupation numbers 
     1.0000   1.0000   1.0000   1.0000   1.0000   1.0000   1.0000   1.0000
     1.0000   1.0000   1.0000   1.0000   0.0000   0.0000   0.0000   0.0000

          k = 0.0714 0.2887 0.0000 (  2033 PWs)   bands (ev):

     2.3711   2.9355   3.2914   3.2983   3.3479   3.5738   3.5837   3.7000
     3.8313   3.9588   3.9969   9.2679   9.9793  17.7892  21.5346  23.3842

     occupation numbers 
     1.0000   1.0000   1.0000   1.0000   1.0000   1.0000   1.0000   1.0000
     1.0000   1.0000   1.0000   1.0000   1.0000   0.0000   0.0000   0.0000

          k = 0.0714 0.2887 0.0772 (  2036 PWs)   bands (ev):

     2.4455   2.9474   3.2608   3.3036   3.3347   3.5620   3.6642   3.6993
     3.8470   3.9332   4.0155   7.8993  11.5968  17.9136  21.6604  22.2760

     occupation numbers 
     1.0000   1.0000   1.0000   1.0000   1.0000   1.0000   1.0000   1.0000
     1.0000   1.0000   1.0000   1.0000   0.0000   0.0000   0.0000   0.0000

          k = 0.0714 0.2887 0.1544 (  2041 PWs)   bands (ev):

     2.6298   2.9728   3.2045   3.2423   3.3868   3.5366   3.6980   3.8290
     3.8547   3.9244   4.1054   6.4920  13.7511  18.2730  20.9815  21.4718

     occupation numbers 
     1.0000   1.0000   1.0000   1.0000   1.0000   1.0000   1.0000   1.0000
     1.0000   1.0000   1.0000   1.0000   0.0000   0.0000   0.0000   0.0000

          k = 0.0714 0.2887 0.2317 (  2032 PWs)   bands (ev):

     2.8272   2.9549   3.1622   3.1927   3.4440   3.4959   3.7331   3.7899
     3.9092   3.9359   4.5455   5.3603  16.1215  18.4237  19.3048  19.8967

     occupation numbers 
     1.0000   1.0000   1.0000   1.0000   1.0000   1.0000   1.0000   1.0000
     1.0000   1.0000   1.0000   1.0000   0.0000   0.0000   0.0000   0.0000

          k = 0.0714 0.3712 0.0000 (  2048 PWs)   bands (ev):

     2.7703   2.8897   3.1213   3.4194   3.5048   3.5407   3.6323   3.8393
     3.9899   3.9900   4.5632  10.1978  11.2868  14.9326  20.5374  20.5924

     occupation numbers 
     1.0000   1.0000   1.0000   1.0000   1.0000   1.0000   1.0000   1.0000
     1.0000   1.0000   1.0000   1.0000   0.0000   0.0000   0.0000   0.0000

          k = 0.0714 0.3712 0.0772 (  2042 PWs)   bands (ev):

     2.7719   2.8952   3.1359   3.3215   3.4747   3.6378   3.7213   3.8364
     3.9631   4.0016   4.6321   8.9743  12.7392  15.0579  19.4608  20.7217

     occupation numbers 
     1.0000   1.0000   1.0000   1.0000   1.0000   1.0000   1.0000   1.0000
     1.0000   1.0000   1.0000   1.0000   0.0000   0.0000   0.0000   0.0000

          k = 0.0714 0.3712 0.1544 (  2039 PWs)   bands (ev):

     2.7906   2.9086   3.1377   3.1874   3.5510   3.6777   3.7883   3.8922
     3.9195   4.0204   4.9107   7.5717  14.8019  15.4316  18.2093  21.0948

     occupation numbers 
     1.0000   1.0000   1.0000   1.0000   1.0000   1.0000   1.0000   1.0000
     1.0000   1.0000   1.0000   1.0000   0.0000   0.0000   0.0000   0.0000

          k = 0.0714 0.3712 0.2317 (  2030 PWs)   bands (ev):

     2.8385   2.8946   3.1092   3.1244   3.6552   3.7224   3.7543   3.8112
     3.9971   4.0264   5.5030   6.4020  16.0160  16.5162  17.7434  19.8593

     occupation numbers 
     1.0000   1.0000   1.0000   1.0000   1.0000   1.0000   1.0000   1.0000
     1.0000   1.0000   1.0000   1.0000   0.0000   0.0000   0.0000   0.0000

          k = 0.0714 0.4536 0.0000 (  2052 PWs)   bands (ev):

     2.7738   2.8503   3.0066   3.4509   3.5159   3.5784   3.7356   3.9832
     4.0328   4.1057   5.8738  11.2054  12.5980  12.7828  17.9413  19.1874

     occupation numbers 
     1.0000   1.0000   1.0000   1.0000   1.0000   1.0000   1.0000   1.0000
     1.0000   1.0000   1.0000   0.0000   0.0000   0.0000   0.0000   0.0000

          k = 0.0714 0.4536 0.0772 (  2040 PWs)   bands (ev):

     2.7746   2.8235   3.0425   3.3267   3.5486   3.6160   3.8322   3.9578
     4.0311   4.1093   5.9757  10.2460  12.5258  14.0887  16.9914  20.0687

     occupation numbers 
     1.0000   1.0000   1.0000   1.0000   1.0000   1.0000   1.0000   1.0000
     1.0000   1.0000   1.0000   1.0000   0.0000   0.0000   0.0000   0.0000

          k = 0.0714 0.4536 0.1544 (  2043 PWs)   bands (ev):

     2.7647   2.8211   3.0683   3.1654   3.6053   3.7215   3.8914   3.9354
     4.0339   4.1148   6.3068   8.9234  12.8668  15.0552  16.7753  20.4718

     occupation numbers 
     1.0000   1.0000   1.0000   1.0000   1.0000   1.0000   1.0000   1.0000
     1.0000   1.0000   1.0000   1.0000   0.0000   0.0000   0.0000   0.0000

          k = 0.0714 0.4536 0.2317 (  2042 PWs)   bands (ev):

     2.7810   2.8158   3.0591   3.0709   3.6965   3.7975   3.8400   3.9231
     4.0733   4.1062   6.9083   7.7882  13.4593  14.2652  18.7278  20.7952

     occupation numbers 
     1.0000   1.0000   1.0000   1.0000   1.0000   1.0000   1.0000   1.0000
     1.0000   1.0000   1.0000   1.0000   0.0000   0.0000   0.0000   0.0000

          k = 0.0714 0.5361 0.0000 (  2045 PWs)   bands (ev):

     2.7356   2.8256   2.9496   3.4211   3.5488   3.5696   3.8335   3.9791
     4.1328   4.1589   7.6030   9.7324  13.2914  14.2984  15.7294  17.2214

     occupation numbers 
     1.0000   1.0000   1.0000   1.0000   1.0000   1.0000   1.0000   1.0000
     1.0000   1.0000   1.0000   1.0000   0.0000   0.0000   0.0000   0.0000

          k = 0.0714 0.5361 0.0772 (  2052 PWs)   bands (ev):

     2.7444   2.7797   2.9955   3.3180   3.5440   3.6396   3.9121   3.9545
     4.1300   4.1582   7.7079   9.7703  12.3612  14.1131  16.2974  18.2744

     occupation numbers 
     1.0000   1.0000   1.0000   1.0000   1.0000   1.0000   1.0000   1.0000
     1.0000   1.0000   1.0000   1.0000   0.0000   0.0000   0.0000   0.0000

          k = 0.0714 0.5361 0.1544 (  2040 PWs)   bands (ev):

     2.7357   2.7676   3.0292   3.1527   3.5932   3.7711   3.8863   4.0126
     4.1205   4.1539   8.0272   9.7333  11.4485  13.0385  18.1227  20.0105

     occupation numbers 
     1.0000   1.0000   1.0000   1.0000   1.0000   1.0000   1.0000   1.0000
     1.0000   1.0000   1.0000   1.0000   0.0000   0.0000   0.0000   0.0000

          k = 0.0714 0.5361 0.2317 (  2034 PWs)   bands (ev):

     2.7424   2.7695   3.0265   3.0463   3.6845   3.7898   3.9176   4.0188
     4.1225   4.1416   8.5586   9.2353  11.4262  12.0683  20.1387  20.7866

     occupation numbers 
     1.0000   1.0000   1.0000   1.0000   1.0000   1.0000   1.0000   1.0000
     1.0000   1.0000   1.0000   1.0000   0.0000   0.0000   0.0000   0.0000

          k = 0.1429 0.2474 0.0000 (  2035 PWs)   bands (ev):

     2.2960   3.0089   3.1823   3.3374   3.3505   3.4594   3.5516   3.7377
     3.8259   3.9768   3.9835   9.1640   9.8091  19.4506  19.7369  25.0869

     occupation numbers 
     1.0000   1.0000   1.0000   1.0000   1.0000   1.0000   1.0000   1.0000
     1.0000   1.0000   1.0000   1.0000   1.0000   0.0000   0.0000   0.0000

          k = 0.1429 0.2474 0.0772 (  2042 PWs)   bands (ev):

     2.3843   3.0238   3.1916   3.2852   3.3827   3.3936   3.6517   3.7140
     3.8532   3.9252   4.0269   7.7710  11.4546  19.5819  19.8524  23.9125

     occupation numbers 
     1.0000   1.0000   1.0000   1.0000   1.0000   1.0000   1.0000   1.0000
     1.0000   1.0000   1.0000   1.0000   0.0000   0.0000   0.0000   0.0000

          k = 0.1429 0.2474 0.1544 (  2044 PWs)   bands (ev):

     2.6139   3.0641   3.2089   3.2207   3.3082   3.3836   3.6968   3.8202
     3.8687   3.8949   4.1145   6.3696  13.6165  19.9732  20.1138  21.5869

     occupation numbers 
     1.0000   1.0000   1.0000   1.0000   1.0000   1.0000   1.0000   1.0000
     1.0000   1.0000   1.0000   1.0000   0.0000   0.0000   0.0000   0.0000

          k = 0.1429 0.2474 0.2317 (  2040 PWs)   bands (ev):

     2.8779   3.0618   3.1570   3.2236   3.2728   3.3366   3.7244   3.7837
     3.9255   3.9282   4.4879   5.2583  16.0035  18.5518  20.6179  21.0235

     occupation numbers 
     1.0000   1.0000   1.0000   1.0000   1.0000   1.0000   1.0000   1.0000
     1.0000   1.0000   1.0000   1.0000   0.0000   0.0000   0.0000   0.0000

          k = 0.1429 0.3299 0.0000 (  2038 PWs)   bands (ev):

     2.8797   3.0273   3.1836   3.2576   3.3805   3.4806   3.5787   3.6766
     3.9640   3.9815   4.4972   9.9843  10.9782  16.6084  18.5596  22.2322

     occupation numbers 
     1.0000   1.0000   1.0000   1.0000   1.0000   1.0000   1.0000   1.0000
     1.0000   1.0000   1.0000   1.0000   0.7498   0.0000   0.0000   0.0000

          k = 0.1429 0.3299 0.0772 (  2043 PWs)   bands (ev):

     2.8928   3.0422   3.1721   3.2571   3.3442   3.5117   3.6560   3.6743
     3.9370   3.9954   4.5524   8.7274  12.4737  16.7353  18.6868  21.1192

     occupation numbers 
     1.0000   1.0000   1.0000   1.0000   1.0000   1.0000   1.0000   1.0000
     1.0000   1.0000   1.0000   1.0000   0.0000   0.0000   0.0000   0.0000

          k = 0.1429 0.3299 0.1544 (  2040 PWs)   bands (ev):

     2.9281   3.0832   3.1189   3.2612   3.3420   3.4912   3.6703   3.8561
     3.8692   4.0205   4.7776   7.3266  14.5840  17.1096  19.0551  19.8275

     occupation numbers 
     1.0000   1.0000   1.0000   1.0000   1.0000   1.0000   1.0000   1.0000
     1.0000   1.0000   1.0000   1.0000   0.0000   0.0000   0.0000   0.0000

          k = 0.1429 0.3299 0.2317 (  2034 PWs)   bands (ev):

     2.9803   3.0441   3.1523   3.2171   3.3923   3.4468   3.7097   3.7842
     3.9882   4.0290   5.3082   6.1726  16.8572  17.6767  18.7876  19.3150

     occupation numbers 
     1.0000   1.0000   1.0000   1.0000   1.0000   1.0000   1.0000   1.0000
     1.0000   1.0000   1.0000   1.0000   0.0000   0.0000   0.0000   0.0000

          k = 0.1429 0.4124 0.0000 (  2049 PWs)   bands (ev):

     2.9326   2.9943   3.0685   3.4366   3.4689   3.5337   3.6012   3.7759
     3.9481   4.0848   5.5536  11.1006  12.3704  13.9194  17.7818  19.5104

     occupation numbers 
     1.0000   1.0000   1.0000   1.0000   1.0000   1.0000   1.0000   1.0000
     1.0000   1.0000   1.0000   0.0000   0.0000   0.0000   0.0000   0.0000

          k = 0.1429 0.4124 0.0772 (  2043 PWs)   bands (ev):

     2.9282   2.9645   3.1233   3.2984   3.4666   3.6139   3.6982   3.7701
     3.9215   4.0927   5.6499   9.9603  13.6891  14.0787  17.9127  18.4567

     occupation numbers 
     1.0000   1.0000   1.0000   1.0000   1.0000   1.0000   1.0000   1.0000
     1.0000   1.0000   1.0000   1.0000   0.0000   0.0000   0.0000   0.0000

          k = 0.1429 0.4124 0.1544 (  2032 PWs)   bands (ev):

     2.9047   2.9820   3.1391   3.1870   3.4950   3.6495   3.7407   3.8487
     3.8950   4.1042   5.9678   8.5877  14.3929  15.6326  17.3383  18.2983

     occupation numbers 
     1.0000   1.0000   1.0000   1.0000   1.0000   1.0000   1.0000   1.0000
     1.0000   1.0000   1.0000   1.0000   0.0000   0.0000   0.0000   0.0000

          k = 0.1429 0.4124 0.2317 (  2035 PWs)   bands (ev):

     2.9200   2.9689   3.1095   3.1493   3.5800   3.6626   3.7183   3.7669
     4.0271   4.0918   6.5588   7.4387  15.0076  15.7922  18.3065  18.8931

     occupation numbers 
     1.0000   1.0000   1.0000   1.0000   1.0000   1.0000   1.0000   1.0000
     1.0000   1.0000   1.0000   1.0000   0.0000   0.0000   0.0000   0.0000

          k = 0.1429 0.4949 0.0000 (  2046 PWs)   bands (ev):

     2.8674   2.9650   2.9996   3.4220   3.5329   3.5537   3.6851   3.9375
     3.9577   4.1156   7.1023  11.1279  12.9042  13.9224  17.0666  17.3046

     occupation numbers 
     1.0000   1.0000   1.0000   1.0000   1.0000   1.0000   1.0000   1.0000
     1.0000   1.0000   1.0000   0.0000   0.0000   0.0000   0.0000   0.0000

          k = 0.1429 0.4949 0.0772 (  2041 PWs)   bands (ev):

     2.8758   2.9001   3.0768   3.3166   3.4894   3.6347   3.7809   3.9097
     3.9515   4.1184   7.2114  10.9381  12.1228  14.9016  16.4183  17.4375

     occupation numbers 
     1.0000   1.0000   1.0000   1.0000   1.0000   1.0000   1.0000   1.0000
     1.0000   1.0000   1.0000   1.0000   0.0000   0.0000   0.0000   0.0000

          k = 0.1429 0.4949 0.1544 (  2044 PWs)   bands (ev):

     2.8541   2.9082   3.1210   3.1675   3.5041   3.7386   3.8293   3.9160
     3.9356   4.1182   7.5493  10.0118  12.0879  14.4151  17.6168  17.8322

     occupation numbers 
     1.0000   1.0000   1.0000   1.0000   1.0000   1.0000   1.0000   1.0000
     1.0000   1.0000   1.0000   1.0000   0.0000   0.0000   0.0000   0.0000

          k = 0.1429 0.4949 0.2317 (  2043 PWs)   bands (ev):

     2.8672   2.9086   3.0872   3.1038   3.5955   3.7144   3.8328   3.8931
     4.0268   4.0932   8.1349   8.9713  12.6146  13.4209  18.4627  19.1536

     occupation numbers 
     1.0000   1.0000   1.0000   1.0000   1.0000   1.0000   1.0000   1.0000
     1.0000   1.0000   1.0000   1.0000   0.0000   0.0000   0.0000   0.0000

          k = 0.1429 0.5774 0.0000 (  2048 PWs)   bands (ev):

     2.8432   2.9498   2.9768   3.4247   3.5005   3.5819   3.7377   3.9337
     4.0623   4.0812   8.7898   9.2458  14.1351  15.0542  15.4113  17.0319

     occupation numbers 
     1.0000   1.0000   1.0000   1.0000   1.0000   1.0000   1.0000   1.0000
     1.0000   1.0000   1.0000   1.0000   0.0000   0.0000   0.0000   0.0000

          k = 0.1429 0.5774 0.0772 (  2046 PWs)   bands (ev):

     2.8549   2.8765   3.0592   3.3254   3.4702   3.6593   3.8157   3.9057
     4.0595   4.0795   8.9061   9.3226  13.4607  13.6524  17.0703  17.2769

     occupation numbers 
     1.0000   1.0000   1.0000   1.0000   1.0000   1.0000   1.0000   1.0000
     1.0000   1.0000   1.0000   1.0000   0.0000   0.0000   0.0000   0.0000

          k = 0.1429 0.5774 0.1544 (  2046 PWs)   bands (ev):

     2.8354   2.8814   3.1047   3.1707   3.4906   3.7900   3.8222   3.9237
     4.0509   4.0680   9.2370   9.5423  12.3691  12.3946  17.6723  19.0860

     occupation numbers 
     1.0000   1.0000   1.0000   1.0000   1.0000   1.0000   1.0000   1.0000
     1.0000   1.0000   1.0000   1.0000   0.0000   0.0000   0.0000   0.0000

          k = 0.1429 0.5774 0.2317 (  2040 PWs)   bands (ev):

     2.8478   2.8860   3.0806   3.0882   3.5863   3.7092   3.9172   3.9773
     4.0347   4.0358   9.6724   9.7977  11.5485  11.5611  18.3129  19.1490

     occupation numbers 
     1.0000   1.0000   1.0000   1.0000   1.0000   1.0000   1.0000   1.0000
     1.0000   1.0000   1.0000   1.0000   0.0000   0.0000   0.0000   0.0000

          k = 0.2143 0.3712 0.0000 (  2039 PWs)   bands (ev):

     3.0771   3.1012   3.1379   3.3165   3.4178   3.4390   3.6201   3.6333
     3.9274   4.0809   5.4718  11.0209  12.2314  15.5621  15.8795  21.2847

     occupation numbers 
     1.0000   1.0000   1.0000   1.0000   1.0000   1.0000   1.0000   1.0000
     1.0000   1.0000   1.0000   0.0000   0.0000   0.0000   0.0000   0.0000

          k = 0.2143 0.3712 0.0772 (  2037 PWs)   bands (ev):

     3.0637   3.0909   3.1932   3.2027   3.4257   3.5024   3.6165   3.6997
     3.9007   4.0902   5.5650   9.8549  13.6219  15.6924  16.0058  20.0744

     occupation numbers 
     1.0000   1.0000   1.0000   1.0000   1.0000   1.0000   1.0000   1.0000
     1.0000   1.0000   1.0000   1.0000   0.0000   0.0000   0.0000   0.0000

          k = 0.2143 0.3712 0.1544 (  2035 PWs)   bands (ev):

     3.0322   3.0892   3.1412   3.2630   3.3943   3.5056   3.6230   3.8266
     3.8804   4.1038   5.8744   8.4771  15.6404  16.0825  16.3767  18.7356

     occupation numbers 
     1.0000   1.0000   1.0000   1.0000   1.0000   1.0000   1.0000   1.0000
     1.0000   1.0000   1.0000   1.0000   0.0000   0.0000   0.0000   0.0000

          k = 0.2143 0.3712 0.2317 (  2037 PWs)   bands (ev):

     3.0213   3.0374   3.1991   3.2617   3.4107   3.4661   3.6630   3.7389
     4.0229   4.0918   6.4558   7.3296  16.7223  16.9524  17.3168  17.6115

     occupation numbers 
     1.0000   1.0000   1.0000   1.0000   1.0000   1.0000   1.0000   1.0000
     1.0000   1.0000   1.0000   1.0000   0.0000   0.0000   0.0000   0.0000

          k = 0.2143 0.4536 0.0000 (  2043 PWs)   bands (ev):

     3.0453   3.0495   3.1318   3.3943   3.4765   3.5373   3.5439   3.7584
     3.8987   4.1008   6.8720  12.2319  13.2827  13.7014  15.1148  18.7552

     occupation numbers 
     1.0000   1.0000   1.0000   1.0000   1.0000   1.0000   1.0000   1.0000
     1.0000   1.0000   1.0000   0.0000   0.0000   0.0000   0.0000   0.0000

          k = 0.2143 0.4536 0.0772 (  2040 PWs)   bands (ev):

     3.0165   3.0600   3.1820   3.2811   3.4540   3.5767   3.6234   3.7805
     3.8706   4.1072   6.9826  11.2337  13.2918  14.9788  15.2471  17.7389

     occupation numbers 
     1.0000   1.0000   1.0000   1.0000   1.0000   1.0000   1.0000   1.0000
     1.0000   1.0000   1.0000   0.0000   0.0000   0.0000   0.0000   0.0000

          k = 0.2143 0.4536 0.1544 (  2033 PWs)   bands (ev):

     2.9901   3.0973   3.1445   3.2614   3.4146   3.6081   3.6645   3.7977
     3.8942   4.1133   7.3259   9.9116  13.6536  15.6255  15.9861  17.2848

     occupation numbers 
     1.0000   1.0000   1.0000   1.0000   1.0000   1.0000   1.0000   1.0000
     1.0000   1.0000   1.0000   1.0000   0.0000   0.0000   0.0000   0.0000

          k = 0.2143 0.4536 0.2317 (  2040 PWs)   bands (ev):

     2.9993   3.0488   3.1649   3.2323   3.4790   3.5760   3.6785   3.7237
     4.0184   4.0914   7.9247   8.7904  14.2689  15.1070  16.2584  17.0755

     occupation numbers 
     1.0000   1.0000   1.0000   1.0000   1.0000   1.0000   1.0000   1.0000
     1.0000   1.0000   1.0000   1.0000   0.0000   0.0000   0.0000   0.0000

          k = 0.2143 0.5361 0.0000 (  2041 PWs)   bands (ev):

     3.0101   3.0255   3.1178   3.4122   3.4690   3.5590   3.5873   3.8833
     3.9070   4.0467   8.6167  10.6697  14.1622  14.7953  15.2525  16.5071

     occupation numbers 
     1.0000   1.0000   1.0000   1.0000   1.0000   1.0000   1.0000   1.0000
     1.0000   1.0000   1.0000   1.0000   0.0000   0.0000   0.0000   0.0000

          k = 0.2143 0.5361 0.0772 (  2039 PWs)   bands (ev):

     2.9907   3.0237   3.1770   3.3207   3.4127   3.6240   3.6596   3.8540
     3.9116   4.0522   8.7311  10.7529  13.1772  14.8869  15.0772  17.0267

     occupation numbers 
     1.0000   1.0000   1.0000   1.0000   1.0000   1.0000   1.0000   1.0000
     1.0000   1.0000   1.0000   1.0000   0.0000   0.0000   0.0000   0.0000

          k = 0.2143 0.5361 0.1544 (  2040 PWs)   bands (ev):

     2.9671   3.0588   3.1875   3.2445   3.3786   3.6775   3.7364   3.7994
     3.9368   4.0588   9.0750  10.8702  12.1271  13.8856  15.3196  17.7789

     occupation numbers 
     1.0000   1.0000   1.0000   1.0000   1.0000   1.0000   1.0000   1.0000
     1.0000   1.0000   1.0000   1.0000   0.0000   0.0000   0.0000   0.0000

          k = 0.2143 0.5361 0.2317 (  2046 PWs)   bands (ev):

     2.9878   3.0504   3.1429   3.2031   3.4730   3.6013   3.7709   3.7932
     3.9947   4.0437   9.6440  10.3845  12.1225  12.8563  15.9532  16.8116

     occupation numbers 
     1.0000   1.0000   1.0000   1.0000   1.0000   1.0000   1.0000   1.0000
     1.0000   1.0000   1.0000   1.0000   0.0000   0.0000   0.0000   0.0000

          k = 0.2857 0.4949 0.0000 (  2039 PWs)   bands (ev):

     3.0535   3.1444   3.2028   3.3852   3.4399   3.4742   3.5767   3.8095
     3.8603   4.0391   8.4966  12.3884  12.7603  14.1432  15.2339  18.1288

     occupation numbers 
     1.0000   1.0000   1.0000   1.0000   1.0000   1.0000   1.0000   1.0000
     1.0000   1.0000   1.0000   0.0000   0.0000   0.0000   0.0000   0.0000

          k = 0.2857 0.4949 0.0772 (  2044 PWs)   bands (ev):

     3.0530   3.1526   3.2295   3.2891   3.4366   3.5200   3.5977   3.8307
     3.8357   4.0471   8.6136  12.3098  12.8920  13.2684  16.1749  17.0566

     occupation numbers 
     1.0000   1.0000   1.0000   1.0000   1.0000   1.0000   1.0000   1.0000
     1.0000   1.0000   1.0000   0.0000   0.0000   0.0000   0.0000   0.0000

          k = 0.2857 0.4949 0.1544 (  2043 PWs)   bands (ev):

     3.0563   3.1583   3.2115   3.3004   3.3694   3.5548   3.6272   3.7599
     3.9105   4.0583   8.9681  11.4531  13.1799  13.2807  15.7071  15.7632

     occupation numbers 
     1.0000   1.0000   1.0000   1.0000   1.0000   1.0000   1.0000   1.0000
     1.0000   1.0000   1.0000   0.0000   0.0000   0.0000   0.0000   0.0000

          k = 0.2857 0.4949 0.2317 (  2045 PWs)   bands (ev):

     3.0716   3.1075   3.2389   3.2953   3.4080   3.5077   3.6549   3.6930
     3.9948   4.0466   9.5667  10.4085  13.7246  13.8972  14.6180  14.7919

     occupation numbers 
     1.0000   1.0000   1.0000   1.0000   1.0000   1.0000   1.0000   1.0000
     1.0000   1.0000   1.0000   1.0000   0.0000   0.0000   0.0000   0.0000

          k = 0.2857 0.5774 0.0000 (  2027 PWs)   bands (ev):

     3.0591   3.1784   3.2359   3.4058   3.4073   3.4211   3.6036   3.8459
     3.8891   3.9552  10.3860  10.4255  12.4642  15.5565  16.5118  16.5181

     occupation numbers 
     1.0000   1.0000   1.0000   1.0000   1.0000   1.0000   1.0000   1.0000
     1.0000   1.0000   1.0000   1.0000   0.0000   0.0000   0.0000   0.0000

          k = 0.2857 0.5774 0.0772 (  2044 PWs)   bands (ev):

     3.0695   3.1832   3.2341   3.3297   3.4014   3.4795   3.6174   3.8160
     3.9052   3.9689  10.5133  10.5287  12.5806  14.8295  14.9354  16.8067

     occupation numbers 
     1.0000   1.0000   1.0000   1.0000   1.0000   1.0000   1.0000   1.0000
     1.0000   1.0000   1.0000   1.0000   0.0000   0.0000   0.0000   0.0000

          k = 0.2857 0.5774 0.1544 (  2040 PWs)   bands (ev):

     3.0892   3.1846   3.2465   3.2623   3.3954   3.5093   3.6396   3.7438
     3.9467   3.9959  10.8365  10.8795  12.8610  13.6693  13.7143  15.6196

     occupation numbers 
     1.0000   1.0000   1.0000   1.0000   1.0000   1.0000   1.0000   1.0000
     1.0000   1.0000   1.0000   1.0000   0.0000   0.0000   0.0000   0.0000

          k = 0.2857 0.5774 0.2317 (  2038 PWs)   bands (ev):

     3.1110   3.1477   3.2562   3.2642   3.4227   3.4850   3.6551   3.6801
     3.9898   4.0084  11.3014  11.3770  12.5201  12.6895  13.7402  14.5584

     occupation numbers 
     1.0000   1.0000   1.0000   1.0000   1.0000   1.0000   1.0000   1.0000
     1.0000   1.0000   0.0000   0.0000   0.0000   0.0000   0.0000   0.0000

 ------ SPIN DOWN ----------


          k = 0.0000 0.0000 0.0000 (  2065 PWs)   bands (ev):

     0.6448   2.4907   3.1969   3.4234   3.4234   3.4742   3.4742   3.7949
     3.7949   4.0062   4.0062   7.4167   8.0274  24.6551  28.1505  28.2355

     occupation numbers 
     1.0000   1.0000   1.0000   1.0000   1.0000   1.0000   1.0000   1.0000
     1.0000   1.0000   1.0000   1.0000   1.0000   0.0000   0.0000   0.0000

          k = 0.0000 0.0000 0.0772 (  2047 PWs)   bands (ev):

     0.7685   2.4768   3.1991   3.4216   3.4216   3.4685   3.4685   3.8097
     3.8097   3.9990   3.9990   6.0043   9.7112  22.7080  28.3584  28.3584

     occupation numbers 
     1.0000   1.0000   1.0000   1.0000   1.0000   1.0000   1.0000   1.0000
     1.0000   1.0000   1.0000   1.0000   1.0000   0.0000   0.0000   0.0000

          k = 0.0000 0.0000 0.1544 (  2029 PWs)   bands (ev):

     1.1265   2.4059   3.2202   3.4201   3.4201   3.4540   3.4540   3.8477
     3.8477   3.9772   3.9772   4.6456  11.9095  19.8173  28.7134  28.7134

     occupation numbers 
     1.0000   1.0000   1.0000   1.0000   1.0000   1.0000   1.0000   1.0000
     1.0000   1.0000   1.0000   1.0000   0.0000   0.0000   0.0000   0.0000

          k = 0.0000 0.0000 0.2317 (  2065 PWs)   bands (ev):

     1.6570   2.1613   3.3266   3.4247   3.4247   3.4372   3.4372   3.7227
     3.8957   3.8957   3.9415   3.9415  14.3454  16.9928  29.2421  29.2421

     occupation numbers 
     1.0000   1.0000   1.0000   1.0000   1.0000   1.0000   1.0000   1.0000
     1.0000   1.0000   1.0000   1.0000   0.0000   0.0000   0.0000   0.0000

          k = 0.0000 0.0825 0.0000 (  2047 PWs)   bands (ev):

     0.7951   2.5559   3.2116   3.4093   3.4583   3.4586   3.5076   3.7628
     3.7810   3.9229   4.0081   7.6560   8.1061  24.8153  25.7833  26.9717

     occupation numbers 
     1.0000   1.0000   1.0000   1.0000   1.0000   1.0000   1.0000   1.0000
     1.0000   1.0000   1.0000   1.0000   1.0000   0.0000   0.0000   0.0000

          k = 0.0000 0.0825 0.0772 (  2045 PWs)   bands (ev):

     0.9179   2.5460   3.2128   3.4052   3.4512   3.4563   3.5017   3.7818
     3.7970   3.9080   4.0001   6.1852   9.8530  22.8455  25.9288  27.1022

     occupation numbers 
     1.0000   1.0000   1.0000   1.0000   1.0000   1.0000   1.0000   1.0000
     1.0000   1.0000   1.0000   1.0000   1.0000   0.0000   0.0000   0.0000

          k = 0.0000 0.0825 0.1544 (  2044 PWs)   bands (ev):

     1.2728   2.4895   3.2277   3.4004   3.4333   3.4539   3.4870   3.8176
     3.8378   3.8607   3.9763   4.8532  12.0528  19.9546  26.3028  27.4897

     occupation numbers 
     1.0000   1.0000   1.0000   1.0000   1.0000   1.0000   1.0000   1.0000
     1.0000   1.0000   1.0000   1.0000   0.0000   0.0000   0.0000   0.0000

          k = 0.0000 0.0825 0.2317 (  2054 PWs)   bands (ev):

     1.7943   2.2741   3.3092   3.4066   3.4120   3.4579   3.4702   3.6049
     3.8890   3.9203   3.9380   4.1030  14.4870  17.1323  26.9144  27.7545

     occupation numbers 
     1.0000   1.0000   1.0000   1.0000   1.0000   1.0000   1.0000   1.0000
     1.0000   1.0000   1.0000   1.0000   0.0000   0.0000   0.0000   0.0000

          k = 0.0000 0.1650 0.0000 (  2033 PWs)   bands (ev):

     1.2359   2.7209   3.2368   3.3801   3.4452   3.5585   3.6022   3.6296
     3.7443   3.7782   4.0108   8.3093   8.3599  22.4392  25.2475  25.3233

     occupation numbers 
     1.0000   1.0000   1.0000   1.0000   1.0000   1.0000   1.0000   1.0000
     1.0000   1.0000   1.0000   1.0000   1.0000   0.0000   0.0000   0.0000

          k = 0.0000 0.1650 0.0772 (  2046 PWs)   bands (ev):

     1.3548   2.7209   3.2388   3.3685   3.4267   3.5540   3.5956   3.6420
     3.7648   3.7828   4.0012   6.6587  10.2841  22.5179  23.3162  25.4619

     occupation numbers 
     1.0000   1.0000   1.0000   1.0000   1.0000   1.0000   1.0000   1.0000
     1.0000   1.0000   1.0000   1.0000   1.0000   0.0000   0.0000   0.0000

          k = 0.0000 0.1650 0.1544 (  2041 PWs)   bands (ev):

     1.6951   2.7013   3.2436   3.3499   3.3907   3.5482   3.5800   3.6071
     3.8138   3.8417   3.9730   5.3091  12.4814  20.3467  22.9850  25.5549

     occupation numbers 
     1.0000   1.0000   1.0000   1.0000   1.0000   1.0000   1.0000   1.0000
     1.0000   1.0000   1.0000   1.0000   0.0000   0.0000   0.0000   0.0000

          k = 0.0000 0.1650 0.2317 (  2049 PWs)   bands (ev):

     2.1772   2.5685   3.2647   3.3240   3.3830   3.4790   3.5506   3.5627
[...]

     occupation numbers 
     1.0000   1.0000   1.0000   1.0000   1.0000   1.0000   1.0000   1.0000
     1.0000   1.0000   1.0000   1.0000   1.0000   0.0000   0.0000   0.0000

          k = 0.1429 0.2474 0.0772 (  2042 PWs)   bands (ev):

     2.3843   3.0238   3.1916   3.2851   3.3827   3.3936   3.6517   3.7140
     3.8532   3.9252   4.0269   7.7710  11.4546  19.5819  19.8524  23.9125

     occupation numbers 
     1.0000   1.0000   1.0000   1.0000   1.0000   1.0000   1.0000   1.0000
     1.0000   1.0000   1.0000   1.0000   0.0000   0.0000   0.0000   0.0000

          k = 0.1429 0.2474 0.1544 (  2044 PWs)   bands (ev):

     2.6139   3.0641   3.2089   3.2207   3.3082   3.3836   3.6968   3.8202
     3.8687   3.8949   4.1145   6.3695  13.6165  19.9732  20.1138  21.5869

     occupation numbers 
     1.0000   1.0000   1.0000   1.0000   1.0000   1.0000   1.0000   1.0000
     1.0000   1.0000   1.0000   1.0000   0.0000   0.0000   0.0000   0.0000

          k = 0.1429 0.2474 0.2317 (  2040 PWs)   bands (ev):

     2.8779   3.0618   3.1570   3.2236   3.2728   3.3366   3.7244   3.7837
     3.9255   3.9282   4.4879   5.2583  16.0035  18.5518  20.6179  21.0235

     occupation numbers 
     1.0000   1.0000   1.0000   1.0000   1.0000   1.0000   1.0000   1.0000
     1.0000   1.0000   1.0000   1.0000   0.0000   0.0000   0.0000   0.0000

          k = 0.1429 0.3299 0.0000 (  2038 PWs)   bands (ev):

     2.8797   3.0273   3.1836   3.2576   3.3805   3.4806   3.5787   3.6766
     3.9640   3.9815   4.4972   9.9843  10.9782  16.6084  18.5596  22.2322

     occupation numbers 
     1.0000   1.0000   1.0000   1.0000   1.0000   1.0000   1.0000   1.0000
     1.0000   1.0000   1.0000   1.0000   0.7502   0.0000   0.0000   0.0000

          k = 0.1429 0.3299 0.0772 (  2043 PWs)   bands (ev):

     2.8928   3.0422   3.1721   3.2571   3.3442   3.5117   3.6560   3.6743
     3.9370   3.9954   4.5524   8.7274  12.4737  16.7353  18.6868  21.1192

     occupation numbers 
     1.0000   1.0000   1.0000   1.0000   1.0000   1.0000   1.0000   1.0000
     1.0000   1.0000   1.0000   1.0000   0.0000   0.0000   0.0000   0.0000

          k = 0.1429 0.3299 0.1544 (  2040 PWs)   bands (ev):

     2.9281   3.0832   3.1189   3.2612   3.3420   3.4912   3.6703   3.8561
     3.8692   4.0205   4.7776   7.3266  14.5840  17.1096  19.0551  19.8275

     occupation numbers 
     1.0000   1.0000   1.0000   1.0000   1.0000   1.0000   1.0000   1.0000
     1.0000   1.0000   1.0000   1.0000   0.0000   0.0000   0.0000   0.0000

          k = 0.1429 0.3299 0.2317 (  2034 PWs)   bands (ev):

     2.9803   3.0441   3.1523   3.2171   3.3923   3.4468   3.7097   3.7841
     3.9882   4.0290   5.3082   6.1726  16.8572  17.6767  18.7876  19.3150

     occupation numbers 
     1.0000   1.0000   1.0000   1.0000   1.0000   1.0000   1.0000   1.0000
     1.0000   1.0000   1.0000   1.0000   0.0000   0.0000   0.0000   0.0000

          k = 0.1429 0.4124 0.0000 (  2049 PWs)   bands (ev):

     2.9326   2.9943   3.0685   3.4366   3.4689   3.5337   3.6012   3.7759
     3.9481   4.0848   5.5536  11.1006  12.3704  13.9194  17.7818  19.5104

     occupation numbers 
     1.0000   1.0000   1.0000   1.0000   1.0000   1.0000   1.0000   1.0000
     1.0000   1.0000   1.0000   0.0000   0.0000   0.0000   0.0000   0.0000

          k = 0.1429 0.4124 0.0772 (  2043 PWs)   bands (ev):

     2.9282   2.9645   3.1233   3.2984   3.4666   3.6139   3.6982   3.7701
     3.9215   4.0927   5.6499   9.9603  13.6891  14.0787  17.9127  18.4567

     occupation numbers 
     1.0000   1.0000   1.0000   1.0000   1.0000   1.0000   1.0000   1.0000
     1.0000   1.0000   1.0000   1.0000   0.0000   0.0000   0.0000   0.0000

          k = 0.1429 0.4124 0.1544 (  2032 PWs)   bands (ev):

     2.9047   2.9820   3.1391   3.1870   3.4950   3.6495   3.7407   3.8487
     3.8950   4.1042   5.9678   8.5877  14.3929  15.6326  17.3383  18.2983

     occupation numbers 
     1.0000   1.0000   1.0000   1.0000   1.0000   1.0000   1.0000   1.0000
     1.0000   1.0000   1.0000   1.0000   0.0000   0.0000   0.0000   0.0000

          k = 0.1429 0.4124 0.2317 (  2035 PWs)   bands (ev):

     2.9200   2.9689   3.1095   3.1493   3.5800   3.6626   3.7183   3.7669
     4.0271   4.0918   6.5588   7.4387  15.0076  15.7922  18.3065  18.8931

     occupation numbers 
     1.0000   1.0000   1.0000   1.0000   1.0000   1.0000   1.0000   1.0000
     1.0000   1.0000   1.0000   1.0000   0.0000   0.0000   0.0000   0.0000

          k = 0.1429 0.4949 0.0000 (  2046 PWs)   bands (ev):

     2.8674   2.9650   2.9996   3.4220   3.5329   3.5537   3.6851   3.9375
     3.9577   4.1156   7.1023  11.1279  12.9042  13.9224  17.0666  17.3046

     occupation numbers 
     1.0000   1.0000   1.0000   1.0000   1.0000   1.0000   1.0000   1.0000
     1.0000   1.0000   1.0000   0.0000   0.0000   0.0000   0.0000   0.0000

          k = 0.1429 0.4949 0.0772 (  2041 PWs)   bands (ev):

     2.8758   2.9001   3.0768   3.3166   3.4894   3.6347   3.7809   3.9097
     3.9515   4.1184   7.2114  10.9381  12.1228  14.9016  16.4183  17.4375

     occupation numbers 
     1.0000   1.0000   1.0000   1.0000   1.0000   1.0000   1.0000   1.0000
     1.0000   1.0000   1.0000   1.0000   0.0000   0.0000   0.0000   0.0000

          k = 0.1429 0.4949 0.1544 (  2044 PWs)   bands (ev):

     2.8541   2.9082   3.1210   3.1675   3.5041   3.7386   3.8293   3.9160
     3.9356   4.1182   7.5492  10.0118  12.0879  14.4151  17.6168  17.8322

     occupation numbers 
     1.0000   1.0000   1.0000   1.0000   1.0000   1.0000   1.0000   1.0000
     1.0000   1.0000   1.0000   1.0000   0.0000   0.0000   0.0000   0.0000

          k = 0.1429 0.4949 0.2317 (  2043 PWs)   bands (ev):

     2.8672   2.9086   3.0872   3.1038   3.5955   3.7144   3.8328   3.8931
     4.0268   4.0932   8.1349   8.9713  12.6146  13.4209  18.4627  19.1536

     occupation numbers 
     1.0000   1.0000   1.0000   1.0000   1.0000   1.0000   1.0000   1.0000
     1.0000   1.0000   1.0000   1.0000   0.0000   0.0000   0.0000   0.0000

          k = 0.1429 0.5774 0.0000 (  2048 PWs)   bands (ev):

     2.8432   2.9498   2.9768   3.4247   3.5005   3.5819   3.7377   3.9337
     4.0623   4.0812   8.7898   9.2458  14.1351  15.0542  15.4113  17.0319

     occupation numbers 
     1.0000   1.0000   1.0000   1.0000   1.0000   1.0000   1.0000   1.0000
     1.0000   1.0000   1.0000   1.0000   0.0000   0.0000   0.0000   0.0000

          k = 0.1429 0.5774 0.0772 (  2046 PWs)   bands (ev):

     2.8549   2.8765   3.0592   3.3254   3.4702   3.6593   3.8157   3.9057
     4.0595   4.0795   8.9061   9.3226  13.4607  13.6524  17.0703  17.2769

     occupation numbers 
     1.0000   1.0000   1.0000   1.0000   1.0000   1.0000   1.0000   1.0000
     1.0000   1.0000   1.0000   1.0000   0.0000   0.0000   0.0000   0.0000

          k = 0.1429 0.5774 0.1544 (  2046 PWs)   bands (ev):

     2.8354   2.8814   3.1047   3.1707   3.4906   3.7900   3.8222   3.9237
     4.0509   4.0680   9.2370   9.5423  12.3691  12.3945  17.6723  19.0860

     occupation numbers 
     1.0000   1.0000   1.0000   1.0000   1.0000   1.0000   1.0000   1.0000
     1.0000   1.0000   1.0000   1.0000   0.0000   0.0000   0.0000   0.0000

          k = 0.1429 0.5774 0.2317 (  2040 PWs)   bands (ev):

     2.8478   2.8860   3.0806   3.0882   3.5863   3.7092   3.9172   3.9773
     4.0347   4.0358   9.6724   9.7977  11.5485  11.5611  18.3129  19.1490

     occupation numbers 
     1.0000   1.0000   1.0000   1.0000   1.0000   1.0000   1.0000   1.0000
     1.0000   1.0000   1.0000   1.0000   0.0000   0.0000   0.0000   0.0000

          k = 0.2143 0.3712 0.0000 (  2039 PWs)   bands (ev):

     3.0771   3.1012   3.1379   3.3165   3.4178   3.4390   3.6201   3.6333
     3.9274   4.0809   5.4718  11.0209  12.2314  15.5621  15.8795  21.2847

     occupation numbers 
     1.0000   1.0000   1.0000   1.0000   1.0000   1.0000   1.0000   1.0000
     1.0000   1.0000   1.0000   0.0000   0.0000   0.0000   0.0000   0.0000

          k = 0.2143 0.3712 0.0772 (  2037 PWs)   bands (ev):

     3.0637   3.0909   3.1932   3.2027   3.4257   3.5024   3.6165   3.6997
     3.9007   4.0902   5.5650   9.8549  13.6219  15.6924  16.0058  20.0744

     occupation numbers 
     1.0000   1.0000   1.0000   1.0000   1.0000   1.0000   1.0000   1.0000
     1.0000   1.0000   1.0000   1.0000   0.0000   0.0000   0.0000   0.0000

          k = 0.2143 0.3712 0.1544 (  2035 PWs)   bands (ev):

     3.0322   3.0892   3.1412   3.2630   3.3943   3.5056   3.6230   3.8266
     3.8804   4.1038   5.8744   8.4771  15.6404  16.0825  16.3767  18.7356

     occupation numbers 
     1.0000   1.0000   1.0000   1.0000   1.0000   1.0000   1.0000   1.0000
     1.0000   1.0000   1.0000   1.0000   0.0000   0.0000   0.0000   0.0000

          k = 0.2143 0.3712 0.2317 (  2037 PWs)   bands (ev):

     3.0213   3.0374   3.1991   3.2617   3.4107   3.4661   3.6630   3.7389
     4.0229   4.0918   6.4558   7.3296  16.7223  16.9524  17.3168  17.6115

     occupation numbers 
     1.0000   1.0000   1.0000   1.0000   1.0000   1.0000   1.0000   1.0000
     1.0000   1.0000   1.0000   1.0000   0.0000   0.0000   0.0000   0.0000

          k = 0.2143 0.4536 0.0000 (  2043 PWs)   bands (ev):

     3.0453   3.0495   3.1318   3.3943   3.4765   3.5373   3.5439   3.7584
     3.8987   4.1008   6.8720  12.2319  13.2827  13.7014  15.1148  18.7552

     occupation numbers 
     1.0000   1.0000   1.0000   1.0000   1.0000   1.0000   1.0000   1.0000
     1.0000   1.0000   1.0000   0.0000   0.0000   0.0000   0.0000   0.0000

          k = 0.2143 0.4536 0.0772 (  2040 PWs)   bands (ev):

     3.0165   3.0600   3.1820   3.2811   3.4540   3.5767   3.6234   3.7805
     3.8706   4.1072   6.9826  11.2337  13.2918  14.9788  15.2471  17.7389

     occupation numbers 
     1.0000   1.0000   1.0000   1.0000   1.0000   1.0000   1.0000   1.0000
     1.0000   1.0000   1.0000   0.0000   0.0000   0.0000   0.0000   0.0000

          k = 0.2143 0.4536 0.1544 (  2033 PWs)   bands (ev):

     2.9901   3.0973   3.1445   3.2614   3.4146   3.6081   3.6645   3.7977
     3.8942   4.1133   7.3259   9.9116  13.6535  15.6255  15.9861  17.2848

     occupation numbers 
     1.0000   1.0000   1.0000   1.0000   1.0000   1.0000   1.0000   1.0000
     1.0000   1.0000   1.0000   1.0000   0.0000   0.0000   0.0000   0.0000

          k = 0.2143 0.4536 0.2317 (  2040 PWs)   bands (ev):

     2.9993   3.0488   3.1649   3.2323   3.4790   3.5760   3.6785   3.7237
     4.0184   4.0914   7.9247   8.7904  14.2689  15.1070  16.2584  17.0755

     occupation numbers 
     1.0000   1.0000   1.0000   1.0000   1.0000   1.0000   1.0000   1.0000
     1.0000   1.0000   1.0000   1.0000   0.0000   0.0000   0.0000   0.0000

          k = 0.2143 0.5361 0.0000 (  2041 PWs)   bands (ev):

     3.0101   3.0255   3.1178   3.4122   3.4690   3.5590   3.5873   3.8833
     3.9070   4.0467   8.6167  10.6697  14.1622  14.7953  15.2525  16.5071

     occupation numbers 
     1.0000   1.0000   1.0000   1.0000   1.0000   1.0000   1.0000   1.0000
     1.0000   1.0000   1.0000   1.0000   0.0000   0.0000   0.0000   0.0000

          k = 0.2143 0.5361 0.0772 (  2039 PWs)   bands (ev):

     2.9907   3.0237   3.1770   3.3207   3.4127   3.6240   3.6596   3.8540
     3.9116   4.0522   8.7311  10.7529  13.1772  14.8869  15.0772  17.0267

     occupation numbers 
     1.0000   1.0000   1.0000   1.0000   1.0000   1.0000   1.0000   1.0000
     1.0000   1.0000   1.0000   1.0000   0.0000   0.0000   0.0000   0.0000

          k = 0.2143 0.5361 0.1544 (  2040 PWs)   bands (ev):

     2.9671   3.0588   3.1875   3.2445   3.3786   3.6775   3.7364   3.7994
     3.9368   4.0588   9.0750  10.8702  12.1271  13.8856  15.3196  17.7789

     occupation numbers 
     1.0000   1.0000   1.0000   1.0000   1.0000   1.0000   1.0000   1.0000
     1.0000   1.0000   1.0000   1.0000   0.0000   0.0000   0.0000   0.0000

          k = 0.2143 0.5361 0.2317 (  2046 PWs)   bands (ev):

     2.9878   3.0504   3.1429   3.2031   3.4730   3.6013   3.7709   3.7932
     3.9947   4.0437   9.6440  10.3845  12.1225  12.8563  15.9532  16.8116

     occupation numbers 
     1.0000   1.0000   1.0000   1.0000   1.0000   1.0000   1.0000   1.0000
     1.0000   1.0000   1.0000   1.0000   0.0000   0.0000   0.0000   0.0000

          k = 0.2857 0.4949 0.0000 (  2039 PWs)   bands (ev):

     3.0535   3.1444   3.2028   3.3852   3.4399   3.4742   3.5767   3.8095
     3.8603   4.0391   8.4966  12.3884  12.7603  14.1432  15.2339  18.1288

     occupation numbers 
     1.0000   1.0000   1.0000   1.0000   1.0000   1.0000   1.0000   1.0000
     1.0000   1.0000   1.0000   0.0000   0.0000   0.0000   0.0000   0.0000

          k = 0.2857 0.4949 0.0772 (  2044 PWs)   bands (ev):

     3.0530   3.1526   3.2295   3.2891   3.4366   3.5200   3.5977   3.8307
     3.8357   4.0471   8.6136  12.3098  12.8920  13.2684  16.1749  17.0566

     occupation numbers 
     1.0000   1.0000   1.0000   1.0000   1.0000   1.0000   1.0000   1.0000
     1.0000   1.0000   1.0000   0.0000   0.0000   0.0000   0.0000   0.0000

          k = 0.2857 0.4949 0.1544 (  2043 PWs)   bands (ev):

     3.0563   3.1583   3.2115   3.3004   3.3694   3.5548   3.6272   3.7599
     3.9105   4.0583   8.9681  11.4531  13.1799  13.2807  15.7071  15.7632

     occupation numbers 
     1.0000   1.0000   1.0000   1.0000   1.0000   1.0000   1.0000   1.0000
     1.0000   1.0000   1.0000   0.0000   0.0000   0.0000   0.0000   0.0000

          k = 0.2857 0.4949 0.2317 (  2045 PWs)   bands (ev):

     3.0716   3.1075   3.2389   3.2953   3.4080   3.5077   3.6549   3.6930
     3.9948   4.0466   9.5667  10.4085  13.7246  13.8972  14.6180  14.7919

     occupation numbers 
     1.0000   1.0000   1.0000   1.0000   1.0000   1.0000   1.0000   1.0000
     1.0000   1.0000   1.0000   1.0000   0.0000   0.0000   0.0000   0.0000

          k = 0.2857 0.5774 0.0000 (  2027 PWs)   bands (ev):

     3.0591   3.1784   3.2359   3.4058   3.4073   3.4211   3.6036   3.8459
     3.8891   3.9552  10.3860  10.4255  12.4642  15.5565  16.5118  16.5180

     occupation numbers 
     1.0000   1.0000   1.0000   1.0000   1.0000   1.0000   1.0000   1.0000
     1.0000   1.0000   1.0000   1.0000   0.0000   0.0000   0.0000   0.0000

          k = 0.2857 0.5774 0.0772 (  2044 PWs)   bands (ev):

     3.0695   3.1832   3.2341   3.3297   3.4014   3.4795   3.6174   3.8160
     3.9052   3.9689  10.5133  10.5287  12.5806  14.8295  14.9354  16.8067

     occupation numbers 
     1.0000   1.0000   1.0000   1.0000   1.0000   1.0000   1.0000   1.0000
     1.0000   1.0000   1.0000   1.0000   0.0000   0.0000   0.0000   0.0000

          k = 0.2857 0.5774 0.1544 (  2040 PWs)   bands (ev):

     3.0892   3.1846   3.2465   3.2623   3.3954   3.5093   3.6396   3.7438
     3.9467   3.9959  10.8365  10.8795  12.8610  13.6693  13.7143  15.6196

     occupation numbers 
     1.0000   1.0000   1.0000   1.0000   1.0000   1.0000   1.0000   1.0000
     1.0000   1.0000   1.0000   1.0000   0.0000   0.0000   0.0000   0.0000

          k = 0.2857 0.5774 0.2317 (  2038 PWs)   bands (ev):

     3.1110   3.1476   3.2562   3.2642   3.4227   3.4850   3.6551   3.6801
     3.9898   4.0084  11.3014  11.3770  12.5201  12.6895  13.7402  14.5584

     occupation numbers 
     1.0000   1.0000   1.0000   1.0000   1.0000   1.0000   1.0000   1.0000
     1.0000   1.0000   0.0000   0.0000   0.0000   0.0000   0.0000   0.0000

     the Fermi energy is    10.9814 ev

!    total energy              =    -487.44670047 Ry
     total all-electron energy =     -7184.240746 Ry
     estimated scf accuracy    <       0.00000092 Ry
     smearing contrib. (-TS)   =      -0.00000076 Ry
     internal energy E=F+TS    =    -487.44669970 Ry

     The total energy is F=E-TS. E is the sum of the following terms:
     one-electron contribution =    -116.92246628 Ry
     hartree contribution      =      91.61627283 Ry
     xc contribution           =     -94.35620661 Ry
     ewald contribution        =    -176.91423862 Ry
     one-center paw contrib.   =    -190.87006102 Ry
      -> PAW hartree energy AE =     121.75410337 Ry
      -> PAW hartree energy PS =    -121.12969876 Ry
      -> PAW xc energy AE      =    -143.06047284 Ry
      -> PAW xc energy PS      =      47.00103771 Ry
      -> total E_H with PAW    =      92.24067744 Ry
      -> total E_XC with PAW   =    -190.41564174 Ry

     total magnetization       =    -0.00 Bohr mag/cell
     absolute magnetization    =     0.00 Bohr mag/cell

     convergence has been achieved in   5 iterations

     Writing all to output data dir ./out/Zn.save/
 
     init_run     :      0.30s CPU      0.40s WALL (       1 calls)
     electrons    :      5.06s CPU      5.52s WALL (       1 calls)

     Called by init_run:
     wfcinit      :      0.12s CPU      0.19s WALL (       1 calls)
     potinit      :      0.10s CPU      0.13s WALL (       1 calls)
     hinit0       :      0.06s CPU      0.06s WALL (       1 calls)

     Called by electrons:
     c_bands      :      4.04s CPU      4.37s WALL (       5 calls)
     sum_band     :      0.52s CPU      0.55s WALL (       5 calls)
     v_of_rho     :      0.02s CPU      0.02s WALL (       6 calls)
     v_h          :      0.00s CPU      0.00s WALL (       6 calls)
     v_xc         :      0.02s CPU      0.02s WALL (       6 calls)
     newd         :      0.01s CPU      0.01s WALL (       6 calls)
     PAW_pot      :      0.55s CPU      0.66s WALL (       6 calls)
     mix_rho      :      0.00s CPU      0.00s WALL (       5 calls)

     Called by c_bands:
     init_us_2    :      0.03s CPU      0.04s WALL (     960 calls)
     init_us_2:cp :      0.03s CPU      0.04s WALL (     960 calls)
     cegterg      :      3.81s CPU      4.01s WALL (     480 calls)

     Called by sum_band:
     sum_band:wei :      0.01s CPU      0.01s WALL (       5 calls)
     sum_band:loo :      0.49s CPU      0.52s WALL (       5 calls)
     sum_band:buf :      0.00s CPU      0.00s WALL (     480 calls)
     sum_band:ini :      0.02s CPU      0.02s WALL (     480 calls)
     sum_band:cal :      0.04s CPU      0.04s WALL (     480 calls)
     sum_band:bec :      0.00s CPU      0.00s WALL (     480 calls)
     addusdens    :      0.01s CPU      0.02s WALL (       5 calls)
                                        0.00s GPU  (       5 calls)
     addusd:skk   :      0.00s CPU      0.00s WALL (       5 calls)
                                        0.00s GPU  (       5 calls)

     Called by *egterg:
     cdiaghg      :      0.62s CPU      0.66s WALL (    2169 calls)
     cegterg:over :      0.10s CPU      0.10s WALL (    1785 calls)
     cegterg:upda :      0.02s CPU      0.03s WALL (    1785 calls)
     cegterg:last :      0.04s CPU      0.04s WALL (    1373 calls)
     h_psi        :      2.89s CPU      3.04s WALL (    2265 calls)
     s_psi        :      0.05s CPU      0.05s WALL (    2265 calls)
     g_psi        :      0.01s CPU      0.01s WALL (    1785 calls)

     Called by h_psi:
     h_psi:calbec :      0.14s CPU      0.15s WALL (    2265 calls)
     vloc_psi     :      2.68s CPU      2.81s WALL (    2265 calls)
     add_vuspsi   :      0.05s CPU      0.06s WALL (    2265 calls)

     General routines
     calbec       :      0.17s CPU      0.18s WALL (    2745 calls)
     fft          :      0.01s CPU      0.01s WALL (     124 calls)
     ffts         :      0.00s CPU      0.00s WALL (      10 calls)
     fftw         :      2.87s CPU      3.02s WALL (   59458 calls)
 
     Parallel routines

     PAW routines
     PAW_pot      :      0.55s CPU      0.66s WALL (       6 calls)
     PAW_symme    :      0.00s CPU      0.01s WALL (      10 calls)
 
     PWSCF        :      5.62s CPU      6.52s WALL

 
   This run was terminated on:   3:28:22  13Mar2024            

=------------------------------------------------------------------------------=
   JOB DONE.
=------------------------------------------------------------------------------=
