
     Program PWSCF v.7.2 starts on 13Mar2024 at  3:26:28 

     This program is part of the open-source Quantum ESPRESSO suite
     for quantum simulation of materials; please cite
         "P. Giannozzi et al., J. Phys.:Condens. Matter 21 395502 (2009);
         "P. Giannozzi et al., J. Phys.:Condens. Matter 29 465901 (2017);
         "P. Giannozzi et al., J. Chem. Phys. 152 154105 (2020);
          URL http://www.quantum-espresso.org", 
     in publications or presentations arising from this work. More details at
     http://www.quantum-espresso.org/quote

     Parallel version (MPI), running on    28 processors

     MPI processes distributed on     1 nodes
     150224 MiB available memory on the printing compute node when the environment starts
 
     Waiting for input...
     Reading input from standard input

     Current dimensions of program PWSCF are:
     Max number of different atomic species (ntypx) = 10
     Max number of k-points (npk) = 120000
     Max angular momentum in pseudopotentials (lmaxx) =  4
     file Zn.pbe-dnl-kjpaw_psl.1.0.0.UPF: wavefunction(s)  4S 3D renormalized
 
     K-points division:     npool     =       2
     R & G space division:  proc/nbgrp/npool/nimage =      14
     Subspace diagonalization in iterative solution of the eigenvalue problem:
     a serial algorithm will be used

 
     Parallelization info
     --------------------
     sticks:   dense  smooth     PW     G-vecs:    dense   smooth      PW
     Min          33      33     10                 1109     1109     186
     Max          34      34     11                 1118     1118     191
     Sum         475     475    151                15643    15643    2649
 
     Using Slab Decomposition
 


     bravais-lattice index     =            4
     lattice parameter (alat)  =       5.0000  a.u.
     unit-cell volume          =     198.1033 (a.u.)^3
     number of atoms/cell      =            2
     number of atomic types    =            1
     number of electrons       =        24.00
     number of Kohn-Sham states=           16
     kinetic-energy cutoff     =      70.0000  Ry
     charge density cutoff     =     280.0000  Ry
     scf convergence threshold =      4.0E-06
     mixing beta               =       0.7000
     number of iterations used =            8  plain     mixing
     Exchange-correlation= SLA  PW   PBX  PBC
                           (   1   4   3   4   0   0   0)

     celldm(1)=   5.000000  celldm(2)=   0.000000  celldm(3)=   1.830000
     celldm(4)=   0.000000  celldm(5)=   0.000000  celldm(6)=   0.000000

     crystal axes: (cart. coord. in units of alat)
               a(1) = (   1.000000   0.000000   0.000000 )  
               a(2) = (  -0.500000   0.866025   0.000000 )  
               a(3) = (   0.000000   0.000000   1.830000 )  

     reciprocal axes: (cart. coord. in units 2 pi/alat)
               b(1) = (  1.000000  0.577350  0.000000 )  
               b(2) = (  0.000000  1.154701  0.000000 )  
               b(3) = (  0.000000  0.000000  0.546448 )  


     PseudoPot. # 1 for Zn read from file:
     /truba/home/amuhaymin/ZnS/pseudo/QE/Zn.pbe-dnl-kjpaw_psl.1.0.0.UPF
     MD5 check sum: c608214d9520ac179f507641260889e3
     Pseudo is Projector augmented-wave + core cor, Zval = 12.0
     Generated using &quot;atomic&quot; code by A. Dal Corso  v.6.2.2
     Shape of augmentation charge: PSQ
     Using radial grid of 1201 points,  6 beta functions with: 
                l(1) =   0
                l(2) =   0
                l(3) =   1
                l(4) =   1
                l(5) =   2
                l(6) =   2
     Q(r) pseudized with 0 coefficients 


     atomic species   valence    mass     pseudopotential
        Zn            12.00    65.38000     Zn( 1.00)

     Starting magnetic structure 
     atomic species   magnetization
        Zn           0.000

     24 Sym. Ops., with inversion, found (12 have fractional translation)


                                    s                        frac. trans.

      isym =  1     identity                                     

 cryst.   s( 1) = (     1          0          0      )
                  (     0          1          0      )
                  (     0          0          1      )

 cart.    s( 1) = (  1.0000000  0.0000000  0.0000000 )
                  (  0.0000000  1.0000000  0.0000000 )
                  (  0.0000000  0.0000000  1.0000000 )


      isym =  2     180 deg rotation - cart. axis [0,0,1]        

 cryst.   s( 2) = (    -1          0          0      )    f =(  0.0000000 )
                  (     0         -1          0      )       (  0.0000000 )
                  (     0          0          1      )       ( -0.5000000 )

 cart.    s( 2) = ( -1.0000000  0.0000000  0.0000000 )    f =(  0.0000000 )
                  (  0.0000000 -1.0000000  0.0000000 )       (  0.0000000 )
                  (  0.0000000  0.0000000  1.0000000 )       ( -0.9150000 )


      isym =  3     180 deg rotation - cart. axis [0,1,0]        

 cryst.   s( 3) = (    -1          0          0      )    f =(  0.0000000 )
                  (     1          1          0      )       (  0.0000000 )
                  (     0          0         -1      )       ( -0.5000000 )

 cart.    s( 3) = ( -1.0000000  0.0000000  0.0000000 )    f =(  0.0000000 )
                  (  0.0000000  1.0000000  0.0000000 )       (  0.0000000 )
                  (  0.0000000  0.0000000 -1.0000000 )       ( -0.9150000 )


      isym =  4     180 deg rotation - cart. axis [1,0,0]        

 cryst.   s( 4) = (     1          0          0      )
                  (    -1         -1          0      )
                  (     0          0         -1      )

 cart.    s( 4) = (  1.0000000  0.0000000  0.0000000 )
                  (  0.0000000 -1.0000000  0.0000000 )
                  (  0.0000000  0.0000000 -1.0000000 )


      isym =  5      60 deg rotation - cryst. axis [0,0,1]       

 cryst.   s( 5) = (     1          1          0      )    f =(  0.0000000 )
                  (    -1          0          0      )       ( -0.0000000 )
                  (     0          0          1      )       ( -0.5000000 )

 cart.    s( 5) = (  0.5000000 -0.8660254  0.0000000 )    f =(  0.0000000 )
                  (  0.8660254  0.5000000  0.0000000 )       ( -0.0000000 )
                  (  0.0000000  0.0000000  1.0000000 )       ( -0.9150000 )


      isym =  6      60 deg rotation - cryst. axis [0,0,-1]      

 cryst.   s( 6) = (     0         -1          0      )    f =(  0.0000000 )
                  (     1          1          0      )       ( -0.0000000 )
                  (     0          0          1      )       ( -0.5000000 )

 cart.    s( 6) = (  0.5000000  0.8660254  0.0000000 )    f =(  0.0000000 )
                  ( -0.8660254  0.5000000  0.0000000 )       ( -0.0000000 )
                  (  0.0000000  0.0000000  1.0000000 )       ( -0.9150000 )


      isym =  7     120 deg rotation - cryst. axis [0,0,1]       

 cryst.   s( 7) = (     0          1          0      )
                  (    -1         -1          0      )
                  (     0          0          1      )

 cart.    s( 7) = ( -0.5000000 -0.8660254  0.0000000 )
                  (  0.8660254 -0.5000000  0.0000000 )
                  (  0.0000000  0.0000000  1.0000000 )


      isym =  8     120 deg rotation - cryst. axis [0,0,-1]      

 cryst.   s( 8) = (    -1         -1          0      )
                  (     1          0          0      )
                  (     0          0          1      )

 cart.    s( 8) = ( -0.5000000  0.8660254  0.0000000 )
                  ( -0.8660254 -0.5000000  0.0000000 )
                  (  0.0000000  0.0000000  1.0000000 )


      isym =  9     180 deg rotation - cryst. axis [1,-1,0]      

 cryst.   s( 9) = (     0         -1          0      )    f =(  0.0000000 )
                  (    -1          0          0      )       (  0.0000000 )
                  (     0          0         -1      )       ( -0.5000000 )

 cart.    s( 9) = (  0.5000000 -0.8660254  0.0000000 )    f =(  0.0000000 )
                  ( -0.8660254 -0.5000000  0.0000000 )       (  0.0000000 )
                  (  0.0000000  0.0000000 -1.0000000 )       ( -0.9150000 )


      isym = 10     180 deg rotation - cryst. axis [2,1,0]       

 cryst.   s(10) = (     1          1          0      )    f =(  0.0000000 )
                  (     0         -1          0      )       ( -0.0000000 )
                  (     0          0         -1      )       ( -0.5000000 )

 cart.    s(10) = (  0.5000000  0.8660254  0.0000000 )    f =(  0.0000000 )
                  (  0.8660254 -0.5000000  0.0000000 )       ( -0.0000000 )
                  (  0.0000000  0.0000000 -1.0000000 )       ( -0.9150000 )


      isym = 11     180 deg rotation - cryst. axis [0,1,0]       

 cryst.   s(11) = (    -1         -1          0      )
                  (     0          1          0      )
                  (     0          0         -1      )

 cart.    s(11) = ( -0.5000000 -0.8660254  0.0000000 )
                  ( -0.8660254  0.5000000  0.0000000 )
                  (  0.0000000  0.0000000 -1.0000000 )


      isym = 12     180 deg rotation - cryst. axis [1,1,0]       

 cryst.   s(12) = (     0          1          0      )
                  (     1          0          0      )
                  (     0          0         -1      )

 cart.    s(12) = ( -0.5000000  0.8660254  0.0000000 )
                  (  0.8660254  0.5000000  0.0000000 )
                  (  0.0000000  0.0000000 -1.0000000 )


      isym = 13     inversion                                    

 cryst.   s(13) = (    -1          0          0      )
                  (     0         -1          0      )
                  (     0          0         -1      )

 cart.    s(13) = ( -1.0000000  0.0000000  0.0000000 )
                  (  0.0000000 -1.0000000  0.0000000 )
                  (  0.0000000  0.0000000 -1.0000000 )


      isym = 14     inv. 180 deg rotation - cart. axis [0,0,1]   

 cryst.   s(14) = (     1          0          0      )    f =(  0.0000000 )
                  (     0          1          0      )       (  0.0000000 )
                  (     0          0         -1      )       ( -0.5000000 )

 cart.    s(14) = (  1.0000000  0.0000000  0.0000000 )    f =(  0.0000000 )
                  (  0.0000000  1.0000000  0.0000000 )       (  0.0000000 )
                  (  0.0000000  0.0000000 -1.0000000 )       ( -0.9150000 )


      isym = 15     inv. 180 deg rotation - cart. axis [0,1,0]   

 cryst.   s(15) = (     1          0          0      )    f =(  0.0000000 )
                  (    -1         -1          0      )       (  0.0000000 )
                  (     0          0          1      )       ( -0.5000000 )

 cart.    s(15) = (  1.0000000  0.0000000  0.0000000 )    f =(  0.0000000 )
                  (  0.0000000 -1.0000000  0.0000000 )       (  0.0000000 )
                  (  0.0000000  0.0000000  1.0000000 )       ( -0.9150000 )


      isym = 16     inv. 180 deg rotation - cart. axis [1,0,0]   

 cryst.   s(16) = (    -1          0          0      )
                  (     1          1          0      )
                  (     0          0          1      )

 cart.    s(16) = ( -1.0000000  0.0000000  0.0000000 )
                  (  0.0000000  1.0000000  0.0000000 )
                  (  0.0000000  0.0000000  1.0000000 )


      isym = 17     inv.  60 deg rotation - cryst. axis [0,0,1]  

 cryst.   s(17) = (    -1         -1          0      )    f =(  0.0000000 )
                  (     1          0          0      )       (  0.0000000 )
                  (     0          0         -1      )       ( -0.5000000 )

 cart.    s(17) = ( -0.5000000  0.8660254  0.0000000 )    f =(  0.0000000 )
                  ( -0.8660254 -0.5000000  0.0000000 )       (  0.0000000 )
                  (  0.0000000  0.0000000 -1.0000000 )       ( -0.9150000 )


      isym = 18     inv.  60 deg rotation - cryst. axis [0,0,-1] 

 cryst.   s(18) = (     0          1          0      )    f =(  0.0000000 )
                  (    -1         -1          0      )       ( -0.0000000 )
                  (     0          0         -1      )       ( -0.5000000 )

 cart.    s(18) = ( -0.5000000 -0.8660254  0.0000000 )    f =(  0.0000000 )
                  (  0.8660254 -0.5000000  0.0000000 )       ( -0.0000000 )
                  (  0.0000000  0.0000000 -1.0000000 )       ( -0.9150000 )


      isym = 19     inv. 120 deg rotation - cryst. axis [0,0,1]  

 cryst.   s(19) = (     0         -1          0      )
                  (     1          1          0      )
                  (     0          0         -1      )

 cart.    s(19) = (  0.5000000  0.8660254  0.0000000 )
                  ( -0.8660254  0.5000000  0.0000000 )
                  (  0.0000000  0.0000000 -1.0000000 )


      isym = 20     inv. 120 deg rotation - cryst. axis [0,0,-1] 

 cryst.   s(20) = (     1          1          0      )
                  (    -1          0          0      )
                  (     0          0         -1      )

 cart.    s(20) = (  0.5000000 -0.8660254  0.0000000 )
                  (  0.8660254  0.5000000  0.0000000 )
                  (  0.0000000  0.0000000 -1.0000000 )


      isym = 21     inv. 180 deg rotation - cryst. axis [1,-1,0] 

 cryst.   s(21) = (     0          1          0      )    f =(  0.0000000 )
                  (     1          0          0      )       ( -0.0000000 )
                  (     0          0          1      )       ( -0.5000000 )

 cart.    s(21) = ( -0.5000000  0.8660254  0.0000000 )    f =(  0.0000000 )
                  (  0.8660254  0.5000000  0.0000000 )       ( -0.0000000 )
                  (  0.0000000  0.0000000  1.0000000 )       ( -0.9150000 )


      isym = 22     inv. 180 deg rotation - cryst. axis [2,1,0]  

 cryst.   s(22) = (    -1         -1          0      )    f =(  0.0000000 )
                  (     0          1          0      )       ( -0.0000000 )
                  (     0          0          1      )       ( -0.5000000 )

 cart.    s(22) = ( -0.5000000 -0.8660254  0.0000000 )    f =(  0.0000000 )
                  ( -0.8660254  0.5000000  0.0000000 )       ( -0.0000000 )
                  (  0.0000000  0.0000000  1.0000000 )       ( -0.9150000 )


      isym = 23     inv. 180 deg rotation - cryst. axis [0,1,0]  

 cryst.   s(23) = (     1          1          0      )
                  (     0         -1          0      )
                  (     0          0          1      )

 cart.    s(23) = (  0.5000000  0.8660254  0.0000000 )
                  (  0.8660254 -0.5000000  0.0000000 )
                  (  0.0000000  0.0000000  1.0000000 )


      isym = 24     inv. 180 deg rotation - cryst. axis [1,1,0]  

 cryst.   s(24) = (     0         -1          0      )
                  (    -1          0          0      )
                  (     0          0          1      )

 cart.    s(24) = (  0.5000000 -0.8660254  0.0000000 )
                  ( -0.8660254 -0.5000000  0.0000000 )
                  (  0.0000000  0.0000000  1.0000000 )


     point group D_6h(6/mmm)
     there are 12 classes
     the character table:

       E     2C6   2C3   C2    3C2'  3C2'' i     2S3   2S6   s_h   3s_d  3s_v 
A_1g   1.00  1.00  1.00  1.00  1.00  1.00  1.00  1.00  1.00  1.00  1.00  1.00
A_2g   1.00  1.00  1.00  1.00 -1.00 -1.00  1.00  1.00  1.00  1.00 -1.00 -1.00
B_1g   1.00 -1.00  1.00 -1.00  1.00 -1.00  1.00 -1.00  1.00 -1.00  1.00 -1.00
B_2g   1.00 -1.00  1.00 -1.00 -1.00  1.00  1.00 -1.00  1.00 -1.00 -1.00  1.00
E_1g   2.00  1.00 -1.00 -2.00  0.00  0.00  2.00  1.00 -1.00 -2.00  0.00  0.00
E_2g   2.00 -1.00 -1.00  2.00  0.00  0.00  2.00 -1.00 -1.00  2.00  0.00  0.00
A_1u   1.00  1.00  1.00  1.00  1.00  1.00 -1.00 -1.00 -1.00 -1.00 -1.00 -1.00
A_2u   1.00  1.00  1.00  1.00 -1.00 -1.00 -1.00 -1.00 -1.00 -1.00  1.00  1.00
B_1u   1.00 -1.00  1.00 -1.00  1.00 -1.00 -1.00  1.00 -1.00  1.00 -1.00  1.00
B_2u   1.00 -1.00  1.00 -1.00 -1.00  1.00 -1.00  1.00 -1.00  1.00  1.00 -1.00
E_1u   2.00  1.00 -1.00 -2.00  0.00  0.00 -2.00 -1.00  1.00  2.00  0.00  0.00
E_2u   2.00 -1.00 -1.00  2.00  0.00  0.00 -2.00  1.00  1.00 -2.00  0.00  0.00

     the symmetry operations in each class and the name of the first element:

     E        1
          identity                                               
     2C6      5    6
           60 deg rotation - cryst. axis [0,0,1]                 
     2C3      7    8
          120 deg rotation - cryst. axis [0,0,1]                 
     C2       2
          180 deg rotation - cart. axis [0,0,1]                  
     3C2'     4   12   11
          180 deg rotation - cart. axis [1,0,0]                  
     3C2''    3    9   10
          180 deg rotation - cart. axis [0,1,0]                  
     i       13
          inversion                                              
     2S3     17   18
          inv.  60 deg rotation - cryst. axis [0,0,1]            
     2S6     19   20
          inv. 120 deg rotation - cryst. axis [0,0,1]            
     s_h     14
          inv. 180 deg rotation - cart. axis [0,0,1]             
     3s_d    16   24   23
          inv. 180 deg rotation - cart. axis [1,0,0]             
     3s_v    15   21   22
          inv. 180 deg rotation - cart. axis [0,1,0]             

   Cartesian axes

     site n.     atom                  positions (alat units)
         1           Zn  tau(   1) = (  -0.0000000   0.5773503   0.4575000  )
         2           Zn  tau(   2) = (   0.5000000   0.2886751   1.3725000  )

   Crystallographic axes

     site n.     atom                  positions (cryst. coord.)
         1           Zn  tau(   1) = (  0.3333333  0.6666667  0.2500000  )
         2           Zn  tau(   2) = (  0.6666667  0.3333333  0.7500000  )

     number of k points=    96  Marzari-Vanderbilt smearing, width (Ry)=  0.0005
                       cart. coord. in units 2pi/alat
        k(    1) = (   0.0000000   0.0000000   0.0000000), wk =   0.0007289
        k(    2) = (   0.0000000   0.0000000   0.0780640), wk =   0.0014577
        k(    3) = (   0.0000000   0.0000000   0.1561280), wk =   0.0014577
        k(    4) = (   0.0000000   0.0000000   0.2341920), wk =   0.0014577
        k(    5) = (   0.0000000   0.0824786   0.0000000), wk =   0.0043732
        k(    6) = (   0.0000000   0.0824786   0.0780640), wk =   0.0087464
        k(    7) = (   0.0000000   0.0824786   0.1561280), wk =   0.0087464
        k(    8) = (   0.0000000   0.0824786   0.2341920), wk =   0.0087464
        k(    9) = (   0.0000000   0.1649572   0.0000000), wk =   0.0043732
        k(   10) = (   0.0000000   0.1649572   0.0780640), wk =   0.0087464
        k(   11) = (   0.0000000   0.1649572   0.1561280), wk =   0.0087464
        k(   12) = (   0.0000000   0.1649572   0.2341920), wk =   0.0087464
        k(   13) = (   0.0000000   0.2474358   0.0000000), wk =   0.0043732
        k(   14) = (   0.0000000   0.2474358   0.0780640), wk =   0.0087464
        k(   15) = (   0.0000000   0.2474358   0.1561280), wk =   0.0087464
        k(   16) = (   0.0000000   0.2474358   0.2341920), wk =   0.0087464
        k(   17) = (   0.0000000   0.3299144   0.0000000), wk =   0.0043732
        k(   18) = (   0.0000000   0.3299144   0.0780640), wk =   0.0087464
        k(   19) = (   0.0000000   0.3299144   0.1561280), wk =   0.0087464
        k(   20) = (   0.0000000   0.3299144   0.2341920), wk =   0.0087464
        k(   21) = (   0.0000000   0.4123930   0.0000000), wk =   0.0043732
        k(   22) = (   0.0000000   0.4123930   0.0780640), wk =   0.0087464
        k(   23) = (   0.0000000   0.4123930   0.1561280), wk =   0.0087464
        k(   24) = (   0.0000000   0.4123930   0.2341920), wk =   0.0087464
        k(   25) = (   0.0000000   0.4948717   0.0000000), wk =   0.0043732
        k(   26) = (   0.0000000   0.4948717   0.0780640), wk =   0.0087464
        k(   27) = (   0.0000000   0.4948717   0.1561280), wk =   0.0087464
        k(   28) = (   0.0000000   0.4948717   0.2341920), wk =   0.0087464
        k(   29) = (   0.0000000  -0.5773503   0.0000000), wk =   0.0021866
        k(   30) = (   0.0000000  -0.5773503   0.0780640), wk =   0.0043732
        k(   31) = (   0.0000000  -0.5773503   0.1561280), wk =   0.0043732
        k(   32) = (   0.0000000  -0.5773503   0.2341920), wk =   0.0043732
        k(   33) = (   0.0714286   0.1237179   0.0000000), wk =   0.0043732
        k(   34) = (   0.0714286   0.1237179   0.0780640), wk =   0.0087464
        k(   35) = (   0.0714286   0.1237179   0.1561280), wk =   0.0087464
        k(   36) = (   0.0714286   0.1237179   0.2341920), wk =   0.0087464
        k(   37) = (   0.0714286   0.2061965   0.0000000), wk =   0.0087464
        k(   38) = (   0.0714286   0.2061965   0.0780640), wk =   0.0174927
        k(   39) = (   0.0714286   0.2061965   0.1561280), wk =   0.0174927
        k(   40) = (   0.0714286   0.2061965   0.2341920), wk =   0.0174927
        k(   41) = (   0.0714286   0.2886751   0.0000000), wk =   0.0087464
        k(   42) = (   0.0714286   0.2886751   0.0780640), wk =   0.0174927
        k(   43) = (   0.0714286   0.2886751   0.1561280), wk =   0.0174927
        k(   44) = (   0.0714286   0.2886751   0.2341920), wk =   0.0174927
        k(   45) = (   0.0714286   0.3711537   0.0000000), wk =   0.0087464
        k(   46) = (   0.0714286   0.3711537   0.0780640), wk =   0.0174927
        k(   47) = (   0.0714286   0.3711537   0.1561280), wk =   0.0174927
        k(   48) = (   0.0714286   0.3711537   0.2341920), wk =   0.0174927
        k(   49) = (   0.0714286   0.4536324   0.0000000), wk =   0.0087464
        k(   50) = (   0.0714286   0.4536324   0.0780640), wk =   0.0174927
        k(   51) = (   0.0714286   0.4536324   0.1561280), wk =   0.0174927
        k(   52) = (   0.0714286   0.4536324   0.2341920), wk =   0.0174927
        k(   53) = (   0.0714286   0.5361110   0.0000000), wk =   0.0087464
        k(   54) = (   0.0714286   0.5361110   0.0780640), wk =   0.0174927
        k(   55) = (   0.0714286   0.5361110   0.1561280), wk =   0.0174927
        k(   56) = (   0.0714286   0.5361110   0.2341920), wk =   0.0174927
        k(   57) = (   0.1428571   0.2474358   0.0000000), wk =   0.0043732
        k(   58) = (   0.1428571   0.2474358   0.0780640), wk =   0.0087464
        k(   59) = (   0.1428571   0.2474358   0.1561280), wk =   0.0087464
        k(   60) = (   0.1428571   0.2474358   0.2341920), wk =   0.0087464
        k(   61) = (   0.1428571   0.3299144   0.0000000), wk =   0.0087464
        k(   62) = (   0.1428571   0.3299144   0.0780640), wk =   0.0174927
        k(   63) = (   0.1428571   0.3299144   0.1561280), wk =   0.0174927
        k(   64) = (   0.1428571   0.3299144   0.2341920), wk =   0.0174927
        k(   65) = (   0.1428571   0.4123930   0.0000000), wk =   0.0087464
        k(   66) = (   0.1428571   0.4123930   0.0780640), wk =   0.0174927
        k(   67) = (   0.1428571   0.4123930   0.1561280), wk =   0.0174927
        k(   68) = (   0.1428571   0.4123930   0.2341920), wk =   0.0174927
        k(   69) = (   0.1428571   0.4948717   0.0000000), wk =   0.0087464
        k(   70) = (   0.1428571   0.4948717   0.0780640), wk =   0.0174927
        k(   71) = (   0.1428571   0.4948717   0.1561280), wk =   0.0174927
        k(   72) = (   0.1428571   0.4948717   0.2341920), wk =   0.0174927
        k(   73) = (   0.1428571   0.5773503   0.0000000), wk =   0.0043732
        k(   74) = (   0.1428571   0.5773503   0.0780640), wk =   0.0087464
        k(   75) = (   0.1428571   0.5773503   0.1561280), wk =   0.0087464
        k(   76) = (   0.1428571   0.5773503   0.2341920), wk =   0.0087464
        k(   77) = (   0.2142857   0.3711537   0.0000000), wk =   0.0043732
        k(   78) = (   0.2142857   0.3711537   0.0780640), wk =   0.0087464
        k(   79) = (   0.2142857   0.3711537   0.1561280), wk =   0.0087464
        k(   80) = (   0.2142857   0.3711537   0.2341920), wk =   0.0087464
        k(   81) = (   0.2142857   0.4536324   0.0000000), wk =   0.0087464
        k(   82) = (   0.2142857   0.4536324   0.0780640), wk =   0.0174927
        k(   83) = (   0.2142857   0.4536324   0.1561280), wk =   0.0174927
        k(   84) = (   0.2142857   0.4536324   0.2341920), wk =   0.0174927
        k(   85) = (   0.2142857   0.5361110   0.0000000), wk =   0.0087464
        k(   86) = (   0.2142857   0.5361110   0.0780640), wk =   0.0174927
        k(   87) = (   0.2142857   0.5361110   0.1561280), wk =   0.0174927
        k(   88) = (   0.2142857   0.5361110   0.2341920), wk =   0.0174927
        k(   89) = (   0.2857143   0.4948717   0.0000000), wk =   0.0043732
        k(   90) = (   0.2857143   0.4948717   0.0780640), wk =   0.0087464
        k(   91) = (   0.2857143   0.4948717   0.1561280), wk =   0.0087464
        k(   92) = (   0.2857143   0.4948717   0.2341920), wk =   0.0087464
        k(   93) = (   0.2857143   0.5773503   0.0000000), wk =   0.0043732
        k(   94) = (   0.2857143   0.5773503   0.0780640), wk =   0.0087464
        k(   95) = (   0.2857143   0.5773503   0.1561280), wk =   0.0087464
        k(   96) = (   0.2857143   0.5773503   0.2341920), wk =   0.0087464

                       cryst. coord.
        k(    1) = (   0.0000000   0.0000000   0.0000000), wk =   0.0007289
        k(    2) = (   0.0000000   0.0000000   0.1428571), wk =   0.0014577
        k(    3) = (   0.0000000   0.0000000   0.2857143), wk =   0.0014577
        k(    4) = (   0.0000000   0.0000000   0.4285714), wk =   0.0014577
        k(    5) = (   0.0000000   0.0714286   0.0000000), wk =   0.0043732
        k(    6) = (   0.0000000   0.0714286   0.1428571), wk =   0.0087464
        k(    7) = (   0.0000000   0.0714286   0.2857143), wk =   0.0087464
        k(    8) = (   0.0000000   0.0714286   0.4285714), wk =   0.0087464
        k(    9) = (   0.0000000   0.1428571   0.0000000), wk =   0.0043732
        k(   10) = (   0.0000000   0.1428571   0.1428571), wk =   0.0087464
        k(   11) = (   0.0000000   0.1428571   0.2857143), wk =   0.0087464
        k(   12) = (   0.0000000   0.1428571   0.4285714), wk =   0.0087464
        k(   13) = (   0.0000000   0.2142857   0.0000000), wk =   0.0043732
        k(   14) = (   0.0000000   0.2142857   0.1428571), wk =   0.0087464
        k(   15) = (   0.0000000   0.2142857   0.2857143), wk =   0.0087464
        k(   16) = (   0.0000000   0.2142857   0.4285714), wk =   0.0087464
        k(   17) = (   0.0000000   0.2857143   0.0000000), wk =   0.0043732
        k(   18) = (   0.0000000   0.2857143   0.1428571), wk =   0.0087464
        k(   19) = (   0.0000000   0.2857143   0.2857143), wk =   0.0087464
        k(   20) = (   0.0000000   0.2857143   0.4285714), wk =   0.0087464
        k(   21) = (   0.0000000   0.3571429   0.0000000), wk =   0.0043732
        k(   22) = (   0.0000000   0.3571429   0.1428571), wk =   0.0087464
        k(   23) = (   0.0000000   0.3571429   0.2857143), wk =   0.0087464
        k(   24) = (   0.0000000   0.3571429   0.4285714), wk =   0.0087464
        k(   25) = (   0.0000000   0.4285714   0.0000000), wk =   0.0043732
        k(   26) = (   0.0000000   0.4285714   0.1428571), wk =   0.0087464
        k(   27) = (   0.0000000   0.4285714   0.2857143), wk =   0.0087464
        k(   28) = (   0.0000000   0.4285714   0.4285714), wk =   0.0087464
        k(   29) = (   0.0000000  -0.5000000   0.0000000), wk =   0.0021866
        k(   30) = (   0.0000000  -0.5000000   0.1428571), wk =   0.0043732
        k(   31) = (   0.0000000  -0.5000000   0.2857143), wk =   0.0043732
        k(   32) = (   0.0000000  -0.5000000   0.4285714), wk =   0.0043732
        k(   33) = (   0.0714286   0.0714286   0.0000000), wk =   0.0043732
        k(   34) = (   0.0714286   0.0714286   0.1428571), wk =   0.0087464
        k(   35) = (   0.0714286   0.0714286   0.2857143), wk =   0.0087464
        k(   36) = (   0.0714286   0.0714286   0.4285714), wk =   0.0087464
        k(   37) = (   0.0714286   0.1428571   0.0000000), wk =   0.0087464
        k(   38) = (   0.0714286   0.1428571   0.1428571), wk =   0.0174927
        k(   39) = (   0.0714286   0.1428571   0.2857143), wk =   0.0174927
        k(   40) = (   0.0714286   0.1428571   0.4285714), wk =   0.0174927
        k(   41) = (   0.0714286   0.2142857   0.0000000), wk =   0.0087464
        k(   42) = (   0.0714286   0.2142857   0.1428571), wk =   0.0174927
        k(   43) = (   0.0714286   0.2142857   0.2857143), wk =   0.0174927
        k(   44) = (   0.0714286   0.2142857   0.4285714), wk =   0.0174927
        k(   45) = (   0.0714286   0.2857143   0.0000000), wk =   0.0087464
        k(   46) = (   0.0714286   0.2857143   0.1428571), wk =   0.0174927
        k(   47) = (   0.0714286   0.2857143   0.2857143), wk =   0.0174927
        k(   48) = (   0.0714286   0.2857143   0.4285714), wk =   0.0174927
        k(   49) = (   0.0714286   0.3571429   0.0000000), wk =   0.0087464
        k(   50) = (   0.0714286   0.3571429   0.1428571), wk =   0.0174927
        k(   51) = (   0.0714286   0.3571429   0.2857143), wk =   0.0174927
        k(   52) = (   0.0714286   0.3571429   0.4285714), wk =   0.0174927
        k(   53) = (   0.0714286   0.4285714   0.0000000), wk =   0.0087464
        k(   54) = (   0.0714286   0.4285714   0.1428571), wk =   0.0174927
        k(   55) = (   0.0714286   0.4285714   0.2857143), wk =   0.0174927
        k(   56) = (   0.0714286   0.4285714   0.4285714), wk =   0.0174927
        k(   57) = (   0.1428571   0.1428571   0.0000000), wk =   0.0043732
        k(   58) = (   0.1428571   0.1428571   0.1428571), wk =   0.0087464
        k(   59) = (   0.1428571   0.1428571   0.2857143), wk =   0.0087464
        k(   60) = (   0.1428571   0.1428571   0.4285714), wk =   0.0087464
        k(   61) = (   0.1428571   0.2142857   0.0000000), wk =   0.0087464
        k(   62) = (   0.1428571   0.2142857   0.1428571), wk =   0.0174927
        k(   63) = (   0.1428571   0.2142857   0.2857143), wk =   0.0174927
        k(   64) = (   0.1428571   0.2142857   0.4285714), wk =   0.0174927
        k(   65) = (   0.1428571   0.2857143   0.0000000), wk =   0.0087464
        k(   66) = (   0.1428571   0.2857143   0.1428571), wk =   0.0174927
        k(   67) = (   0.1428571   0.2857143   0.2857143), wk =   0.0174927
        k(   68) = (   0.1428571   0.2857143   0.4285714), wk =   0.0174927
        k(   69) = (   0.1428571   0.3571429   0.0000000), wk =   0.0087464
        k(   70) = (   0.1428571   0.3571429   0.1428571), wk =   0.0174927
        k(   71) = (   0.1428571   0.3571429   0.2857143), wk =   0.0174927
        k(   72) = (   0.1428571   0.3571429   0.4285714), wk =   0.0174927
        k(   73) = (   0.1428571   0.4285714   0.0000000), wk =   0.0043732
        k(   74) = (   0.1428571   0.4285714   0.1428571), wk =   0.0087464
        k(   75) = (   0.1428571   0.4285714   0.2857143), wk =   0.0087464
        k(   76) = (   0.1428571   0.4285714   0.4285714), wk =   0.0087464
        k(   77) = (   0.2142857   0.2142857   0.0000000), wk =   0.0043732
        k(   78) = (   0.2142857   0.2142857   0.1428571), wk =   0.0087464
        k(   79) = (   0.2142857   0.2142857   0.2857143), wk =   0.0087464
        k(   80) = (   0.2142857   0.2142857   0.4285714), wk =   0.0087464
        k(   81) = (   0.2142857   0.2857143   0.0000000), wk =   0.0087464
        k(   82) = (   0.2142857   0.2857143   0.1428571), wk =   0.0174927
        k(   83) = (   0.2142857   0.2857143   0.2857143), wk =   0.0174927
        k(   84) = (   0.2142857   0.2857143   0.4285714), wk =   0.0174927
        k(   85) = (   0.2142857   0.3571429   0.0000000), wk =   0.0087464
        k(   86) = (   0.2142857   0.3571429   0.1428571), wk =   0.0174927
        k(   87) = (   0.2142857   0.3571429   0.2857143), wk =   0.0174927
        k(   88) = (   0.2142857   0.3571429   0.4285714), wk =   0.0174927
        k(   89) = (   0.2857143   0.2857143   0.0000000), wk =   0.0043732
        k(   90) = (   0.2857143   0.2857143   0.1428571), wk =   0.0087464
        k(   91) = (   0.2857143   0.2857143   0.2857143), wk =   0.0087464
        k(   92) = (   0.2857143   0.2857143   0.4285714), wk =   0.0087464
        k(   93) = (   0.2857143   0.3571429   0.0000000), wk =   0.0043732
        k(   94) = (   0.2857143   0.3571429   0.1428571), wk =   0.0087464
        k(   95) = (   0.2857143   0.3571429   0.2857143), wk =   0.0087464
        k(   96) = (   0.2857143   0.3571429   0.4285714), wk =   0.0087464

     Dense  grid:    15643 G-vectors     FFT dimensions: (  27,  27,  50)

     Dynamical RAM for                 wfc:       0.03 MB

     Dynamical RAM for     wfc (w. buffer):       3.29 MB

     Dynamical RAM for           str. fact:       0.02 MB

     Dynamical RAM for           local pot:       0.00 MB

     Dynamical RAM for          nlocal pot:       0.08 MB

     Dynamical RAM for                qrad:       1.34 MB

     Dynamical RAM for          rho,v,vnew:       0.24 MB

     Dynamical RAM for               rhoin:       0.08 MB

     Dynamical RAM for            rho*nmix:       0.55 MB

     Dynamical RAM for           G-vectors:       0.07 MB

     Dynamical RAM for          h,s,v(r/c):       0.05 MB

     Dynamical RAM for          <psi|beta>:       0.01 MB

     Dynamical RAM for                 psi:       0.07 MB

     Dynamical RAM for                hpsi:       0.07 MB

     Dynamical RAM for                spsi:       0.07 MB

     Dynamical RAM for      wfcinit/wfcrot:       0.07 MB

     Dynamical RAM for           addusdens:       1.63 MB

     Estimated static dynamical RAM per process >       5.28 MB

     Estimated max dynamical RAM per process >       7.46 MB

     Estimated total dynamical RAM >     201.19 MB

     Check: negative core charge=   -0.000003
     Generating pointlists ...
     new r_m :   0.4125 (alat units)  2.0625 (a.u.) for type    1

     The initial density is read from file :
     ./out/Zn.save/charge-density


     starting charge      24.1319, renormalised to      24.0000

     negative rho (up, down):  4.832E-01 4.832E-01
     Starting wfcs from file
     Checking if some PAW data can be deallocated... 

     total cpu time spent up to now is        0.5 secs

     Self-consistent Calculation

     iteration #  1     ecut=    70.00 Ry     beta= 0.70
     Davidson diagonalization with overlap

---- Real-time Memory Report at c_bands before calling an iterative solver
            59 MiB given to the printing process from OS
             0 MiB allocation reported by mallinfo(arena+hblkhd)
        149491 MiB available memory on the node where the printing process lives
------------------
     c_bands:  2 eigenvalues not converged
     ethr =  1.00E-05,  avg # of iterations =  8.5

     negative rho (up, down):  1.589E-02 1.589E-02

     total cpu time spent up to now is        2.4 secs

     total energy              =    -487.28972690 Ry
     estimated scf accuracy    <       0.27090969 Ry

     total magnetization       =    -0.00 Bohr mag/cell
     absolute magnetization    =     0.00 Bohr mag/cell

     iteration #  2     ecut=    70.00 Ry     beta= 0.70
     Davidson diagonalization with overlap

---- Real-time Memory Report at c_bands before calling an iterative solver
            80 MiB given to the printing process from OS
             0 MiB allocation reported by mallinfo(arena+hblkhd)
        149172 MiB available memory on the node where the printing process lives
------------------
     ethr =  1.13E-03,  avg # of iterations =  2.0

     total cpu time spent up to now is        3.2 secs

     total energy              =    -487.44190847 Ry
     estimated scf accuracy    <       0.02532973 Ry

     total magnetization       =    -0.00 Bohr mag/cell
     absolute magnetization    =     0.00 Bohr mag/cell

     iteration #  3     ecut=    70.00 Ry     beta= 0.70
     Davidson diagonalization with overlap

---- Real-time Memory Report at c_bands before calling an iterative solver
            81 MiB given to the printing process from OS
             0 MiB allocation reported by mallinfo(arena+hblkhd)
        149154 MiB available memory on the node where the printing process lives
------------------
     ethr =  1.06E-04,  avg # of iterations =  2.3

     total cpu time spent up to now is        4.2 secs

     total energy              =    -487.44599233 Ry
     estimated scf accuracy    <       0.00139873 Ry

     total magnetization       =    -0.00 Bohr mag/cell
     absolute magnetization    =     0.00 Bohr mag/cell

     iteration #  4     ecut=    70.00 Ry     beta= 0.70
     Davidson diagonalization with overlap

---- Real-time Memory Report at c_bands before calling an iterative solver
            81 MiB given to the printing process from OS
             0 MiB allocation reported by mallinfo(arena+hblkhd)
        149143 MiB available memory on the node where the printing process lives
------------------
     ethr =  5.83E-06,  avg # of iterations =  4.0

     total cpu time spent up to now is        5.2 secs

     total energy              =    -487.44654620 Ry
     estimated scf accuracy    <       0.00054348 Ry

     total magnetization       =    -0.00 Bohr mag/cell
     absolute magnetization    =     0.00 Bohr mag/cell

     iteration #  5     ecut=    70.00 Ry     beta= 0.70
     Davidson diagonalization with overlap

---- Real-time Memory Report at c_bands before calling an iterative solver
            82 MiB given to the printing process from OS
             0 MiB allocation reported by mallinfo(arena+hblkhd)
        149134 MiB available memory on the node where the printing process lives
------------------
     ethr =  2.26E-06,  avg # of iterations =  2.3
 
     Magnetic moment per site  (integrated on atomic sphere of radius R)
     atom   1 (R=0.413)  charge= 10.6904  magn= -0.0000
     atom   2 (R=0.413)  charge= 10.6904  magn= -0.0000

     total cpu time spent up to now is        6.1 secs

     End of self-consistent calculation

 ------ SPIN UP ------------


          k = 0.0000 0.0000 0.0000 (  1957 PWs)   bands (ev):

     0.9428   2.9469   3.7137   3.9438   3.9438   4.0019   4.0019   4.3293
     4.3294   4.5692   4.5693   7.8846   8.8125  26.0262  29.1659  29.1660

     occupation numbers 
     1.0000   1.0000   1.0000   1.0000   1.0000   1.0000   1.0000   1.0000
     1.0000   1.0000   1.0000   1.0000   1.0000   0.0000   0.0000   0.0000

          k = 0.0000 0.0000 0.0781 (  1969 PWs)   bands (ev):

     1.0729   2.9314   3.7138   3.9414   3.9414   3.9952   3.9952   4.3465
     4.3466   4.5613   4.5614   6.5294  10.4516  23.9687  29.2964  29.2970

     occupation numbers 
     1.0000   1.0000   1.0000   1.0000   1.0000   1.0000   1.0000   1.0000
     1.0000   1.0000   1.0000   1.0000   1.0000   0.0000   0.0000   0.0000

          k = 0.0000 0.0000 0.1561 (  1986 PWs)   bands (ev):

     1.4507   2.8505   3.7290   3.9388   3.9388   3.9780   3.9780   4.3905
     4.3906   4.5372   4.5373   5.1347  12.7286  20.9541  29.6734  29.6738

     occupation numbers 
     1.0000   1.0000   1.0000   1.0000   1.0000   1.0000   1.0000   1.0000
     1.0000   1.0000   1.0000   1.0000   0.0000   0.0000   0.0000   0.0000

          k = 0.0000 0.0000 0.2342 (  1968 PWs)   bands (ev):

     2.0161   2.5709   3.8240   3.9437   3.9437   3.9582   3.9582   4.2035
     4.4455   4.4456   4.4974   4.4974  15.2612  18.0151  30.2357  30.2360

     occupation numbers 
     1.0000   1.0000   1.0000   1.0000   1.0000   1.0000   1.0000   1.0000
     1.0000   1.0000   1.0000   1.0000   0.0000   0.0000   0.0000   0.0000

          k = 0.0000 0.0825 0.0000 (  1957 PWs)   bands (ev):

     1.0960   3.0145   3.7281   3.9297   3.9810   3.9852   4.0371   4.2951
     4.3141   4.4760   4.5717   8.1381   8.8907  26.1923  26.6344  27.8549

     occupation numbers 
     1.0000   1.0000   1.0000   1.0000   1.0000   1.0000   1.0000   1.0000
     1.0000   1.0000   1.0000   1.0000   1.0000   0.0000   0.0000   0.0000

          k = 0.0000 0.0825 0.0781 (  1968 PWs)   bands (ev):

     1.2253   3.0033   3.7275   3.9243   3.9767   3.9779   4.0301   4.3171
     4.3329   4.4586   4.5630   6.7276  10.5916  24.1069  26.7851  27.9922

     occupation numbers 
     1.0000   1.0000   1.0000   1.0000   1.0000   1.0000   1.0000   1.0000
     1.0000   1.0000   1.0000   1.0000   1.0000   0.0000   0.0000   0.0000

          k = 0.0000 0.0825 0.1561 (  1980 PWs)   bands (ev):

     1.5998   2.9380   3.7367   3.9176   3.9549   3.9743   4.0127   4.3545
     4.3801   4.4032   4.5367   5.3677  12.8726  21.0928  27.1733  28.4000

     occupation numbers 
     1.0000   1.0000   1.0000   1.0000   1.0000   1.0000   1.0000   1.0000
     1.0000   1.0000   1.0000   1.0000   0.0000   0.0000   0.0000   0.0000

          k = 0.0000 0.0825 0.2342 (  1984 PWs)   bands (ev):

     2.1567   2.6883   3.8064   3.9229   3.9287   3.9785   3.9928   4.1015
     4.4386   4.4702   4.4938   4.6468  15.4041  18.1561  27.8107  28.6865

     occupation numbers 
     1.0000   1.0000   1.0000   1.0000   1.0000   1.0000   1.0000   1.0000
     1.0000   1.0000   1.0000   1.0000   0.0000   0.0000   0.0000   0.0000

          k = 0.0000 0.1650 0.0000 (  1959 PWs)   bands (ev):

     1.5457   3.1863   3.7493   3.9010   3.9729   4.0866   4.1366   4.1510
     4.2740   4.3177   4.5758   8.8226   9.1430  23.2215  26.1612  26.6360

     occupation numbers 
     1.0000   1.0000   1.0000   1.0000   1.0000   1.0000   1.0000   1.0000
     1.0000   1.0000   1.0000   1.0000   1.0000   0.0000   0.0000   0.0000

          k = 0.0000 0.1650 0.0781 (  1964 PWs)   bands (ev):

     1.6710   3.1860   3.7513   3.8863   3.9492   4.0806   4.1286   4.1662
     4.2983   4.3224   4.5652   7.2349  11.0191  23.3241  24.5656  26.3069

     occupation numbers 
     1.0000   1.0000   1.0000   1.0000   1.0000   1.0000   1.0000   1.0000
     1.0000   1.0000   1.0000   1.0000   1.0000   0.0000   0.0000   0.0000

          k = 0.0000 0.1650 0.1561 (  1968 PWs)   bands (ev):

     2.0310   3.1610   3.7530   3.8621   3.9040   4.0729   4.1101   4.1260
     4.3549   4.3858   4.5340   5.8482  13.3041  21.4840  23.7955  26.4720

     occupation numbers 
     1.0000   1.0000   1.0000   1.0000   1.0000   1.0000   1.0000   1.0000
     1.0000   1.0000   1.0000   1.0000   0.0000   0.0000   0.0000   0.0000

          k = 0.0000 0.1650 0.2342 (  1980 PWs)   bands (ev):

     2.5505   2.9977   3.7621   3.8218   3.8966   3.9899   4.0755   4.0897
     4.4216   4.4843   4.5522   4.9481  15.8294  18.5708  24.4341  25.3343

     occupation numbers 
     1.0000   1.0000   1.0000   1.0000   1.0000   1.0000   1.0000   1.0000
     1.0000   1.0000   1.0000   1.0000   0.0000   0.0000   0.0000   0.0000

          k = 0.0000 0.2474 0.0000 (  1957 PWs)   bands (ev):

     2.2400   3.3465   3.7801   3.8646   3.9109   4.0879   4.2069   4.2206
     4.2433   4.2838   4.5773   9.6183   9.8207  19.9478  24.6652  25.8250

     occupation numbers 
     1.0000   1.0000   1.0000   1.0000   1.0000   1.0000   1.0000   1.0000
     1.0000   1.0000   1.0000   1.0000   1.0000   0.0000   0.0000   0.0000

          k = 0.0000 0.2474 0.0781 (  1956 PWs)   bands (ev):

     2.3497   3.3562   3.7792   3.8352   3.9024   4.0782   4.2029   4.2577
     4.2644   4.2917   4.5650   7.9652  11.7454  20.0750  24.6134  24.8202

     occupation numbers 
     1.0000   1.0000   1.0000   1.0000   1.0000   1.0000   1.0000   1.0000
     1.0000   1.0000   1.0000   1.0000   0.0000   0.0000   0.0000   0.0000

          k = 0.0000 0.2474 0.1561 (  1963 PWs)   bands (ev):

     2.6515   3.3695   3.7552   3.7677   3.9043   4.0511   4.1957   4.2507
     4.3458   4.4121   4.5297   6.5173  14.0178  20.4207  22.2513  23.2552

     occupation numbers 
     1.0000   1.0000   1.0000   1.0000   1.0000   1.0000   1.0000   1.0000
     1.0000   1.0000   1.0000   1.0000   0.0000   0.0000   0.0000   0.0000

          k = 0.0000 0.2474 0.2342 (  1974 PWs)   bands (ev):

     3.0375   3.3061   3.7000   3.7147   3.9454   4.0035   4.2054   4.2266
     4.4119   4.4763   4.7462   5.4246  16.5198  19.1958  21.2455  22.1109

     occupation numbers 
     1.0000   1.0000   1.0000   1.0000   1.0000   1.0000   1.0000   1.0000
     1.0000   1.0000   1.0000   1.0000   0.0000   0.0000   0.0000   0.0000

          k = 0.0000 0.3299 0.0000 (  1968 PWs)   bands (ev):

     2.9402   3.3533   3.6912   3.8736   3.9821   4.1059   4.1653   4.4231
     4.4450   4.4523   4.5751  10.3748  11.0637  16.9039  22.8462  23.4371

     occupation numbers 
     1.0000   1.0000   1.0000   1.0000   1.0000   1.0000   1.0000   1.0000
     1.0000   1.0000   1.0000   1.0000   1.0000   0.0000   0.0000   0.0000

          k = 0.0000 0.3299 0.0781 (  1957 PWs)   bands (ev):

     2.9881   3.3636   3.6883   3.8234   3.9539   4.1800   4.2537   4.4259
     4.4436   4.4549   4.5647   8.9261  12.7626  17.0341  21.6243  23.5938

     occupation numbers 
     1.0000   1.0000   1.0000   1.0000   1.0000   1.0000   1.0000   1.0000
     1.0000   1.0000   1.0000   1.0000   0.0000   0.0000   0.0000   0.0000

          k = 0.0000 0.3299 0.1561 (  1959 PWs)   bands (ev):

     3.1055   3.3803   3.6625   3.7051   4.0445   4.2212   4.3255   4.4008
     4.4501   4.5384   4.7055   7.4449  14.9861  17.4174  20.2748  23.0028

     occupation numbers 
     1.0000   1.0000   1.0000   1.0000   1.0000   1.0000   1.0000   1.0000
     1.0000   1.0000   1.0000   1.0000   0.0000   0.0000   0.0000   0.0000

          k = 0.0000 0.3299 0.2342 (  1958 PWs)   bands (ev):

     3.2412   3.3494   3.6224   3.6429   4.1614   4.2614   4.2808   4.3457
     4.4750   4.5060   5.3159   6.2337  17.3433  17.9962  19.2389  20.3462

     occupation numbers 
     1.0000   1.0000   1.0000   1.0000   1.0000   1.0000   1.0000   1.0000
     1.0000   1.0000   1.0000   1.0000   0.0000   0.0000   0.0000   0.0000

          k = 0.0000 0.4124 0.0000 (  1962 PWs)   bands (ev):

     3.1881   3.2925   3.5291   3.9828   4.0188   4.1180   4.2243   4.5708
     4.5892   4.6108   5.4446  11.3923  12.5125  14.1930  20.0654  21.0517

     occupation numbers 
     1.0000   1.0000   1.0000   1.0000   1.0000   1.0000   1.0000   1.0000
     1.0000   1.0000   1.0000   1.0000   0.0000   0.0000   0.0000   0.0000

          k = 0.0000 0.4124 0.0781 (  1958 PWs)   bands (ev):

     3.1816   3.2887   3.5554   3.8418   4.0648   4.1377   4.3583   4.5370
     4.5919   4.6199   5.5301  10.1291  13.9117  14.3989  18.9171  22.3414

     occupation numbers 
     1.0000   1.0000   1.0000   1.0000   1.0000   1.0000   1.0000   1.0000
     1.0000   1.0000   1.0000   1.0000   0.0000   0.0000   0.0000   0.0000

          k = 0.0000 0.4124 0.1561 (  1944 PWs)   bands (ev):

     3.1830   3.2935   3.5726   3.6667   4.1935   4.1938   4.4649   4.4773
     4.5991   4.6235   5.8540   8.6697  14.6406  15.9829  17.8101  23.1540

     occupation numbers 
     1.0000   1.0000   1.0000   1.0000   1.0000   1.0000   1.0000   1.0000
     1.0000   1.0000   1.0000   1.0000   0.0000   0.0000   0.0000   0.0000

          k = 0.0000 0.4124 0.2342 (  1955 PWs)   bands (ev):

     3.2205   3.2752   3.5578   3.5719   4.2770   4.3490   4.3729   4.4628
     4.6089   4.6183   6.4960   7.4453  15.2753  16.0730  18.9745  21.3881

     occupation numbers 
     1.0000   1.0000   1.0000   1.0000   1.0000   1.0000   1.0000   1.0000
     1.0000   1.0000   1.0000   1.0000   0.0000   0.0000   0.0000   0.0000

          k = 0.0000 0.4949 0.0000 (  1966 PWs)   bands (ev):

     3.1762   3.2580   3.4321   3.9592   4.0664   4.0863   4.3706   4.5669
     4.7047   4.7265   7.0274  11.1627  13.3389  14.0980  17.5932  18.7840

     occupation numbers 
     1.0000   1.0000   1.0000   1.0000   1.0000   1.0000   1.0000   1.0000
     1.0000   1.0000   1.0000   1.0000   0.0000   0.0000   0.0000   0.0000

          k = 0.0000 0.4949 0.0781 (  1955 PWs)   bands (ev):

     3.1784   3.2206   3.4767   3.8296   4.1082   4.1260   4.4666   4.5399
     4.7065   4.7268   7.1311  10.9239  12.4872  15.1442  16.9252  20.0487

     occupation numbers 
     1.0000   1.0000   1.0000   1.0000   1.0000   1.0000   1.0000   1.0000
     1.0000   1.0000   1.0000   1.0000   0.0000   0.0000   0.0000   0.0000

          k = 0.0000 0.4949 0.1561 (  1952 PWs)   bands (ev):

     3.1598   3.2172   3.5112   3.6415   4.1706   4.2705   4.4678   4.5720
     4.7109   4.7258   7.4652   9.9953  12.3853  14.6829  18.1633  21.8123

     occupation numbers 
     1.0000   1.0000   1.0000   1.0000   1.0000   1.0000   1.0000   1.0000
     1.0000   1.0000   1.0000   1.0000   0.0000   0.0000   0.0000   0.0000

          k = 0.0000 0.4949 0.2342 (  1957 PWs)   bands (ev):

     3.1729   3.2102   3.5078   3.5276   4.2628   4.3685   4.4443   4.5643
     4.7166   4.7220   8.0654   8.9314  12.8812  13.6848  20.3357  22.2670

     occupation numbers 
     1.0000   1.0000   1.0000   1.0000   1.0000   1.0000   1.0000   1.0000
     1.0000   1.0000   1.0000   1.0000   0.0000   0.0000   0.0000   0.0000

          k = 0.0000-0.5774 0.0000 (  1942 PWs)   bands (ev):

     3.1574   3.2456   3.4000   3.9381   4.0751   4.0963   4.4177   4.5653
     4.7458   4.7693   8.6375   9.3905  14.4353  15.2085  16.0123  17.4456

     occupation numbers 
     1.0000   1.0000   1.0000   1.0000   1.0000   1.0000   1.0000   1.0000
     1.0000   1.0000   1.0000   1.0000   0.0000   0.0000   0.0000   0.0000

          k = 0.0000-0.5774 0.0781 (  1944 PWs)   bands (ev):

     3.1676   3.1937   3.4506   3.8204   4.0978   4.1482   4.5060   4.5388
     4.7475   4.7683   8.7458   9.4447  13.7412  13.9548  17.5490  18.3686

     occupation numbers 
     1.0000   1.0000   1.0000   1.0000   1.0000   1.0000   1.0000   1.0000
     1.0000   1.0000   1.0000   1.0000   0.0000   0.0000   0.0000   0.0000

          k = 0.0000-0.5774 0.1561 (  1938 PWs)   bands (ev):

     3.1466   3.1879   3.4896   3.6317   4.1620   4.2939   4.4665   4.6061
     4.7515   4.7655   9.0571   9.5883  12.6434  12.7138  19.6244  20.1484

     occupation numbers 
     1.0000   1.0000   1.0000   1.0000   1.0000   1.0000   1.0000   1.0000
     1.0000   1.0000   1.0000   1.0000   0.0000   0.0000   0.0000   0.0000

          k = 0.0000-0.5774 0.2342 (  1960 PWs)   bands (ev):

     3.1532   3.1859   3.4894   3.5125   4.2569   4.3654   4.4727   4.5965
     4.7564   4.7613   9.4755   9.6941  11.8861  11.9257  21.6394  21.8932

     occupation numbers 
     1.0000   1.0000   1.0000   1.0000   1.0000   1.0000   1.0000   1.0000
     1.0000   1.0000   1.0000   1.0000   0.0000   0.0000   0.0000   0.0000

          k = 0.0714 0.1237 0.0000 (  1967 PWs)   bands (ev):

     1.3980   3.1363   3.7449   3.9128   3.9520   4.0571   4.1122   4.2297
     4.2453   4.3739   4.5714   8.6045   9.0562  24.9097  25.0625  26.5047

     occupation numbers 
     1.0000   1.0000   1.0000   1.0000   1.0000   1.0000   1.0000   1.0000
     1.0000   1.0000   1.0000   1.0000   1.0000   0.0000   0.0000   0.0000

          k = 0.0714 0.1237 0.0781 (  1968 PWs)   bands (ev):

     1.5249   3.1328   3.7460   3.8977   3.9394   4.0519   4.1041   4.2329
     4.2801   4.3682   4.5619   7.0758  10.8757  24.3291  25.0446  25.2870

     occupation numbers 
     1.0000   1.0000   1.0000   1.0000   1.0000   1.0000   1.0000   1.0000
     1.0000   1.0000   1.0000   1.0000   1.0000   0.0000   0.0000   0.0000

          k = 0.0714 0.1237 0.1561 (  1970 PWs)   bands (ev):

     1.8909   3.0957   3.7494   3.8777   3.9060   4.0447   4.0859   4.1823
     4.3691   4.3814   4.5342   5.7034  13.1605  21.3617  25.4469  25.6340

     occupation numbers 
     1.0000   1.0000   1.0000   1.0000   1.0000   1.0000   1.0000   1.0000
     1.0000   1.0000   1.0000   1.0000   0.0000   0.0000   0.0000   0.0000

          k = 0.0714 0.1237 0.2342 (  1976 PWs)   bands (ev):

     2.4258   2.9045   3.7758   3.8532   3.8921   3.9985   4.0585   4.0664
     4.4304   4.4786   4.5285   4.8561  15.6885  18.4346  26.1080  26.2692

     occupation numbers 
     1.0000   1.0000   1.0000   1.0000   1.0000   1.0000   1.0000   1.0000
     1.0000   1.0000   1.0000   1.0000   0.0000   0.0000   0.0000   0.0000

          k = 0.0714 0.2062 0.0000 (  1961 PWs)   bands (ev):

     1.9768   3.3209   3.7401   3.8837   3.9674   4.0130   4.1732   4.1988
     4.2619   4.3035   4.5684   9.4224   9.4374  21.6459  23.5249  26.8799

     occupation numbers 
     1.0000   1.0000   1.0000   1.0000   1.0000   1.0000   1.0000   1.0000
     1.0000   1.0000   1.0000   1.0000   1.0000   0.0000   0.0000   0.0000

          k = 0.0714 0.2062 0.0781 (  1965 PWs)   bands (ev):

     2.0954   3.3288   3.7480   3.8572   3.9158   4.0317   4.1812   4.2238
     4.2564   4.3258   4.5588   7.6840  11.4549  21.7701  23.6376  24.9599

     occupation numbers 
     1.0000   1.0000   1.0000   1.0000   1.0000   1.0000   1.0000   1.0000
     1.0000   1.0000   1.0000   1.0000   1.0000   0.0000   0.0000   0.0000

          k = 0.0714 0.2062 0.1561 (  1965 PWs)   bands (ev):

     2.4302   3.3347   3.7628   3.7976   3.8462   4.0077   4.1658   4.2297
     4.3547   4.3859   4.5342   6.2586  13.7347  21.7146  22.3782  24.1084

     occupation numbers 
     1.0000   1.0000   1.0000   1.0000   1.0000   1.0000   1.0000   1.0000
     1.0000   1.0000   1.0000   1.0000   0.0000   0.0000   0.0000   0.0000

          k = 0.0714 0.2062 0.2342 (  1971 PWs)   bands (ev):

     2.8900   3.2420   3.7294   3.7393   3.8540   3.9287   4.1778   4.2029
     4.4214   4.4710   4.6654   5.2335  16.2493  18.9709  22.8835  23.7839

     occupation numbers 
     1.0000   1.0000   1.0000   1.0000   1.0000   1.0000   1.0000   1.0000
     1.0000   1.0000   1.0000   1.0000   0.0000   0.0000   0.0000   0.0000

          k = 0.0714 0.2887 0.0000 (  1959 PWs)   bands (ev):

     2.7202   3.4140   3.7859   3.8010   3.8597   4.0972   4.1215   4.2300
     4.3748   4.5007   4.5637  10.0472  10.5494  18.4886  22.2910  24.4202

     occupation numbers 
     1.0000   1.0000   1.0000   1.0000   1.0000   1.0000   1.0000   1.0000
     1.0000   1.0000   1.0000   1.0000   1.0000   0.0000   0.0000   0.0000

          k = 0.0714 0.2887 0.0781 (  1955 PWs)   bands (ev):

     2.8037   3.4274   3.7532   3.8156   3.8356   4.0907   4.1933   4.2320
     4.3930   4.4772   4.5749   8.5241  12.3327  18.6186  22.4242  23.1874

     occupation numbers 
     1.0000   1.0000   1.0000   1.0000   1.0000   1.0000   1.0000   1.0000
     1.0000   1.0000   1.0000   1.0000   0.0000   0.0000   0.0000   0.0000

          k = 0.0714 0.2887 0.1561 (  1959 PWs)   bands (ev):

     3.0166   3.4548   3.6872   3.7510   3.8910   4.0617   4.2251   4.3781
     4.3975   4.4747   4.6392   7.0543  14.5838  18.9962  21.8241  22.5312

     occupation numbers 
     1.0000   1.0000   1.0000   1.0000   1.0000   1.0000   1.0000   1.0000
     1.0000   1.0000   1.0000   1.0000   0.0000   0.0000   0.0000   0.0000

          k = 0.0714 0.2887 0.2342 (  1961 PWs)   bands (ev):

     3.2558   3.4216   3.6480   3.6914   3.9547   4.0143   4.2645   4.3282
     4.4642   4.4947   5.0584   5.8850  17.0495  19.3024  20.2191  20.6961

     occupation numbers 
     1.0000   1.0000   1.0000   1.0000   1.0000   1.0000   1.0000   1.0000
     1.0000   1.0000   1.0000   1.0000   0.0000   0.0000   0.0000   0.0000

          k = 0.0714 0.3712 0.0000 (  1961 PWs)   bands (ev):

     3.2015   3.3644   3.6037   3.9334   4.0273   4.0392   4.1557   4.3822
     4.5435   4.5576   5.0650  10.9713  11.8911  15.5883  21.3202  21.5296

     occupation numbers 
     1.0000   1.0000   1.0000   1.0000   1.0000   1.0000   1.0000   1.0000
     1.0000   1.0000   1.0000   1.0000   0.0000   0.0000   0.0000   0.0000

          k = 0.0714 0.3712 0.0781 (  1957 PWs)   bands (ev):

     3.2060   3.3725   3.6227   3.8205   3.9878   4.1596   4.2559   4.3752
     4.5253   4.5585   5.1252   9.6189  13.4801  15.7195  20.3269  21.4646

     occupation numbers 
     1.0000   1.0000   1.0000   1.0000   1.0000   1.0000   1.0000   1.0000
     1.0000   1.0000   1.0000   1.0000   0.0000   0.0000   0.0000   0.0000

          k = 0.0714 0.3712 0.1561 (  1949 PWs)   bands (ev):

     3.2330   3.3884   3.6244   3.6819   4.0679   4.2042   4.3345   4.4460
     4.4671   4.5803   5.3889   8.1451  15.6246  16.1177  19.0177  21.8666

     occupation numbers 
     1.0000   1.0000   1.0000   1.0000   1.0000   1.0000   1.0000   1.0000
     1.0000   1.0000   1.0000   1.0000   0.0000   0.0000   0.0000   0.0000

          k = 0.0714 0.3712 0.2342 (  1958 PWs)   bands (ev):

     3.2933   3.3653   3.5942   3.6206   4.1827   4.2543   4.2935   4.3543
     4.5564   4.5888   5.9908   6.9240  16.7144  17.2955  18.6593  20.9109

     occupation numbers 
     1.0000   1.0000   1.0000   1.0000   1.0000   1.0000   1.0000   1.0000
     1.0000   1.0000   1.0000   1.0000   0.0000   0.0000   0.0000   0.0000

          k = 0.0714 0.4536 0.0000 (  1957 PWs)   bands (ev):

     3.2421   3.3198   3.4813   3.9737   4.0344   4.0957   4.2564   4.5515
     4.5890   4.6671   6.3464  11.8818  13.3117  13.4204  18.8841  19.9648

     occupation numbers 
     1.0000   1.0000   1.0000   1.0000   1.0000   1.0000   1.0000   1.0000
     1.0000   1.0000   1.0000   0.0000   0.0000   0.0000   0.0000   0.0000

          k = 0.0714 0.4536 0.0781 (  1957 PWs)   bands (ev):

     3.2377   3.2927   3.5280   3.8305   4.0654   4.1384   4.3736   4.5221
     4.5868   4.6717   6.4469  10.8833  13.1576  14.8496  17.8330  20.7968

     occupation numbers 
     1.0000   1.0000   1.0000   1.0000   1.0000   1.0000   1.0000   1.0000
     1.0000   1.0000   1.0000   1.0000   0.0000   0.0000   0.0000   0.0000

          k = 0.0714 0.4536 0.1561 (  1954 PWs)   bands (ev):

     3.2199   3.2963   3.5621   3.6532   4.1248   4.2545   4.4467   4.4965
     4.5867   4.6796   6.7811   9.5017  13.5055  15.7927  17.6656  21.2218

     occupation numbers 
     1.0000   1.0000   1.0000   1.0000   1.0000   1.0000   1.0000   1.0000
     1.0000   1.0000   1.0000   1.0000   0.0000   0.0000   0.0000   0.0000

          k = 0.0714 0.4536 0.2342 (  1952 PWs)   bands (ev):

     3.2400   3.2857   3.5482   3.5587   4.2271   4.3406   4.3858   4.4794
     4.6338   4.6713   7.4010   8.3169  14.1195  14.9573  19.7095  21.7325

     occupation numbers 
     1.0000   1.0000   1.0000   1.0000   1.0000   1.0000   1.0000   1.0000
     1.0000   1.0000   1.0000   1.0000   0.0000   0.0000   0.0000   0.0000

          k = 0.0714 0.5361 0.0000 (  1946 PWs)   bands (ev):

     3.2052   3.2980   3.4206   3.9446   4.0622   4.0915   4.3645   4.5477
     4.6961   4.7241   8.0845  10.2696  14.1108  14.9630  16.6539  17.9651

     occupation numbers 
     1.0000   1.0000   1.0000   1.0000   1.0000   1.0000   1.0000   1.0000
     1.0000   1.0000   1.0000   1.0000   0.0000   0.0000   0.0000   0.0000

          k = 0.0714 0.5361 0.0781 (  1952 PWs)   bands (ev):

     3.2144   3.2424   3.4802   3.8250   4.0576   4.1654   4.4589   4.5197
     4.6931   4.7236   8.1905  10.3019  13.0922  14.8472  17.1681  19.1193

     occupation numbers 
     1.0000   1.0000   1.0000   1.0000   1.0000   1.0000   1.0000   1.0000
     1.0000   1.0000   1.0000   1.0000   0.0000   0.0000   0.0000   0.0000

          k = 0.0714 0.5361 0.1561 (  1957 PWs)   bands (ev):

     3.1917   3.2407   3.5230   3.6409   4.1116   4.3089   4.4425   4.5769
     4.6815   4.7195   8.5150  10.2494  12.1393  13.7388  19.0535  20.8830

     occupation numbers 
     1.0000   1.0000   1.0000   1.0000   1.0000   1.0000   1.0000   1.0000
     1.0000   1.0000   1.0000   1.0000   0.0000   0.0000   0.0000   0.0000

          k = 0.0714 0.5361 0.2342 (  1967 PWs)   bands (ev):

     3.2015   3.2384   3.5173   3.5300   4.2145   4.3334   4.4716   4.5862
     4.6828   4.7056   9.0576   9.7455  12.0916  12.7386  21.1470  21.5724

     occupation numbers 
     1.0000   1.0000   1.0000   1.0000   1.0000   1.0000   1.0000   1.0000
     1.0000   1.0000   1.0000   1.0000   0.0000   0.0000   0.0000   0.0000

          k = 0.1429 0.2474 0.0000 (  1949 PWs)   bands (ev):

     2.6340   3.4873   3.6819   3.8349   3.8725   3.9943   4.0719   4.2712
     4.3689   4.5191   4.5497   9.9443  10.3744  20.1948  20.4475  26.2313

     occupation numbers 
     1.0000   1.0000   1.0000   1.0000   1.0000   1.0000   1.0000   1.0000
     1.0000   1.0000   1.0000   1.0000   1.0000   0.0000   0.0000   0.0000

          k = 0.1429 0.2474 0.0781 (  1957 PWs)   bands (ev):

     2.7300   3.5041   3.6923   3.7831   3.9011   3.9176   4.1832   4.2439
     4.3998   4.4733   4.5826   8.3928  12.1903  20.3321  20.5697  24.8727

     occupation numbers 
     1.0000   1.0000   1.0000   1.0000   1.0000   1.0000   1.0000   1.0000
     1.0000   1.0000   1.0000   1.0000   0.0000   0.0000   0.0000   0.0000

          k = 0.1429 0.2474 0.1561 (  1958 PWs)   bands (ev):

     2.9848   3.5485   3.6940   3.7243   3.8232   3.9023   4.2238   4.3694
     4.4088   4.4468   4.6554   6.9311  14.4489  20.7415  20.8730  22.7156

     occupation numbers 
     1.0000   1.0000   1.0000   1.0000   1.0000   1.0000   1.0000   1.0000
     1.0000   1.0000   1.0000   1.0000   0.0000   0.0000   0.0000   0.0000

          k = 0.1429 0.2474 0.2342 (  1955 PWs)   bands (ev):

     3.2911   3.5198   3.6497   3.7282   3.7818   3.8508   4.2551   4.3217
     4.4822   4.4868   5.0084   5.7859  16.9339  19.5700  21.4151  21.8096

     occupation numbers 
     1.0000   1.0000   1.0000   1.0000   1.0000   1.0000   1.0000   1.0000
     1.0000   1.0000   1.0000   1.0000   0.0000   0.0000   0.0000   0.0000

          k = 0.1429 0.3299 0.0000 (  1955 PWs)   bands (ev):

     3.2767   3.5109   3.6699   3.7460   3.8982   3.9974   4.1200   4.2060
     4.5306   4.5350   5.0204  10.7638  11.5754  17.2880  19.2626  23.2463

     occupation numbers 
     1.0000   1.0000   1.0000   1.0000   1.0000   1.0000   1.0000   1.0000
     1.0000   1.0000   1.0000   1.0000   0.7500   0.0000   0.0000   0.0000

          k = 0.1429 0.3299 0.0781 (  1956 PWs)   bands (ev):

     3.3005   3.5271   3.6528   3.7530   3.8610   4.0332   4.1867   4.2078
     4.4993   4.5513   5.0703   9.3706  13.2168  17.4206  19.3962  22.0117

     occupation numbers 
     1.0000   1.0000   1.0000   1.0000   1.0000   1.0000   1.0000   1.0000
     1.0000   1.0000   1.0000   1.0000   0.0000   0.0000   0.0000   0.0000

          k = 0.1429 0.3299 0.1561 (  1956 PWs)   bands (ev):

     3.3589   3.5735   3.5932   3.7688   3.8488   4.0129   4.1964   4.4032
     4.4226   4.5810   5.2800   7.9007  15.4239  17.8120  19.7846  20.6557

     occupation numbers 
     1.0000   1.0000   1.0000   1.0000   1.0000   1.0000   1.0000   1.0000
     1.0000   1.0000   1.0000   1.0000   0.0000   0.0000   0.0000   0.0000

          k = 0.1429 0.3299 0.2342 (  1959 PWs)   bands (ev):

     3.4324   3.5119   3.6476   3.7217   3.9010   3.9623   4.2411   4.3254
     4.5502   4.5929   5.8084   6.6992  17.7720  18.4122  19.5856  20.1868

     occupation numbers 
     1.0000   1.0000   1.0000   1.0000   1.0000   1.0000   1.0000   1.0000
     1.0000   1.0000   1.0000   1.0000   0.0000   0.0000   0.0000   0.0000

          k = 0.1429 0.4124 0.0000 (  1957 PWs)   bands (ev):

     3.4097   3.4610   3.5467   3.9524   3.9867   4.0281   4.1250   4.3227
     4.5150   4.6467   6.0430  11.8684  13.0006  14.5680  18.4687  20.4769

     occupation numbers 
     1.0000   1.0000   1.0000   1.0000   1.0000   1.0000   1.0000   1.0000
     1.0000   1.0000   1.0000   0.0000   0.0000   0.0000   0.0000   0.0000

          k = 0.1429 0.4124 0.0781 (  1960 PWs)   bands (ev):

     3.3929   3.4417   3.6083   3.7958   3.9801   4.1378   4.2173   4.3188
     4.4848   4.6563   6.1372  10.6185  14.3933  14.7738  18.6051  19.3103

     occupation numbers 
     1.0000   1.0000   1.0000   1.0000   1.0000   1.0000   1.0000   1.0000
     1.0000   1.0000   1.0000   1.0000   0.0000   0.0000   0.0000   0.0000

          k = 0.1429 0.4124 0.1561 (  1962 PWs)   bands (ev):

     3.3635   3.4659   3.6175   3.6915   4.0070   4.1761   4.2779   4.4006
     4.4465   4.6714   6.4551   9.1754  15.0460  16.4542  18.1590  19.0127

     occupation numbers 
     1.0000   1.0000   1.0000   1.0000   1.0000   1.0000   1.0000   1.0000
     1.0000   1.0000   1.0000   1.0000   0.0000   0.0000   0.0000   0.0000

          k = 0.1429 0.4124 0.2342 (  1960 PWs)   bands (ev):

     3.3824   3.4415   3.5987   3.6504   4.1004   4.1908   4.2545   4.3082
     4.5905   4.6602   7.0608   7.9750  15.6887  16.5109  19.2580  19.6432

     occupation numbers 
     1.0000   1.0000   1.0000   1.0000   1.0000   1.0000   1.0000   1.0000
     1.0000   1.0000   1.0000   1.0000   0.0000   0.0000   0.0000   0.0000

          k = 0.1429 0.4949 0.0000 (  1962 PWs)   bands (ev):

     3.3428   3.4413   3.4731   3.9399   4.0499   4.0763   4.1981   4.5046
     4.5141   4.6814   7.5920  11.6891  13.7275  14.5845  17.9311  18.0464

     occupation numbers 
     1.0000   1.0000   1.0000   1.0000   1.0000   1.0000   1.0000   1.0000
     1.0000   1.0000   1.0000   0.0000   0.0000   0.0000   0.0000   0.0000

          k = 0.1429 0.4949 0.0781 (  1955 PWs)   bands (ev):

     3.3485   3.3691   3.5664   3.8192   4.0008   4.1616   4.3109   4.4733
     4.5076   4.6854   7.7026  11.5081  12.8299  15.6510  17.2712  18.1238

     occupation numbers 
     1.0000   1.0000   1.0000   1.0000   1.0000   1.0000   1.0000   1.0000
     1.0000   1.0000   1.0000   1.0000   0.0000   0.0000   0.0000   0.0000

          k = 0.1429 0.4949 0.1561 (  1964 PWs)   bands (ev):

     3.3142   3.3883   3.6195   3.6563   4.0144   4.2734   4.3804   4.4597
     4.4958   4.6874   8.0476  10.5879  12.7356  15.1333  18.5127  18.5491

     occupation numbers 
     1.0000   1.0000   1.0000   1.0000   1.0000   1.0000   1.0000   1.0000
     1.0000   1.0000   1.0000   1.0000   0.0000   0.0000   0.0000   0.0000

          k = 0.1429 0.4949 0.2342 (  1958 PWs)   bands (ev):

     3.3301   3.3825   3.5740   3.6017   4.1171   4.2512   4.3763   4.4409
     4.5898   4.6618   8.6507   9.5158  13.2673  14.1003  19.1992  19.9673

     occupation numbers 
     1.0000   1.0000   1.0000   1.0000   1.0000   1.0000   1.0000   1.0000
     1.0000   1.0000   1.0000   1.0000   0.0000   0.0000   0.0000   0.0000

          k = 0.1429 0.5774 0.0000 (  1950 PWs)   bands (ev):

     3.3173   3.4276   3.4488   3.9466   4.0120   4.1057   4.2565   4.5009
     4.6242   4.6471   9.2718   9.8015  14.9428  15.7335  16.3450  17.7731

     occupation numbers 
     1.0000   1.0000   1.0000   1.0000   1.0000   1.0000   1.0000   1.0000
     1.0000   1.0000   1.0000   1.0000   0.0000   0.0000   0.0000   0.0000

          k = 0.1429 0.5774 0.0781 (  1953 PWs)   bands (ev):

     3.3306   3.3407   3.5492   3.8310   3.9788   4.1878   4.3484   4.4693
     4.6214   4.6463   9.3909   9.8760  14.2130  14.3810  17.9197  18.0094

     occupation numbers 
     1.0000   1.0000   1.0000   1.0000   1.0000   1.0000   1.0000   1.0000
     1.0000   1.0000   1.0000   1.0000   0.0000   0.0000   0.0000   0.0000

          k = 0.1429 0.5774 0.1561 (  1957 PWs)   bands (ev):

     3.2951   3.3602   3.6053   3.6589   3.9995   4.3290   4.3731   4.4709
     4.6126   4.6368   9.7291  10.0872  13.0657  13.0887  18.3727  20.0624

     occupation numbers 
     1.0000   1.0000   1.0000   1.0000   1.0000   1.0000   1.0000   1.0000
     1.0000   1.0000   1.0000   1.0000   0.0000   0.0000   0.0000   0.0000

          k = 0.1429 0.5774 0.2342 (  1964 PWs)   bands (ev):

     3.3106   3.3598   3.5670   3.5850   4.1074   4.2464   4.4663   4.5259
     4.5987   4.6046  10.1727  10.3198  12.2255  12.2407  19.0452  19.9253

     occupation numbers 
     1.0000   1.0000   1.0000   1.0000   1.0000   1.0000   1.0000   1.0000
     1.0000   1.0000   1.0000   1.0000   0.0000   0.0000   0.0000   0.0000

          k = 0.2143 0.3712 0.0000 (  1969 PWs)   bands (ev):

     3.5533   3.5811   3.6260   3.7719   3.9306   3.9637   4.1463   4.1786
     4.4938   4.6431   5.9693  11.8021  12.8590  16.2428  16.5182  22.2527

     occupation numbers 
     1.0000   1.0000   1.0000   1.0000   1.0000   1.0000   1.0000   1.0000
     1.0000   1.0000   1.0000   0.0000   0.0000   0.0000   0.0000   0.0000

          k = 0.2143 0.3712 0.0781 (  1964 PWs)   bands (ev):

     3.5418   3.5657   3.6734   3.6854   3.9484   4.0140   4.1413   4.2420
     4.4633   4.6543   6.0604  10.5167  14.3758  16.3793  16.6505  20.9536

     occupation numbers 
     1.0000   1.0000   1.0000   1.0000   1.0000   1.0000   1.0000   1.0000
     1.0000   1.0000   1.0000   1.0000   0.0000   0.0000   0.0000   0.0000

          k = 0.2143 0.3712 0.1561 (  1966 PWs)   bands (ev):

     3.5067   3.5481   3.6360   3.7650   3.9096   4.0242   4.1478   4.3774
     4.4330   4.6716   6.3686   9.0677  16.4725  16.7951  17.0390  19.5525

     occupation numbers 
     1.0000   1.0000   1.0000   1.0000   1.0000   1.0000   1.0000   1.0000
     1.0000   1.0000   1.0000   1.0000   0.0000   0.0000   0.0000   0.0000

          k = 0.2143 0.3712 0.2342 (  1948 PWs)   bands (ev):

     3.4917   3.5029   3.6988   3.7688   3.9207   3.9815   4.1929   4.2790
     4.5874   4.6610   6.9627   7.8693  17.4495  17.6441  18.1060  18.3802

     occupation numbers 
     1.0000   1.0000   1.0000   1.0000   1.0000   1.0000   1.0000   1.0000
     1.0000   1.0000   1.0000   1.0000   0.0000   0.0000   0.0000   0.0000

          k = 0.2143 0.4536 0.0000 (  1959 PWs)   bands (ev):

     3.5252   3.5280   3.6142   3.9061   3.9710   4.0579   4.0652   4.3098
     4.4650   4.6672   7.3682  12.9395  13.9845  14.3612  15.7591  19.7059

     occupation numbers 
     1.0000   1.0000   1.0000   1.0000   1.0000   1.0000   1.0000   1.0000
     1.0000   1.0000   1.0000   0.0000   0.0000   0.0000   0.0000   0.0000

          k = 0.2143 0.4536 0.0781 (  1965 PWs)   bands (ev):

     3.4886   3.5443   3.6690   3.7762   3.9690   4.0981   4.1419   4.3326
     4.4330   4.6751   7.4806  11.8995  13.9274  15.7378  15.9103  18.5854

     occupation numbers 
     1.0000   1.0000   1.0000   1.0000   1.0000   1.0000   1.0000   1.0000
     1.0000   1.0000   1.0000   0.0000   0.0000   0.0000   0.0000   0.0000

          k = 0.2143 0.4536 0.1561 (  1962 PWs)   bands (ev):

     3.4592   3.5875   3.6218   3.7693   3.9210   4.1321   4.1947   4.3492
     4.4500   4.6838   7.8317  10.5176  14.2983  16.2861  16.7413  18.1422

     occupation numbers 
     1.0000   1.0000   1.0000   1.0000   1.0000   1.0000   1.0000   1.0000
     1.0000   1.0000   1.0000   1.0000   0.0000   0.0000   0.0000   0.0000

          k = 0.2143 0.4536 0.2342 (  1955 PWs)   bands (ev):

     3.4689   3.5223   3.6609   3.7378   3.9910   4.0978   4.2126   4.2638
     4.5834   4.6618   8.4495   9.3487  14.9375  15.8081  16.9570  17.8141

     occupation numbers 
     1.0000   1.0000   1.0000   1.0000   1.0000   1.0000   1.0000   1.0000
     1.0000   1.0000   1.0000   1.0000   0.0000   0.0000   0.0000   0.0000

          k = 0.2143 0.5361 0.0000 (  1957 PWs)   bands (ev):

     3.4908   3.4991   3.6002   3.9261   3.9849   4.0663   4.1118   4.4495
     4.4648   4.6126   9.1306  11.2227  14.9688  15.4473  15.9425  17.4401

     occupation numbers 
     1.0000   1.0000   1.0000   1.0000   1.0000   1.0000   1.0000   1.0000
     1.0000   1.0000   1.0000   1.0000   0.0000   0.0000   0.0000   0.0000

          k = 0.2143 0.5361 0.0781 (  1956 PWs)   bands (ev):

     3.4602   3.5062   3.6679   3.8221   3.9218   4.1473   4.1844   4.4164
     4.4701   4.6193   9.2483  11.3048  13.9128  15.5271  15.8346  17.8922

     occupation numbers 
     1.0000   1.0000   1.0000   1.0000   1.0000   1.0000   1.0000   1.0000
     1.0000   1.0000   1.0000   1.0000   0.0000   0.0000   0.0000   0.0000

          k = 0.2143 0.5361 0.1561 (  1956 PWs)   bands (ev):

     3.4340   3.5461   3.6738   3.7531   3.8785   4.2054   4.2720   4.3491
     4.4983   4.6281   9.6019  11.4159  12.8203  14.5915  15.9862  18.5619

     occupation numbers 
     1.0000   1.0000   1.0000   1.0000   1.0000   1.0000   1.0000   1.0000
     1.0000   1.0000   1.0000   1.0000   0.0000   0.0000   0.0000   0.0000

          k = 0.2143 0.5361 0.2342 (  1952 PWs)   bands (ev):

     3.4571   3.5281   3.6357   3.7064   3.9848   4.1274   4.3100   4.3334
     4.5606   4.6130  10.1862  10.9389  12.7828  13.5277  16.6458  17.5426

     occupation numbers 
     1.0000   1.0000   1.0000   1.0000   1.0000   1.0000   1.0000   1.0000
     1.0000   1.0000   1.0000   1.0000   0.0000   0.0000   0.0000   0.0000

          k = 0.2857 0.4949 0.0000 (  1961 PWs)   bands (ev):

     3.5279   3.6277   3.6904   3.8960   3.9318   3.9916   4.1096   4.3646
     4.4263   4.6049   9.0137  12.9768  13.3374  14.9936  15.9262  19.0456

     occupation numbers 
     1.0000   1.0000   1.0000   1.0000   1.0000   1.0000   1.0000   1.0000
     1.0000   1.0000   1.0000   0.0000   0.0000   0.0000   0.0000   0.0000

          k = 0.2857 0.4949 0.0781 (  1954 PWs)   bands (ev):

     3.5276   3.6363   3.7194   3.7838   3.9527   4.0296   4.1299   4.3915
     4.3930   4.6142   9.1343  12.8972  13.4749  14.0196  16.9411  17.8759

     occupation numbers 
     1.0000   1.0000   1.0000   1.0000   1.0000   1.0000   1.0000   1.0000
     1.0000   1.0000   1.0000   0.0000   0.0000   0.0000   0.0000   0.0000

          k = 0.2857 0.4949 0.1561 (  1951 PWs)   bands (ev):

     3.5317   3.6387   3.7053   3.7960   3.8818   4.0722   4.1596   4.3114
     4.4705   4.6276   9.4999  12.0608  13.8593  13.8805  16.4708  16.4877

     occupation numbers 
     1.0000   1.0000   1.0000   1.0000   1.0000   1.0000   1.0000   1.0000
     1.0000   1.0000   1.0000   0.0000   0.0000   0.0000   0.0000   0.0000

          k = 0.2857 0.4949 0.2342 (  1953 PWs)   bands (ev):

     3.5480   3.5855   3.7360   3.7969   3.9181   4.0250   4.1892   4.2332
     4.5606   4.6161  10.1183  10.9885  14.4007  14.5183  15.3468  15.4765

     occupation numbers 
     1.0000   1.0000   1.0000   1.0000   1.0000   1.0000   1.0000   1.0000
     1.0000   1.0000   1.0000   1.0000   0.0000   0.0000   0.0000   0.0000

          k = 0.2857 0.5774 0.0000 (  1952 PWs)   bands (ev):

     3.5330   3.6640   3.7190   3.9030   3.9187   3.9361   4.1382   4.4119
     4.4479   4.5182  10.9132  10.9956  13.0446  16.3756  17.2365  17.4685

     occupation numbers 
     1.0000   1.0000   1.0000   1.0000   1.0000   1.0000   1.0000   1.0000
     1.0000   1.0000   1.0000   1.0000   0.0000   0.0000   0.0000   0.0000

          k = 0.2857 0.5774 0.0781 (  1957 PWs)   bands (ev):

     3.5443   3.6694   3.7181   3.8285   3.9141   3.9919   4.1513   4.3779
     4.4652   4.5332  11.0459  11.0999  13.1628  15.5925  15.7108  17.5984

     occupation numbers 
     1.0000   1.0000   1.0000   1.0000   1.0000   1.0000   1.0000   1.0000
     1.0000   1.0000   1.0000   1.0000   0.0000   0.0000   0.0000   0.0000

          k = 0.2857 0.5774 0.1561 (  1963 PWs)   bands (ev):

     3.5656   3.6706   3.7349   3.7577   3.9088   4.0241   4.1734   4.2955
     4.5098   4.5627  11.4098  11.4253  13.4434  14.3737  14.4598  16.3604

     occupation numbers 
     1.0000   1.0000   1.0000   1.0000   1.0000   1.0000   1.0000   1.0000
     1.0000   1.0000   1.0000   1.0000   0.0000   0.0000   0.0000   0.0000

          k = 0.2857 0.5774 0.2342 (  1962 PWs)   bands (ev):

     3.5896   3.6299   3.7525   3.7592   3.9357   3.9999   4.1903   4.2209
     4.5564   4.5765  11.8696  11.9308  13.1730  13.3612  14.4230  15.2565

     occupation numbers 
     1.0000   1.0000   1.0000   1.0000   1.0000   1.0000   1.0000   1.0000
     1.0000   1.0000   0.0000   0.0000   0.0000   0.0000   0.0000   0.0000

 ------ SPIN DOWN ----------


          k = 0.0000 0.0000 0.0000 (  1957 PWs)   bands (ev):

     0.9428   2.9469   3.7137   3.9438   3.9438   4.0019   4.0019   4.3293
     4.3294   4.5692   4.5693   7.8846   8.8125  26.0262  29.1659  29.1660

     occupation numbers 
     1.0000   1.0000   1.0000   1.0000   1.0000   1.0000   1.0000   1.0000
     1.0000   1.0000   1.0000   1.0000   1.0000   0.0000   0.0000   0.0000

          k = 0.0000 0.0000 0.0781 (  1969 PWs)   bands (ev):

     1.0729   2.9314   3.7138   3.9414   3.9414   3.9952   3.9952   4.3465
     4.3466   4.5613   4.5614   6.5294  10.4516  23.9687  29.2964  29.2970

     occupation numbers 
     1.0000   1.0000   1.0000   1.0000   1.0000   1.0000   1.0000   1.0000
     1.0000   1.0000   1.0000   1.0000   1.0000   0.0000   0.0000   0.0000

          k = 0.0000 0.0000 0.1561 (  1986 PWs)   bands (ev):

     1.4507   2.8505   3.7290   3.9388   3.9388   3.9780   3.9780   4.3905
     4.3906   4.5372   4.5373   5.1347  12.7286  20.9541  29.6734  29.6738

     occupation numbers 
     1.0000   1.0000   1.0000   1.0000   1.0000   1.0000   1.0000   1.0000
     1.0000   1.0000   1.0000   1.0000   0.0000   0.0000   0.0000   0.0000

          k = 0.0000 0.0000 0.2342 (  1968 PWs)   bands (ev):

     2.0161   2.5709   3.8240   3.9437   3.9437   3.9582   3.9582   4.2035
     4.4455   4.4456   4.4974   4.4974  15.2612  18.0151  30.2357  30.2360

     occupation numbers 
     1.0000   1.0000   1.0000   1.0000   1.0000   1.0000   1.0000   1.0000
     1.0000   1.0000   1.0000   1.0000   0.0000   0.0000   0.0000   0.0000

          k = 0.0000 0.0825 0.0000 (  1957 PWs)   bands (ev):

     1.0960   3.0145   3.7281   3.9297   3.9810   3.9852   4.0371   4.2951
     4.3141   4.4760   4.5717   8.1381   8.8907  26.1923  26.6344  27.8549

     occupation numbers 
     1.0000   1.0000   1.0000   1.0000   1.0000   1.0000   1.0000   1.0000
     1.0000   1.0000   1.0000   1.0000   1.0000   0.0000   0.0000   0.0000

          k = 0.0000 0.0825 0.0781 (  1968 PWs)   bands (ev):

     1.2253   3.0033   3.7275   3.9243   3.9767   3.9779   4.0301   4.3171
     4.3329   4.4586   4.5630   6.7276  10.5916  24.1069  26.7851  27.9922

     occupation numbers 
     1.0000   1.0000   1.0000   1.0000   1.0000   1.0000   1.0000   1.0000
     1.0000   1.0000   1.0000   1.0000   1.0000   0.0000   0.0000   0.0000

          k = 0.0000 0.0825 0.1561 (  1980 PWs)   bands (ev):

     1.5998   2.9380   3.7367   3.9176   3.9549   3.9743   4.0127   4.3545
     4.3801   4.4032   4.5367   5.3677  12.8726  21.0928  27.1733  28.4000

     occupation numbers 
     1.0000   1.0000   1.0000   1.0000   1.0000   1.0000   1.0000   1.0000
     1.0000   1.0000   1.0000   1.0000   0.0000   0.0000   0.0000   0.0000

          k = 0.0000 0.0825 0.2342 (  1984 PWs)   bands (ev):

     2.1567   2.6883   3.8064   3.9229   3.9287   3.9785   3.9928   4.1015
     4.4386   4.4702   4.4938   4.6468  15.4041  18.1561  27.8107  28.6865

     occupation numbers 
     1.0000   1.0000   1.0000   1.0000   1.0000   1.0000   1.0000   1.0000
     1.0000   1.0000   1.0000   1.0000   0.0000   0.0000   0.0000   0.0000

          k = 0.0000 0.1650 0.0000 (  1959 PWs)   bands (ev):

     1.5457   3.1863   3.7493   3.9010   3.9729   4.0866   4.1366   4.1510
     4.2740   4.3177   4.5758   8.8226   9.1430  23.2215  26.1612  26.6360

     occupation numbers 
     1.0000   1.0000   1.0000   1.0000   1.0000   1.0000   1.0000   1.0000
     1.0000   1.0000   1.0000   1.0000   1.0000   0.0000   0.0000   0.0000

          k = 0.0000 0.1650 0.0781 (  1964 PWs)   bands (ev):

     1.6710   3.1860   3.7513   3.8863   3.9492   4.0806   4.1286   4.1662
     4.2983   4.3224   4.5652   7.2349  11.0191  23.3241  24.5656  26.3069

     occupation numbers 
     1.0000   1.0000   1.0000   1.0000   1.0000   1.0000   1.0000   1.0000
     1.0000   1.0000   1.0000   1.0000   1.0000   0.0000   0.0000   0.0000

          k = 0.0000 0.1650 0.1561 (  1968 PWs)   bands (ev):

     2.0310   3.1610   3.7530   3.8621   3.9040   4.0729   4.1101   4.1260
     4.3549   4.3858   4.5340   5.8482  13.3041  21.4840  23.7955  26.4720

     occupation numbers 
     1.0000   1.0000   1.0000   1.0000   1.0000   1.0000   1.0000   1.0000
     1.0000   1.0000   1.0000   1.0000   0.0000   0.0000   0.0000   0.0000

          k = 0.0000 0.1650 0.2342 (  1980 PWs)   bands (ev):

[...]

     occupation numbers 
     1.0000   1.0000   1.0000   1.0000   1.0000   1.0000   1.0000   1.0000
     1.0000   1.0000   1.0000   1.0000   1.0000   0.0000   0.0000   0.0000

          k = 0.1429 0.2474 0.0781 (  1957 PWs)   bands (ev):

     2.7300   3.5041   3.6923   3.7831   3.9011   3.9176   4.1832   4.2439
     4.3998   4.4733   4.5826   8.3928  12.1903  20.3321  20.5697  24.8727

     occupation numbers 
     1.0000   1.0000   1.0000   1.0000   1.0000   1.0000   1.0000   1.0000
     1.0000   1.0000   1.0000   1.0000   0.0000   0.0000   0.0000   0.0000

          k = 0.1429 0.2474 0.1561 (  1958 PWs)   bands (ev):

     2.9848   3.5485   3.6940   3.7243   3.8232   3.9023   4.2238   4.3694
     4.4088   4.4468   4.6554   6.9311  14.4489  20.7415  20.8730  22.7156

     occupation numbers 
     1.0000   1.0000   1.0000   1.0000   1.0000   1.0000   1.0000   1.0000
     1.0000   1.0000   1.0000   1.0000   0.0000   0.0000   0.0000   0.0000

          k = 0.1429 0.2474 0.2342 (  1955 PWs)   bands (ev):

     3.2911   3.5198   3.6497   3.7282   3.7818   3.8508   4.2551   4.3217
     4.4822   4.4868   5.0084   5.7859  16.9339  19.5700  21.4151  21.8096

     occupation numbers 
     1.0000   1.0000   1.0000   1.0000   1.0000   1.0000   1.0000   1.0000
     1.0000   1.0000   1.0000   1.0000   0.0000   0.0000   0.0000   0.0000

          k = 0.1429 0.3299 0.0000 (  1955 PWs)   bands (ev):

     3.2767   3.5109   3.6699   3.7460   3.8982   3.9974   4.1200   4.2060
     4.5306   4.5350   5.0204  10.7638  11.5754  17.2880  19.2626  23.2463

     occupation numbers 
     1.0000   1.0000   1.0000   1.0000   1.0000   1.0000   1.0000   1.0000
     1.0000   1.0000   1.0000   1.0000   0.7500   0.0000   0.0000   0.0000

          k = 0.1429 0.3299 0.0781 (  1956 PWs)   bands (ev):

     3.3005   3.5271   3.6528   3.7530   3.8610   4.0332   4.1867   4.2078
     4.4993   4.5513   5.0703   9.3706  13.2168  17.4206  19.3962  22.0117

     occupation numbers 
     1.0000   1.0000   1.0000   1.0000   1.0000   1.0000   1.0000   1.0000
     1.0000   1.0000   1.0000   1.0000   0.0000   0.0000   0.0000   0.0000

          k = 0.1429 0.3299 0.1561 (  1956 PWs)   bands (ev):

     3.3589   3.5735   3.5932   3.7688   3.8488   4.0129   4.1964   4.4032
     4.4226   4.5810   5.2800   7.9007  15.4239  17.8120  19.7846  20.6557

     occupation numbers 
     1.0000   1.0000   1.0000   1.0000   1.0000   1.0000   1.0000   1.0000
     1.0000   1.0000   1.0000   1.0000   0.0000   0.0000   0.0000   0.0000

          k = 0.1429 0.3299 0.2342 (  1959 PWs)   bands (ev):

     3.4324   3.5119   3.6476   3.7217   3.9010   3.9623   4.2411   4.3254
     4.5502   4.5929   5.8084   6.6992  17.7720  18.4122  19.5856  20.1868

     occupation numbers 
     1.0000   1.0000   1.0000   1.0000   1.0000   1.0000   1.0000   1.0000
     1.0000   1.0000   1.0000   1.0000   0.0000   0.0000   0.0000   0.0000

          k = 0.1429 0.4124 0.0000 (  1957 PWs)   bands (ev):

     3.4097   3.4610   3.5467   3.9524   3.9867   4.0281   4.1250   4.3227
     4.5150   4.6467   6.0430  11.8684  13.0006  14.5680  18.4687  20.4769

     occupation numbers 
     1.0000   1.0000   1.0000   1.0000   1.0000   1.0000   1.0000   1.0000
     1.0000   1.0000   1.0000   0.0000   0.0000   0.0000   0.0000   0.0000

          k = 0.1429 0.4124 0.0781 (  1960 PWs)   bands (ev):

     3.3929   3.4417   3.6083   3.7958   3.9801   4.1378   4.2173   4.3188
     4.4848   4.6563   6.1372  10.6185  14.3933  14.7738  18.6051  19.3103

     occupation numbers 
     1.0000   1.0000   1.0000   1.0000   1.0000   1.0000   1.0000   1.0000
     1.0000   1.0000   1.0000   1.0000   0.0000   0.0000   0.0000   0.0000

          k = 0.1429 0.4124 0.1561 (  1962 PWs)   bands (ev):

     3.3635   3.4659   3.6175   3.6915   4.0070   4.1761   4.2779   4.4006
     4.4465   4.6714   6.4551   9.1754  15.0460  16.4542  18.1590  19.0127

     occupation numbers 
     1.0000   1.0000   1.0000   1.0000   1.0000   1.0000   1.0000   1.0000
     1.0000   1.0000   1.0000   1.0000   0.0000   0.0000   0.0000   0.0000

          k = 0.1429 0.4124 0.2342 (  1960 PWs)   bands (ev):

     3.3824   3.4415   3.5987   3.6504   4.1004   4.1908   4.2545   4.3082
     4.5905   4.6602   7.0608   7.9750  15.6887  16.5109  19.2580  19.6432

     occupation numbers 
     1.0000   1.0000   1.0000   1.0000   1.0000   1.0000   1.0000   1.0000
     1.0000   1.0000   1.0000   1.0000   0.0000   0.0000   0.0000   0.0000

          k = 0.1429 0.4949 0.0000 (  1962 PWs)   bands (ev):

     3.3428   3.4413   3.4731   3.9399   4.0499   4.0763   4.1981   4.5046
     4.5141   4.6814   7.5920  11.6891  13.7275  14.5845  17.9311  18.0464

     occupation numbers 
     1.0000   1.0000   1.0000   1.0000   1.0000   1.0000   1.0000   1.0000
     1.0000   1.0000   1.0000   0.0000   0.0000   0.0000   0.0000   0.0000

          k = 0.1429 0.4949 0.0781 (  1955 PWs)   bands (ev):

     3.3485   3.3691   3.5664   3.8192   4.0008   4.1616   4.3109   4.4733
     4.5076   4.6854   7.7026  11.5081  12.8299  15.6510  17.2712  18.1238

     occupation numbers 
     1.0000   1.0000   1.0000   1.0000   1.0000   1.0000   1.0000   1.0000
     1.0000   1.0000   1.0000   1.0000   0.0000   0.0000   0.0000   0.0000

          k = 0.1429 0.4949 0.1561 (  1964 PWs)   bands (ev):

     3.3142   3.3883   3.6195   3.6563   4.0144   4.2734   4.3804   4.4597
     4.4958   4.6874   8.0476  10.5879  12.7356  15.1333  18.5127  18.5491

     occupation numbers 
     1.0000   1.0000   1.0000   1.0000   1.0000   1.0000   1.0000   1.0000
     1.0000   1.0000   1.0000   1.0000   0.0000   0.0000   0.0000   0.0000

          k = 0.1429 0.4949 0.2342 (  1958 PWs)   bands (ev):

     3.3301   3.3825   3.5740   3.6017   4.1171   4.2512   4.3763   4.4409
     4.5898   4.6618   8.6507   9.5158  13.2673  14.1003  19.1992  19.9673

     occupation numbers 
     1.0000   1.0000   1.0000   1.0000   1.0000   1.0000   1.0000   1.0000
     1.0000   1.0000   1.0000   1.0000   0.0000   0.0000   0.0000   0.0000

          k = 0.1429 0.5774 0.0000 (  1950 PWs)   bands (ev):

     3.3173   3.4276   3.4488   3.9466   4.0120   4.1057   4.2565   4.5009
     4.6242   4.6471   9.2718   9.8015  14.9428  15.7335  16.3450  17.7731

     occupation numbers 
     1.0000   1.0000   1.0000   1.0000   1.0000   1.0000   1.0000   1.0000
     1.0000   1.0000   1.0000   1.0000   0.0000   0.0000   0.0000   0.0000

          k = 0.1429 0.5774 0.0781 (  1953 PWs)   bands (ev):

     3.3306   3.3407   3.5492   3.8310   3.9788   4.1878   4.3484   4.4693
     4.6214   4.6463   9.3909   9.8760  14.2130  14.3810  17.9197  18.0094

     occupation numbers 
     1.0000   1.0000   1.0000   1.0000   1.0000   1.0000   1.0000   1.0000
     1.0000   1.0000   1.0000   1.0000   0.0000   0.0000   0.0000   0.0000

          k = 0.1429 0.5774 0.1561 (  1957 PWs)   bands (ev):

     3.2951   3.3602   3.6053   3.6589   3.9995   4.3290   4.3731   4.4709
     4.6126   4.6368   9.7291  10.0872  13.0657  13.0887  18.3727  20.0624

     occupation numbers 
     1.0000   1.0000   1.0000   1.0000   1.0000   1.0000   1.0000   1.0000
     1.0000   1.0000   1.0000   1.0000   0.0000   0.0000   0.0000   0.0000

          k = 0.1429 0.5774 0.2342 (  1964 PWs)   bands (ev):

     3.3106   3.3598   3.5670   3.5850   4.1074   4.2464   4.4663   4.5259
     4.5987   4.6046  10.1727  10.3198  12.2255  12.2407  19.0452  19.9253

     occupation numbers 
     1.0000   1.0000   1.0000   1.0000   1.0000   1.0000   1.0000   1.0000
     1.0000   1.0000   1.0000   1.0000   0.0000   0.0000   0.0000   0.0000

          k = 0.2143 0.3712 0.0000 (  1969 PWs)   bands (ev):

     3.5533   3.5811   3.6260   3.7719   3.9306   3.9637   4.1463   4.1786
     4.4938   4.6431   5.9693  11.8021  12.8590  16.2428  16.5182  22.2527

     occupation numbers 
     1.0000   1.0000   1.0000   1.0000   1.0000   1.0000   1.0000   1.0000
     1.0000   1.0000   1.0000   0.0000   0.0000   0.0000   0.0000   0.0000

          k = 0.2143 0.3712 0.0781 (  1964 PWs)   bands (ev):

     3.5418   3.5657   3.6734   3.6854   3.9484   4.0140   4.1413   4.2420
     4.4633   4.6543   6.0604  10.5167  14.3758  16.3793  16.6505  20.9536

     occupation numbers 
     1.0000   1.0000   1.0000   1.0000   1.0000   1.0000   1.0000   1.0000
     1.0000   1.0000   1.0000   1.0000   0.0000   0.0000   0.0000   0.0000

          k = 0.2143 0.3712 0.1561 (  1966 PWs)   bands (ev):

     3.5067   3.5481   3.6360   3.7650   3.9096   4.0242   4.1478   4.3774
     4.4330   4.6716   6.3686   9.0677  16.4725  16.7951  17.0390  19.5525

     occupation numbers 
     1.0000   1.0000   1.0000   1.0000   1.0000   1.0000   1.0000   1.0000
     1.0000   1.0000   1.0000   1.0000   0.0000   0.0000   0.0000   0.0000

          k = 0.2143 0.3712 0.2342 (  1948 PWs)   bands (ev):

     3.4917   3.5029   3.6988   3.7688   3.9207   3.9815   4.1929   4.2790
     4.5874   4.6610   6.9627   7.8693  17.4495  17.6441  18.1060  18.3802

     occupation numbers 
     1.0000   1.0000   1.0000   1.0000   1.0000   1.0000   1.0000   1.0000
     1.0000   1.0000   1.0000   1.0000   0.0000   0.0000   0.0000   0.0000

          k = 0.2143 0.4536 0.0000 (  1959 PWs)   bands (ev):

     3.5252   3.5280   3.6142   3.9061   3.9710   4.0579   4.0652   4.3098
     4.4650   4.6672   7.3682  12.9395  13.9845  14.3612  15.7591  19.7059

     occupation numbers 
     1.0000   1.0000   1.0000   1.0000   1.0000   1.0000   1.0000   1.0000
     1.0000   1.0000   1.0000   0.0000   0.0000   0.0000   0.0000   0.0000

          k = 0.2143 0.4536 0.0781 (  1965 PWs)   bands (ev):

     3.4886   3.5443   3.6690   3.7762   3.9690   4.0981   4.1419   4.3326
     4.4330   4.6751   7.4806  11.8995  13.9274  15.7378  15.9103  18.5854

     occupation numbers 
     1.0000   1.0000   1.0000   1.0000   1.0000   1.0000   1.0000   1.0000
     1.0000   1.0000   1.0000   0.0000   0.0000   0.0000   0.0000   0.0000

          k = 0.2143 0.4536 0.1561 (  1962 PWs)   bands (ev):

     3.4592   3.5875   3.6218   3.7693   3.9210   4.1321   4.1947   4.3492
     4.4500   4.6838   7.8317  10.5176  14.2983  16.2861  16.7413  18.1422

     occupation numbers 
     1.0000   1.0000   1.0000   1.0000   1.0000   1.0000   1.0000   1.0000
     1.0000   1.0000   1.0000   1.0000   0.0000   0.0000   0.0000   0.0000

          k = 0.2143 0.4536 0.2342 (  1955 PWs)   bands (ev):

     3.4689   3.5223   3.6609   3.7378   3.9910   4.0978   4.2126   4.2638
     4.5834   4.6618   8.4495   9.3487  14.9375  15.8081  16.9570  17.8141

     occupation numbers 
     1.0000   1.0000   1.0000   1.0000   1.0000   1.0000   1.0000   1.0000
     1.0000   1.0000   1.0000   1.0000   0.0000   0.0000   0.0000   0.0000

          k = 0.2143 0.5361 0.0000 (  1957 PWs)   bands (ev):

     3.4908   3.4991   3.6002   3.9261   3.9849   4.0663   4.1118   4.4495
     4.4648   4.6126   9.1306  11.2227  14.9688  15.4473  15.9425  17.4401

     occupation numbers 
     1.0000   1.0000   1.0000   1.0000   1.0000   1.0000   1.0000   1.0000
     1.0000   1.0000   1.0000   1.0000   0.0000   0.0000   0.0000   0.0000

          k = 0.2143 0.5361 0.0781 (  1956 PWs)   bands (ev):

     3.4602   3.5062   3.6679   3.8221   3.9218   4.1473   4.1844   4.4164
     4.4701   4.6193   9.2483  11.3048  13.9127  15.5271  15.8346  17.8922

     occupation numbers 
     1.0000   1.0000   1.0000   1.0000   1.0000   1.0000   1.0000   1.0000
     1.0000   1.0000   1.0000   1.0000   0.0000   0.0000   0.0000   0.0000

          k = 0.2143 0.5361 0.1561 (  1956 PWs)   bands (ev):

     3.4340   3.5461   3.6738   3.7531   3.8785   4.2054   4.2720   4.3491
     4.4983   4.6281   9.6019  11.4159  12.8203  14.5915  15.9862  18.5619

     occupation numbers 
     1.0000   1.0000   1.0000   1.0000   1.0000   1.0000   1.0000   1.0000
     1.0000   1.0000   1.0000   1.0000   0.0000   0.0000   0.0000   0.0000

          k = 0.2143 0.5361 0.2342 (  1952 PWs)   bands (ev):

     3.4571   3.5281   3.6357   3.7064   3.9848   4.1274   4.3100   4.3334
     4.5606   4.6130  10.1862  10.9389  12.7828  13.5277  16.6458  17.5426

     occupation numbers 
     1.0000   1.0000   1.0000   1.0000   1.0000   1.0000   1.0000   1.0000
     1.0000   1.0000   1.0000   1.0000   0.0000   0.0000   0.0000   0.0000

          k = 0.2857 0.4949 0.0000 (  1961 PWs)   bands (ev):

     3.5279   3.6277   3.6904   3.8960   3.9318   3.9916   4.1096   4.3646
     4.4263   4.6049   9.0137  12.9768  13.3374  14.9936  15.9262  19.0456

     occupation numbers 
     1.0000   1.0000   1.0000   1.0000   1.0000   1.0000   1.0000   1.0000
     1.0000   1.0000   1.0000   0.0000   0.0000   0.0000   0.0000   0.0000

          k = 0.2857 0.4949 0.0781 (  1954 PWs)   bands (ev):

     3.5276   3.6363   3.7194   3.7838   3.9527   4.0296   4.1299   4.3915
     4.3930   4.6142   9.1343  12.8972  13.4749  14.0196  16.9411  17.8759

     occupation numbers 
     1.0000   1.0000   1.0000   1.0000   1.0000   1.0000   1.0000   1.0000
     1.0000   1.0000   1.0000   0.0000   0.0000   0.0000   0.0000   0.0000

          k = 0.2857 0.4949 0.1561 (  1951 PWs)   bands (ev):

     3.5317   3.6387   3.7053   3.7960   3.8818   4.0722   4.1596   4.3114
     4.4705   4.6276   9.4999  12.0608  13.8593  13.8805  16.4708  16.4877

     occupation numbers 
     1.0000   1.0000   1.0000   1.0000   1.0000   1.0000   1.0000   1.0000
     1.0000   1.0000   1.0000   0.0000   0.0000   0.0000   0.0000   0.0000

          k = 0.2857 0.4949 0.2342 (  1953 PWs)   bands (ev):

     3.5480   3.5855   3.7360   3.7969   3.9181   4.0250   4.1892   4.2332
     4.5606   4.6161  10.1183  10.9885  14.4007  14.5183  15.3468  15.4765

     occupation numbers 
     1.0000   1.0000   1.0000   1.0000   1.0000   1.0000   1.0000   1.0000
     1.0000   1.0000   1.0000   1.0000   0.0000   0.0000   0.0000   0.0000

          k = 0.2857 0.5774 0.0000 (  1952 PWs)   bands (ev):

     3.5330   3.6640   3.7190   3.9030   3.9187   3.9361   4.1382   4.4119
     4.4479   4.5182  10.9132  10.9956  13.0446  16.3756  17.2365  17.4685

     occupation numbers 
     1.0000   1.0000   1.0000   1.0000   1.0000   1.0000   1.0000   1.0000
     1.0000   1.0000   1.0000   1.0000   0.0000   0.0000   0.0000   0.0000

          k = 0.2857 0.5774 0.0781 (  1957 PWs)   bands (ev):

     3.5443   3.6694   3.7181   3.8285   3.9141   3.9919   4.1513   4.3779
     4.4652   4.5332  11.0459  11.0999  13.1628  15.5925  15.7108  17.5984

     occupation numbers 
     1.0000   1.0000   1.0000   1.0000   1.0000   1.0000   1.0000   1.0000
     1.0000   1.0000   1.0000   1.0000   0.0000   0.0000   0.0000   0.0000

          k = 0.2857 0.5774 0.1561 (  1963 PWs)   bands (ev):

     3.5656   3.6706   3.7349   3.7577   3.9088   4.0241   4.1734   4.2955
     4.5098   4.5627  11.4098  11.4253  13.4434  14.3737  14.4598  16.3604

     occupation numbers 
     1.0000   1.0000   1.0000   1.0000   1.0000   1.0000   1.0000   1.0000
     1.0000   1.0000   1.0000   1.0000   0.0000   0.0000   0.0000   0.0000

          k = 0.2857 0.5774 0.2342 (  1962 PWs)   bands (ev):

     3.5896   3.6299   3.7525   3.7592   3.9357   3.9999   4.1903   4.2209
     4.5564   4.5765  11.8696  11.9308  13.1730  13.3612  14.4230  15.2565

     occupation numbers 
     1.0000   1.0000   1.0000   1.0000   1.0000   1.0000   1.0000   1.0000
     1.0000   1.0000   0.0000   0.0000   0.0000   0.0000   0.0000   0.0000

     the Fermi energy is    11.5787 ev

!    total energy              =    -487.44666676 Ry
     total all-electron energy =     -7184.240712 Ry
     estimated scf accuracy    <       0.00000265 Ry
     smearing contrib. (-TS)   =      -0.00000076 Ry
     internal energy E=F+TS    =    -487.44666600 Ry

     The total energy is F=E-TS. E is the sum of the following terms:
     one-electron contribution =    -112.83369724 Ry
     hartree contribution      =      90.05975198 Ry
     xc contribution           =     -94.38678302 Ry
     ewald contribution        =    -179.41094189 Ry
     one-center paw contrib.   =    -190.87499583 Ry
      -> PAW hartree energy AE =     122.38020151 Ry
      -> PAW hartree energy PS =    -121.75789662 Ry
      -> PAW xc energy AE      =    -143.10204876 Ry
      -> PAW xc energy PS      =      47.04224596 Ry
      -> total E_H with PAW    =      90.68205687 Ry
      -> total E_XC with PAW   =    -190.44658582 Ry

     total magnetization       =    -0.00 Bohr mag/cell
     absolute magnetization    =     0.00 Bohr mag/cell

     convergence has been achieved in   5 iterations

     Writing all to output data dir ./out/Zn.save/
 
     init_run     :      0.27s CPU      0.38s WALL (       1 calls)
     electrons    :      5.18s CPU      5.62s WALL (       1 calls)

     Called by init_run:
     wfcinit      :      0.12s CPU      0.19s WALL (       1 calls)
     potinit      :      0.10s CPU      0.13s WALL (       1 calls)
     hinit0       :      0.04s CPU      0.04s WALL (       1 calls)

     Called by electrons:
     c_bands      :      4.18s CPU      4.48s WALL (       5 calls)
     sum_band     :      0.51s CPU      0.55s WALL (       5 calls)
     v_of_rho     :      0.02s CPU      0.02s WALL (       6 calls)
     v_h          :      0.00s CPU      0.00s WALL (       6 calls)
     v_xc         :      0.02s CPU      0.02s WALL (       6 calls)
     newd         :      0.01s CPU      0.01s WALL (       6 calls)
     PAW_pot      :      0.55s CPU      0.66s WALL (       6 calls)
     mix_rho      :      0.00s CPU      0.00s WALL (       5 calls)

     Called by c_bands:
     init_us_2    :      0.03s CPU      0.03s WALL (     960 calls)
     init_us_2:cp :      0.03s CPU      0.03s WALL (     960 calls)
     cegterg      :      3.95s CPU      4.16s WALL (     480 calls)

     Called by sum_band:
     sum_band:wei :      0.00s CPU      0.01s WALL (       5 calls)
     sum_band:loo :      0.48s CPU      0.52s WALL (       5 calls)
     sum_band:buf :      0.00s CPU      0.00s WALL (     480 calls)
     sum_band:ini :      0.02s CPU      0.02s WALL (     480 calls)
     sum_band:cal :      0.04s CPU      0.04s WALL (     480 calls)
     sum_band:bec :      0.00s CPU      0.00s WALL (     480 calls)
     addusdens    :      0.02s CPU      0.02s WALL (       5 calls)
                                        0.00s GPU  (       5 calls)
     addusd:skk   :      0.00s CPU      0.00s WALL (       5 calls)
                                        0.00s GPU  (       5 calls)

     Called by *egterg:
     cdiaghg      :      0.65s CPU      0.68s WALL (    2209 calls)
     cegterg:over :      0.10s CPU      0.11s WALL (    1825 calls)
     cegterg:upda :      0.02s CPU      0.03s WALL (    1825 calls)
     cegterg:last :      0.04s CPU      0.04s WALL (    1410 calls)
     h_psi        :      2.98s CPU      3.14s WALL (    2305 calls)
     s_psi        :      0.05s CPU      0.06s WALL (    2305 calls)
     g_psi        :      0.01s CPU      0.01s WALL (    1825 calls)

     Called by h_psi:
     h_psi:calbec :      0.14s CPU      0.14s WALL (    2305 calls)
     vloc_psi     :      2.77s CPU      2.92s WALL (    2305 calls)
     add_vuspsi   :      0.05s CPU      0.06s WALL (    2305 calls)

     General routines
     calbec       :      0.17s CPU      0.18s WALL (    2785 calls)
     fft          :      0.01s CPU      0.01s WALL (     124 calls)
     ffts         :      0.00s CPU      0.00s WALL (      10 calls)
     fftw         :      2.96s CPU      3.13s WALL (   60092 calls)
 
     Parallel routines

     PAW routines
     PAW_pot      :      0.55s CPU      0.66s WALL (       6 calls)
     PAW_symme    :      0.01s CPU      0.01s WALL (      10 calls)
 
     PWSCF        :      5.69s CPU      6.53s WALL

 
   This run was terminated on:   3:26:35  13Mar2024            

=------------------------------------------------------------------------------=
   JOB DONE.
=------------------------------------------------------------------------------=
