
     Program PWSCF v.7.2 starts on 13Mar2024 at  3:24:47 

     This program is part of the open-source Quantum ESPRESSO suite
     for quantum simulation of materials; please cite
         "P. Giannozzi et al., J. Phys.:Condens. Matter 21 395502 (2009);
         "P. Giannozzi et al., J. Phys.:Condens. Matter 29 465901 (2017);
         "P. Giannozzi et al., J. Chem. Phys. 152 154105 (2020);
          URL http://www.quantum-espresso.org", 
     in publications or presentations arising from this work. More details at
     http://www.quantum-espresso.org/quote

     Parallel version (MPI), running on    28 processors

     MPI processes distributed on     1 nodes
     150221 MiB available memory on the printing compute node when the environment starts
 
     Waiting for input...
     Reading input from standard input

     Current dimensions of program PWSCF are:
     Max number of different atomic species (ntypx) = 10
     Max number of k-points (npk) = 120000
     Max angular momentum in pseudopotentials (lmaxx) =  4
     file Zn.pbe-dnl-kjpaw_psl.1.0.0.UPF: wavefunction(s)  4S 3D renormalized
 
     K-points division:     npool     =       2
     R & G space division:  proc/nbgrp/npool/nimage =      14
     Subspace diagonalization in iterative solution of the eigenvalue problem:
     a serial algorithm will be used

 
     Parallelization info
     --------------------
     sticks:   dense  smooth     PW     G-vecs:    dense   smooth      PW
     Min          33      33      9                 1089     1089     181
     Max          34      34     10                 1093     1093     188
     Sum         463     463    139                15259    15259    2601
 
     Using Slab Decomposition
 


     bravais-lattice index     =            4
     lattice parameter (alat)  =       4.9000  a.u.
     unit-cell volume          =     193.5853 (a.u.)^3
     number of atoms/cell      =            2
     number of atomic types    =            1
     number of electrons       =        24.00
     number of Kohn-Sham states=           16
     kinetic-energy cutoff     =      70.0000  Ry
     charge density cutoff     =     280.0000  Ry
     scf convergence threshold =      4.0E-06
     mixing beta               =       0.7000
     number of iterations used =            8  plain     mixing
     Exchange-correlation= SLA  PW   PBX  PBC
                           (   1   4   3   4   0   0   0)

     celldm(1)=   4.900000  celldm(2)=   0.000000  celldm(3)=   1.900000
     celldm(4)=   0.000000  celldm(5)=   0.000000  celldm(6)=   0.000000

     crystal axes: (cart. coord. in units of alat)
               a(1) = (   1.000000   0.000000   0.000000 )  
               a(2) = (  -0.500000   0.866025   0.000000 )  
               a(3) = (   0.000000   0.000000   1.900000 )  

     reciprocal axes: (cart. coord. in units 2 pi/alat)
               b(1) = (  1.000000  0.577350  0.000000 )  
               b(2) = (  0.000000  1.154701  0.000000 )  
               b(3) = (  0.000000  0.000000  0.526316 )  


     PseudoPot. # 1 for Zn read from file:
     /truba/home/amuhaymin/ZnS/pseudo/QE/Zn.pbe-dnl-kjpaw_psl.1.0.0.UPF
     MD5 check sum: c608214d9520ac179f507641260889e3
     Pseudo is Projector augmented-wave + core cor, Zval = 12.0
     Generated using &quot;atomic&quot; code by A. Dal Corso  v.6.2.2
     Shape of augmentation charge: PSQ
     Using radial grid of 1201 points,  6 beta functions with: 
                l(1) =   0
                l(2) =   0
                l(3) =   1
                l(4) =   1
                l(5) =   2
                l(6) =   2
     Q(r) pseudized with 0 coefficients 


     atomic species   valence    mass     pseudopotential
        Zn            12.00    65.38000     Zn( 1.00)

     Starting magnetic structure 
     atomic species   magnetization
        Zn           0.000

     24 Sym. Ops., with inversion, found (12 have fractional translation)


                                    s                        frac. trans.

      isym =  1     identity                                     

 cryst.   s( 1) = (     1          0          0      )
                  (     0          1          0      )
                  (     0          0          1      )

 cart.    s( 1) = (  1.0000000  0.0000000  0.0000000 )
                  (  0.0000000  1.0000000  0.0000000 )
                  (  0.0000000  0.0000000  1.0000000 )


      isym =  2     180 deg rotation - cart. axis [0,0,1]        

 cryst.   s( 2) = (    -1          0          0      )    f =(  0.0000000 )
                  (     0         -1          0      )       (  0.0000000 )
                  (     0          0          1      )       (  0.5000000 )

 cart.    s( 2) = ( -1.0000000  0.0000000  0.0000000 )    f =(  0.0000000 )
                  (  0.0000000 -1.0000000  0.0000000 )       (  0.0000000 )
                  (  0.0000000  0.0000000  1.0000000 )       (  0.9500000 )


      isym =  3     180 deg rotation - cart. axis [0,1,0]        

 cryst.   s( 3) = (    -1          0          0      )    f =(  0.0000000 )
                  (     1          1          0      )       (  0.0000000 )
                  (     0          0         -1      )       ( -0.5000000 )

 cart.    s( 3) = ( -1.0000000  0.0000000  0.0000000 )    f =(  0.0000000 )
                  (  0.0000000  1.0000000  0.0000000 )       (  0.0000000 )
                  (  0.0000000  0.0000000 -1.0000000 )       ( -0.9500000 )


      isym =  4     180 deg rotation - cart. axis [1,0,0]        

 cryst.   s( 4) = (     1          0          0      )
                  (    -1         -1          0      )
                  (     0          0         -1      )

 cart.    s( 4) = (  1.0000000  0.0000000  0.0000000 )
                  (  0.0000000 -1.0000000  0.0000000 )
                  (  0.0000000  0.0000000 -1.0000000 )


      isym =  5      60 deg rotation - cryst. axis [0,0,1]       

 cryst.   s( 5) = (     1          1          0      )    f =(  0.0000000 )
                  (    -1          0          0      )       ( -0.0000000 )
                  (     0          0          1      )       (  0.5000000 )

 cart.    s( 5) = (  0.5000000 -0.8660254  0.0000000 )    f =(  0.0000000 )
                  (  0.8660254  0.5000000  0.0000000 )       ( -0.0000000 )
                  (  0.0000000  0.0000000  1.0000000 )       (  0.9500000 )


      isym =  6      60 deg rotation - cryst. axis [0,0,-1]      

 cryst.   s( 6) = (     0         -1          0      )    f =(  0.0000000 )
                  (     1          1          0      )       ( -0.0000000 )
                  (     0          0          1      )       (  0.5000000 )

 cart.    s( 6) = (  0.5000000  0.8660254  0.0000000 )    f =(  0.0000000 )
                  ( -0.8660254  0.5000000  0.0000000 )       ( -0.0000000 )
                  (  0.0000000  0.0000000  1.0000000 )       (  0.9500000 )


      isym =  7     120 deg rotation - cryst. axis [0,0,1]       

 cryst.   s( 7) = (     0          1          0      )
                  (    -1         -1          0      )
                  (     0          0          1      )

 cart.    s( 7) = ( -0.5000000 -0.8660254  0.0000000 )
                  (  0.8660254 -0.5000000  0.0000000 )
                  (  0.0000000  0.0000000  1.0000000 )


      isym =  8     120 deg rotation - cryst. axis [0,0,-1]      

 cryst.   s( 8) = (    -1         -1          0      )
                  (     1          0          0      )
                  (     0          0          1      )

 cart.    s( 8) = ( -0.5000000  0.8660254  0.0000000 )
                  ( -0.8660254 -0.5000000  0.0000000 )
                  (  0.0000000  0.0000000  1.0000000 )


      isym =  9     180 deg rotation - cryst. axis [1,-1,0]      

 cryst.   s( 9) = (     0         -1          0      )    f =(  0.0000000 )
                  (    -1          0          0      )       (  0.0000000 )
                  (     0          0         -1      )       ( -0.5000000 )

 cart.    s( 9) = (  0.5000000 -0.8660254  0.0000000 )    f =(  0.0000000 )
                  ( -0.8660254 -0.5000000  0.0000000 )       (  0.0000000 )
                  (  0.0000000  0.0000000 -1.0000000 )       ( -0.9500000 )


      isym = 10     180 deg rotation - cryst. axis [2,1,0]       

 cryst.   s(10) = (     1          1          0      )    f =(  0.0000000 )
                  (     0         -1          0      )       ( -0.0000000 )
                  (     0          0         -1      )       ( -0.5000000 )

 cart.    s(10) = (  0.5000000  0.8660254  0.0000000 )    f =(  0.0000000 )
                  (  0.8660254 -0.5000000  0.0000000 )       ( -0.0000000 )
                  (  0.0000000  0.0000000 -1.0000000 )       ( -0.9500000 )


      isym = 11     180 deg rotation - cryst. axis [0,1,0]       

 cryst.   s(11) = (    -1         -1          0      )
                  (     0          1          0      )
                  (     0          0         -1      )

 cart.    s(11) = ( -0.5000000 -0.8660254  0.0000000 )
                  ( -0.8660254  0.5000000  0.0000000 )
                  (  0.0000000  0.0000000 -1.0000000 )


      isym = 12     180 deg rotation - cryst. axis [1,1,0]       

 cryst.   s(12) = (     0          1          0      )
                  (     1          0          0      )
                  (     0          0         -1      )

 cart.    s(12) = ( -0.5000000  0.8660254  0.0000000 )
                  (  0.8660254  0.5000000  0.0000000 )
                  (  0.0000000  0.0000000 -1.0000000 )


      isym = 13     inversion                                    

 cryst.   s(13) = (    -1          0          0      )
                  (     0         -1          0      )
                  (     0          0         -1      )

 cart.    s(13) = ( -1.0000000  0.0000000  0.0000000 )
                  (  0.0000000 -1.0000000  0.0000000 )
                  (  0.0000000  0.0000000 -1.0000000 )


      isym = 14     inv. 180 deg rotation - cart. axis [0,0,1]   

 cryst.   s(14) = (     1          0          0      )    f =(  0.0000000 )
                  (     0          1          0      )       (  0.0000000 )
                  (     0          0         -1      )       ( -0.5000000 )

 cart.    s(14) = (  1.0000000  0.0000000  0.0000000 )    f =(  0.0000000 )
                  (  0.0000000  1.0000000  0.0000000 )       (  0.0000000 )
                  (  0.0000000  0.0000000 -1.0000000 )       ( -0.9500000 )


      isym = 15     inv. 180 deg rotation - cart. axis [0,1,0]   

 cryst.   s(15) = (     1          0          0      )    f =(  0.0000000 )
                  (    -1         -1          0      )       (  0.0000000 )
                  (     0          0          1      )       (  0.5000000 )

 cart.    s(15) = (  1.0000000  0.0000000  0.0000000 )    f =(  0.0000000 )
                  (  0.0000000 -1.0000000  0.0000000 )       (  0.0000000 )
                  (  0.0000000  0.0000000  1.0000000 )       (  0.9500000 )


      isym = 16     inv. 180 deg rotation - cart. axis [1,0,0]   

 cryst.   s(16) = (    -1          0          0      )
                  (     1          1          0      )
                  (     0          0          1      )

 cart.    s(16) = ( -1.0000000  0.0000000  0.0000000 )
                  (  0.0000000  1.0000000  0.0000000 )
                  (  0.0000000  0.0000000  1.0000000 )


      isym = 17     inv.  60 deg rotation - cryst. axis [0,0,1]  

 cryst.   s(17) = (    -1         -1          0      )    f =(  0.0000000 )
                  (     1          0          0      )       (  0.0000000 )
                  (     0          0         -1      )       ( -0.5000000 )

 cart.    s(17) = ( -0.5000000  0.8660254  0.0000000 )    f =(  0.0000000 )
                  ( -0.8660254 -0.5000000  0.0000000 )       (  0.0000000 )
                  (  0.0000000  0.0000000 -1.0000000 )       ( -0.9500000 )


      isym = 18     inv.  60 deg rotation - cryst. axis [0,0,-1] 

 cryst.   s(18) = (     0          1          0      )    f =(  0.0000000 )
                  (    -1         -1          0      )       ( -0.0000000 )
                  (     0          0         -1      )       ( -0.5000000 )

 cart.    s(18) = ( -0.5000000 -0.8660254  0.0000000 )    f =(  0.0000000 )
                  (  0.8660254 -0.5000000  0.0000000 )       ( -0.0000000 )
                  (  0.0000000  0.0000000 -1.0000000 )       ( -0.9500000 )


      isym = 19     inv. 120 deg rotation - cryst. axis [0,0,1]  

 cryst.   s(19) = (     0         -1          0      )
                  (     1          1          0      )
                  (     0          0         -1      )

 cart.    s(19) = (  0.5000000  0.8660254  0.0000000 )
                  ( -0.8660254  0.5000000  0.0000000 )
                  (  0.0000000  0.0000000 -1.0000000 )


      isym = 20     inv. 120 deg rotation - cryst. axis [0,0,-1] 

 cryst.   s(20) = (     1          1          0      )
                  (    -1          0          0      )
                  (     0          0         -1      )

 cart.    s(20) = (  0.5000000 -0.8660254  0.0000000 )
                  (  0.8660254  0.5000000  0.0000000 )
                  (  0.0000000  0.0000000 -1.0000000 )


      isym = 21     inv. 180 deg rotation - cryst. axis [1,-1,0] 

 cryst.   s(21) = (     0          1          0      )    f =(  0.0000000 )
                  (     1          0          0      )       ( -0.0000000 )
                  (     0          0          1      )       (  0.5000000 )

 cart.    s(21) = ( -0.5000000  0.8660254  0.0000000 )    f =(  0.0000000 )
                  (  0.8660254  0.5000000  0.0000000 )       ( -0.0000000 )
                  (  0.0000000  0.0000000  1.0000000 )       (  0.9500000 )


      isym = 22     inv. 180 deg rotation - cryst. axis [2,1,0]  

 cryst.   s(22) = (    -1         -1          0      )    f =(  0.0000000 )
                  (     0          1          0      )       ( -0.0000000 )
                  (     0          0          1      )       (  0.5000000 )

 cart.    s(22) = ( -0.5000000 -0.8660254  0.0000000 )    f =(  0.0000000 )
                  ( -0.8660254  0.5000000  0.0000000 )       ( -0.0000000 )
                  (  0.0000000  0.0000000  1.0000000 )       (  0.9500000 )


      isym = 23     inv. 180 deg rotation - cryst. axis [0,1,0]  

 cryst.   s(23) = (     1          1          0      )
                  (     0         -1          0      )
                  (     0          0          1      )

 cart.    s(23) = (  0.5000000  0.8660254  0.0000000 )
                  (  0.8660254 -0.5000000  0.0000000 )
                  (  0.0000000  0.0000000  1.0000000 )


      isym = 24     inv. 180 deg rotation - cryst. axis [1,1,0]  

 cryst.   s(24) = (     0         -1          0      )
                  (    -1          0          0      )
                  (     0          0          1      )

 cart.    s(24) = (  0.5000000 -0.8660254  0.0000000 )
                  ( -0.8660254 -0.5000000  0.0000000 )
                  (  0.0000000  0.0000000  1.0000000 )


     point group D_6h(6/mmm)
     there are 12 classes
     the character table:

       E     2C6   2C3   C2    3C2'  3C2'' i     2S3   2S6   s_h   3s_d  3s_v 
A_1g   1.00  1.00  1.00  1.00  1.00  1.00  1.00  1.00  1.00  1.00  1.00  1.00
A_2g   1.00  1.00  1.00  1.00 -1.00 -1.00  1.00  1.00  1.00  1.00 -1.00 -1.00
B_1g   1.00 -1.00  1.00 -1.00  1.00 -1.00  1.00 -1.00  1.00 -1.00  1.00 -1.00
B_2g   1.00 -1.00  1.00 -1.00 -1.00  1.00  1.00 -1.00  1.00 -1.00 -1.00  1.00
E_1g   2.00  1.00 -1.00 -2.00  0.00  0.00  2.00  1.00 -1.00 -2.00  0.00  0.00
E_2g   2.00 -1.00 -1.00  2.00  0.00  0.00  2.00 -1.00 -1.00  2.00  0.00  0.00
A_1u   1.00  1.00  1.00  1.00  1.00  1.00 -1.00 -1.00 -1.00 -1.00 -1.00 -1.00
A_2u   1.00  1.00  1.00  1.00 -1.00 -1.00 -1.00 -1.00 -1.00 -1.00  1.00  1.00
B_1u   1.00 -1.00  1.00 -1.00  1.00 -1.00 -1.00  1.00 -1.00  1.00 -1.00  1.00
B_2u   1.00 -1.00  1.00 -1.00 -1.00  1.00 -1.00  1.00 -1.00  1.00  1.00 -1.00
E_1u   2.00  1.00 -1.00 -2.00  0.00  0.00 -2.00 -1.00  1.00  2.00  0.00  0.00
E_2u   2.00 -1.00 -1.00  2.00  0.00  0.00 -2.00  1.00  1.00 -2.00  0.00  0.00

     the symmetry operations in each class and the name of the first element:

     E        1
          identity                                               
     2C6      5    6
           60 deg rotation - cryst. axis [0,0,1]                 
     2C3      7    8
          120 deg rotation - cryst. axis [0,0,1]                 
     C2       2
          180 deg rotation - cart. axis [0,0,1]                  
     3C2'     4   12   11
          180 deg rotation - cart. axis [1,0,0]                  
     3C2''    3    9   10
          180 deg rotation - cart. axis [0,1,0]                  
     i       13
          inversion                                              
     2S3     17   18
          inv.  60 deg rotation - cryst. axis [0,0,1]            
     2S6     19   20
          inv. 120 deg rotation - cryst. axis [0,0,1]            
     s_h     14
          inv. 180 deg rotation - cart. axis [0,0,1]             
     3s_d    16   24   23
          inv. 180 deg rotation - cart. axis [1,0,0]             
     3s_v    15   21   22
          inv. 180 deg rotation - cart. axis [0,1,0]             

   Cartesian axes

     site n.     atom                  positions (alat units)
         1           Zn  tau(   1) = (  -0.0000000   0.5773503   0.4750000  )
         2           Zn  tau(   2) = (   0.5000000   0.2886751   1.4250000  )

   Crystallographic axes

     site n.     atom                  positions (cryst. coord.)
         1           Zn  tau(   1) = (  0.3333333  0.6666667  0.2500000  )
         2           Zn  tau(   2) = (  0.6666667  0.3333333  0.7500000  )

     number of k points=    96  Marzari-Vanderbilt smearing, width (Ry)=  0.0005
                       cart. coord. in units 2pi/alat
        k(    1) = (   0.0000000   0.0000000   0.0000000), wk =   0.0007289
        k(    2) = (   0.0000000   0.0000000   0.0751880), wk =   0.0014577
        k(    3) = (   0.0000000   0.0000000   0.1503759), wk =   0.0014577
        k(    4) = (   0.0000000   0.0000000   0.2255639), wk =   0.0014577
        k(    5) = (   0.0000000   0.0824786   0.0000000), wk =   0.0043732
        k(    6) = (   0.0000000   0.0824786   0.0751880), wk =   0.0087464
        k(    7) = (   0.0000000   0.0824786   0.1503759), wk =   0.0087464
        k(    8) = (   0.0000000   0.0824786   0.2255639), wk =   0.0087464
        k(    9) = (   0.0000000   0.1649572   0.0000000), wk =   0.0043732
        k(   10) = (   0.0000000   0.1649572   0.0751880), wk =   0.0087464
        k(   11) = (   0.0000000   0.1649572   0.1503759), wk =   0.0087464
        k(   12) = (   0.0000000   0.1649572   0.2255639), wk =   0.0087464
        k(   13) = (   0.0000000   0.2474358   0.0000000), wk =   0.0043732
        k(   14) = (   0.0000000   0.2474358   0.0751880), wk =   0.0087464
        k(   15) = (   0.0000000   0.2474358   0.1503759), wk =   0.0087464
        k(   16) = (   0.0000000   0.2474358   0.2255639), wk =   0.0087464
        k(   17) = (   0.0000000   0.3299144   0.0000000), wk =   0.0043732
        k(   18) = (   0.0000000   0.3299144   0.0751880), wk =   0.0087464
        k(   19) = (   0.0000000   0.3299144   0.1503759), wk =   0.0087464
        k(   20) = (   0.0000000   0.3299144   0.2255639), wk =   0.0087464
        k(   21) = (   0.0000000   0.4123930   0.0000000), wk =   0.0043732
        k(   22) = (   0.0000000   0.4123930   0.0751880), wk =   0.0087464
        k(   23) = (   0.0000000   0.4123930   0.1503759), wk =   0.0087464
        k(   24) = (   0.0000000   0.4123930   0.2255639), wk =   0.0087464
        k(   25) = (   0.0000000   0.4948717   0.0000000), wk =   0.0043732
        k(   26) = (   0.0000000   0.4948717   0.0751880), wk =   0.0087464
        k(   27) = (   0.0000000   0.4948717   0.1503759), wk =   0.0087464
        k(   28) = (   0.0000000   0.4948717   0.2255639), wk =   0.0087464
        k(   29) = (   0.0000000  -0.5773503   0.0000000), wk =   0.0021866
        k(   30) = (   0.0000000  -0.5773503   0.0751880), wk =   0.0043732
        k(   31) = (   0.0000000  -0.5773503   0.1503759), wk =   0.0043732
        k(   32) = (   0.0000000  -0.5773503   0.2255639), wk =   0.0043732
        k(   33) = (   0.0714286   0.1237179   0.0000000), wk =   0.0043732
        k(   34) = (   0.0714286   0.1237179   0.0751880), wk =   0.0087464
        k(   35) = (   0.0714286   0.1237179   0.1503759), wk =   0.0087464
        k(   36) = (   0.0714286   0.1237179   0.2255639), wk =   0.0087464
        k(   37) = (   0.0714286   0.2061965   0.0000000), wk =   0.0087464
        k(   38) = (   0.0714286   0.2061965   0.0751880), wk =   0.0174927
        k(   39) = (   0.0714286   0.2061965   0.1503759), wk =   0.0174927
        k(   40) = (   0.0714286   0.2061965   0.2255639), wk =   0.0174927
        k(   41) = (   0.0714286   0.2886751   0.0000000), wk =   0.0087464
        k(   42) = (   0.0714286   0.2886751   0.0751880), wk =   0.0174927
        k(   43) = (   0.0714286   0.2886751   0.1503759), wk =   0.0174927
        k(   44) = (   0.0714286   0.2886751   0.2255639), wk =   0.0174927
        k(   45) = (   0.0714286   0.3711537   0.0000000), wk =   0.0087464
        k(   46) = (   0.0714286   0.3711537   0.0751880), wk =   0.0174927
        k(   47) = (   0.0714286   0.3711537   0.1503759), wk =   0.0174927
        k(   48) = (   0.0714286   0.3711537   0.2255639), wk =   0.0174927
        k(   49) = (   0.0714286   0.4536324   0.0000000), wk =   0.0087464
        k(   50) = (   0.0714286   0.4536324   0.0751880), wk =   0.0174927
        k(   51) = (   0.0714286   0.4536324   0.1503759), wk =   0.0174927
        k(   52) = (   0.0714286   0.4536324   0.2255639), wk =   0.0174927
        k(   53) = (   0.0714286   0.5361110   0.0000000), wk =   0.0087464
        k(   54) = (   0.0714286   0.5361110   0.0751880), wk =   0.0174927
        k(   55) = (   0.0714286   0.5361110   0.1503759), wk =   0.0174927
        k(   56) = (   0.0714286   0.5361110   0.2255639), wk =   0.0174927
        k(   57) = (   0.1428571   0.2474358   0.0000000), wk =   0.0043732
        k(   58) = (   0.1428571   0.2474358   0.0751880), wk =   0.0087464
        k(   59) = (   0.1428571   0.2474358   0.1503759), wk =   0.0087464
        k(   60) = (   0.1428571   0.2474358   0.2255639), wk =   0.0087464
        k(   61) = (   0.1428571   0.3299144   0.0000000), wk =   0.0087464
        k(   62) = (   0.1428571   0.3299144   0.0751880), wk =   0.0174927
        k(   63) = (   0.1428571   0.3299144   0.1503759), wk =   0.0174927
        k(   64) = (   0.1428571   0.3299144   0.2255639), wk =   0.0174927
        k(   65) = (   0.1428571   0.4123930   0.0000000), wk =   0.0087464
        k(   66) = (   0.1428571   0.4123930   0.0751880), wk =   0.0174927
        k(   67) = (   0.1428571   0.4123930   0.1503759), wk =   0.0174927
        k(   68) = (   0.1428571   0.4123930   0.2255639), wk =   0.0174927
        k(   69) = (   0.1428571   0.4948717   0.0000000), wk =   0.0087464
        k(   70) = (   0.1428571   0.4948717   0.0751880), wk =   0.0174927
        k(   71) = (   0.1428571   0.4948717   0.1503759), wk =   0.0174927
        k(   72) = (   0.1428571   0.4948717   0.2255639), wk =   0.0174927
        k(   73) = (   0.1428571   0.5773503   0.0000000), wk =   0.0043732
        k(   74) = (   0.1428571   0.5773503   0.0751880), wk =   0.0087464
        k(   75) = (   0.1428571   0.5773503   0.1503759), wk =   0.0087464
        k(   76) = (   0.1428571   0.5773503   0.2255639), wk =   0.0087464
        k(   77) = (   0.2142857   0.3711537   0.0000000), wk =   0.0043732
        k(   78) = (   0.2142857   0.3711537   0.0751880), wk =   0.0087464
        k(   79) = (   0.2142857   0.3711537   0.1503759), wk =   0.0087464
        k(   80) = (   0.2142857   0.3711537   0.2255639), wk =   0.0087464
        k(   81) = (   0.2142857   0.4536324   0.0000000), wk =   0.0087464
        k(   82) = (   0.2142857   0.4536324   0.0751880), wk =   0.0174927
        k(   83) = (   0.2142857   0.4536324   0.1503759), wk =   0.0174927
        k(   84) = (   0.2142857   0.4536324   0.2255639), wk =   0.0174927
        k(   85) = (   0.2142857   0.5361110   0.0000000), wk =   0.0087464
        k(   86) = (   0.2142857   0.5361110   0.0751880), wk =   0.0174927
        k(   87) = (   0.2142857   0.5361110   0.1503759), wk =   0.0174927
        k(   88) = (   0.2142857   0.5361110   0.2255639), wk =   0.0174927
        k(   89) = (   0.2857143   0.4948717   0.0000000), wk =   0.0043732
        k(   90) = (   0.2857143   0.4948717   0.0751880), wk =   0.0087464
        k(   91) = (   0.2857143   0.4948717   0.1503759), wk =   0.0087464
        k(   92) = (   0.2857143   0.4948717   0.2255639), wk =   0.0087464
        k(   93) = (   0.2857143   0.5773503   0.0000000), wk =   0.0043732
        k(   94) = (   0.2857143   0.5773503   0.0751880), wk =   0.0087464
        k(   95) = (   0.2857143   0.5773503   0.1503759), wk =   0.0087464
        k(   96) = (   0.2857143   0.5773503   0.2255639), wk =   0.0087464

                       cryst. coord.
        k(    1) = (   0.0000000   0.0000000   0.0000000), wk =   0.0007289
        k(    2) = (   0.0000000   0.0000000   0.1428571), wk =   0.0014577
        k(    3) = (   0.0000000   0.0000000   0.2857143), wk =   0.0014577
        k(    4) = (   0.0000000   0.0000000   0.4285714), wk =   0.0014577
        k(    5) = (   0.0000000   0.0714286   0.0000000), wk =   0.0043732
        k(    6) = (   0.0000000   0.0714286   0.1428571), wk =   0.0087464
        k(    7) = (   0.0000000   0.0714286   0.2857143), wk =   0.0087464
        k(    8) = (   0.0000000   0.0714286   0.4285714), wk =   0.0087464
        k(    9) = (   0.0000000   0.1428571   0.0000000), wk =   0.0043732
        k(   10) = (   0.0000000   0.1428571   0.1428571), wk =   0.0087464
        k(   11) = (   0.0000000   0.1428571   0.2857143), wk =   0.0087464
        k(   12) = (   0.0000000   0.1428571   0.4285714), wk =   0.0087464
        k(   13) = (   0.0000000   0.2142857   0.0000000), wk =   0.0043732
        k(   14) = (   0.0000000   0.2142857   0.1428571), wk =   0.0087464
        k(   15) = (   0.0000000   0.2142857   0.2857143), wk =   0.0087464
        k(   16) = (   0.0000000   0.2142857   0.4285714), wk =   0.0087464
        k(   17) = (   0.0000000   0.2857143   0.0000000), wk =   0.0043732
        k(   18) = (   0.0000000   0.2857143   0.1428571), wk =   0.0087464
        k(   19) = (   0.0000000   0.2857143   0.2857143), wk =   0.0087464
        k(   20) = (   0.0000000   0.2857143   0.4285714), wk =   0.0087464
        k(   21) = (   0.0000000   0.3571429   0.0000000), wk =   0.0043732
        k(   22) = (   0.0000000   0.3571429   0.1428571), wk =   0.0087464
        k(   23) = (   0.0000000   0.3571429   0.2857143), wk =   0.0087464
        k(   24) = (   0.0000000   0.3571429   0.4285714), wk =   0.0087464
        k(   25) = (   0.0000000   0.4285714   0.0000000), wk =   0.0043732
        k(   26) = (   0.0000000   0.4285714   0.1428571), wk =   0.0087464
        k(   27) = (   0.0000000   0.4285714   0.2857143), wk =   0.0087464
        k(   28) = (   0.0000000   0.4285714   0.4285714), wk =   0.0087464
        k(   29) = (   0.0000000  -0.5000000   0.0000000), wk =   0.0021866
        k(   30) = (   0.0000000  -0.5000000   0.1428571), wk =   0.0043732
        k(   31) = (   0.0000000  -0.5000000   0.2857143), wk =   0.0043732
        k(   32) = (   0.0000000  -0.5000000   0.4285714), wk =   0.0043732
        k(   33) = (   0.0714286   0.0714286   0.0000000), wk =   0.0043732
        k(   34) = (   0.0714286   0.0714286   0.1428571), wk =   0.0087464
        k(   35) = (   0.0714286   0.0714286   0.2857143), wk =   0.0087464
        k(   36) = (   0.0714286   0.0714286   0.4285714), wk =   0.0087464
        k(   37) = (   0.0714286   0.1428571   0.0000000), wk =   0.0087464
        k(   38) = (   0.0714286   0.1428571   0.1428571), wk =   0.0174927
        k(   39) = (   0.0714286   0.1428571   0.2857143), wk =   0.0174927
        k(   40) = (   0.0714286   0.1428571   0.4285714), wk =   0.0174927
        k(   41) = (   0.0714286   0.2142857   0.0000000), wk =   0.0087464
        k(   42) = (   0.0714286   0.2142857   0.1428571), wk =   0.0174927
        k(   43) = (   0.0714286   0.2142857   0.2857143), wk =   0.0174927
        k(   44) = (   0.0714286   0.2142857   0.4285714), wk =   0.0174927
        k(   45) = (   0.0714286   0.2857143   0.0000000), wk =   0.0087464
        k(   46) = (   0.0714286   0.2857143   0.1428571), wk =   0.0174927
        k(   47) = (   0.0714286   0.2857143   0.2857143), wk =   0.0174927
        k(   48) = (   0.0714286   0.2857143   0.4285714), wk =   0.0174927
        k(   49) = (   0.0714286   0.3571429   0.0000000), wk =   0.0087464
        k(   50) = (   0.0714286   0.3571429   0.1428571), wk =   0.0174927
        k(   51) = (   0.0714286   0.3571429   0.2857143), wk =   0.0174927
        k(   52) = (   0.0714286   0.3571429   0.4285714), wk =   0.0174927
        k(   53) = (   0.0714286   0.4285714   0.0000000), wk =   0.0087464
        k(   54) = (   0.0714286   0.4285714   0.1428571), wk =   0.0174927
        k(   55) = (   0.0714286   0.4285714   0.2857143), wk =   0.0174927
        k(   56) = (   0.0714286   0.4285714   0.4285714), wk =   0.0174927
        k(   57) = (   0.1428571   0.1428571   0.0000000), wk =   0.0043732
        k(   58) = (   0.1428571   0.1428571   0.1428571), wk =   0.0087464
        k(   59) = (   0.1428571   0.1428571   0.2857143), wk =   0.0087464
        k(   60) = (   0.1428571   0.1428571   0.4285714), wk =   0.0087464
        k(   61) = (   0.1428571   0.2142857   0.0000000), wk =   0.0087464
        k(   62) = (   0.1428571   0.2142857   0.1428571), wk =   0.0174927
        k(   63) = (   0.1428571   0.2142857   0.2857143), wk =   0.0174927
        k(   64) = (   0.1428571   0.2142857   0.4285714), wk =   0.0174927
        k(   65) = (   0.1428571   0.2857143   0.0000000), wk =   0.0087464
        k(   66) = (   0.1428571   0.2857143   0.1428571), wk =   0.0174927
        k(   67) = (   0.1428571   0.2857143   0.2857143), wk =   0.0174927
        k(   68) = (   0.1428571   0.2857143   0.4285714), wk =   0.0174927
        k(   69) = (   0.1428571   0.3571429   0.0000000), wk =   0.0087464
        k(   70) = (   0.1428571   0.3571429   0.1428571), wk =   0.0174927
        k(   71) = (   0.1428571   0.3571429   0.2857143), wk =   0.0174927
        k(   72) = (   0.1428571   0.3571429   0.4285714), wk =   0.0174927
        k(   73) = (   0.1428571   0.4285714   0.0000000), wk =   0.0043732
        k(   74) = (   0.1428571   0.4285714   0.1428571), wk =   0.0087464
        k(   75) = (   0.1428571   0.4285714   0.2857143), wk =   0.0087464
        k(   76) = (   0.1428571   0.4285714   0.4285714), wk =   0.0087464
        k(   77) = (   0.2142857   0.2142857   0.0000000), wk =   0.0043732
        k(   78) = (   0.2142857   0.2142857   0.1428571), wk =   0.0087464
        k(   79) = (   0.2142857   0.2142857   0.2857143), wk =   0.0087464
        k(   80) = (   0.2142857   0.2142857   0.4285714), wk =   0.0087464
        k(   81) = (   0.2142857   0.2857143   0.0000000), wk =   0.0087464
        k(   82) = (   0.2142857   0.2857143   0.1428571), wk =   0.0174927
        k(   83) = (   0.2142857   0.2857143   0.2857143), wk =   0.0174927
        k(   84) = (   0.2142857   0.2857143   0.4285714), wk =   0.0174927
        k(   85) = (   0.2142857   0.3571429   0.0000000), wk =   0.0087464
        k(   86) = (   0.2142857   0.3571429   0.1428571), wk =   0.0174927
        k(   87) = (   0.2142857   0.3571429   0.2857143), wk =   0.0174927
        k(   88) = (   0.2142857   0.3571429   0.4285714), wk =   0.0174927
        k(   89) = (   0.2857143   0.2857143   0.0000000), wk =   0.0043732
        k(   90) = (   0.2857143   0.2857143   0.1428571), wk =   0.0087464
        k(   91) = (   0.2857143   0.2857143   0.2857143), wk =   0.0087464
        k(   92) = (   0.2857143   0.2857143   0.4285714), wk =   0.0087464
        k(   93) = (   0.2857143   0.3571429   0.0000000), wk =   0.0043732
        k(   94) = (   0.2857143   0.3571429   0.1428571), wk =   0.0087464
        k(   95) = (   0.2857143   0.3571429   0.2857143), wk =   0.0087464
        k(   96) = (   0.2857143   0.3571429   0.4285714), wk =   0.0087464

     Dense  grid:    15259 G-vectors     FFT dimensions: (  27,  27,  50)

     Dynamical RAM for                 wfc:       0.03 MB

     Dynamical RAM for     wfc (w. buffer):       3.22 MB

     Dynamical RAM for           str. fact:       0.02 MB

     Dynamical RAM for           local pot:       0.00 MB

     Dynamical RAM for          nlocal pot:       0.07 MB

     Dynamical RAM for                qrad:       1.34 MB

     Dynamical RAM for          rho,v,vnew:       0.23 MB

     Dynamical RAM for               rhoin:       0.08 MB

     Dynamical RAM for            rho*nmix:       0.53 MB

     Dynamical RAM for           G-vectors:       0.07 MB

     Dynamical RAM for          h,s,v(r/c):       0.05 MB

     Dynamical RAM for          <psi|beta>:       0.01 MB

     Dynamical RAM for                 psi:       0.07 MB

     Dynamical RAM for                hpsi:       0.07 MB

     Dynamical RAM for                spsi:       0.07 MB

     Dynamical RAM for      wfcinit/wfcrot:       0.07 MB

     Dynamical RAM for           addusdens:       1.59 MB

     Estimated static dynamical RAM per process >       5.20 MB

     Estimated max dynamical RAM per process >       7.32 MB

     Estimated total dynamical RAM >     197.54 MB

     Check: negative core charge=   -0.000003
     Generating pointlists ...
     new r_m :   0.4125 (alat units)  2.0213 (a.u.) for type    1

     The initial density is read from file :
     ./out/Zn.save/charge-density


     starting charge      24.1270, renormalised to      24.0000

     negative rho (up, down):  8.782E-01 8.782E-01
     Starting wfcs from file
     Checking if some PAW data can be deallocated... 

     total cpu time spent up to now is        0.6 secs

     Self-consistent Calculation

     iteration #  1     ecut=    70.00 Ry     beta= 0.70
     Davidson diagonalization with overlap

---- Real-time Memory Report at c_bands before calling an iterative solver
            60 MiB given to the printing process from OS
             0 MiB allocation reported by mallinfo(arena+hblkhd)
        149495 MiB available memory on the node where the printing process lives
------------------
     c_bands:  1 eigenvalues not converged
     c_bands:  1 eigenvalues not converged
     c_bands:  1 eigenvalues not converged
     ethr =  1.00E-05,  avg # of iterations =  9.9

     negative rho (up, down):  2.121E-02 2.121E-02

     total cpu time spent up to now is        2.7 secs

     total energy              =    -487.22269599 Ry
     estimated scf accuracy    <       0.64407773 Ry

     total magnetization       =     0.00 Bohr mag/cell
     absolute magnetization    =     0.00 Bohr mag/cell

     iteration #  2     ecut=    70.00 Ry     beta= 0.70
     Davidson diagonalization with overlap

---- Real-time Memory Report at c_bands before calling an iterative solver
            80 MiB given to the printing process from OS
             0 MiB allocation reported by mallinfo(arena+hblkhd)
        149207 MiB available memory on the node where the printing process lives
------------------
     ethr =  2.68E-03,  avg # of iterations =  1.4

     total cpu time spent up to now is        3.5 secs

     total energy              =    -487.43438680 Ry
     estimated scf accuracy    <       0.05565055 Ry

     total magnetization       =     0.00 Bohr mag/cell
     absolute magnetization    =     0.00 Bohr mag/cell

     iteration #  3     ecut=    70.00 Ry     beta= 0.70
     Davidson diagonalization with overlap

---- Real-time Memory Report at c_bands before calling an iterative solver
            80 MiB given to the printing process from OS
             0 MiB allocation reported by mallinfo(arena+hblkhd)
        149184 MiB available memory on the node where the printing process lives
------------------
     ethr =  2.32E-04,  avg # of iterations =  2.5

     total cpu time spent up to now is        4.4 secs

     total energy              =    -487.44366173 Ry
     estimated scf accuracy    <       0.00061811 Ry

     total magnetization       =     0.00 Bohr mag/cell
     absolute magnetization    =     0.00 Bohr mag/cell

     iteration #  4     ecut=    70.00 Ry     beta= 0.70
     Davidson diagonalization with overlap

---- Real-time Memory Report at c_bands before calling an iterative solver
            80 MiB given to the printing process from OS
             0 MiB allocation reported by mallinfo(arena+hblkhd)
        149172 MiB available memory on the node where the printing process lives
------------------
     ethr =  2.58E-06,  avg # of iterations =  6.3

     total cpu time spent up to now is        5.7 secs

     total energy              =    -487.44435648 Ry
     estimated scf accuracy    <       0.00019296 Ry

     total magnetization       =     0.00 Bohr mag/cell
     absolute magnetization    =     0.00 Bohr mag/cell

     iteration #  5     ecut=    70.00 Ry     beta= 0.70
     Davidson diagonalization with overlap

---- Real-time Memory Report at c_bands before calling an iterative solver
            81 MiB given to the printing process from OS
             0 MiB allocation reported by mallinfo(arena+hblkhd)
        149164 MiB available memory on the node where the printing process lives
------------------
     ethr =  8.04E-07,  avg # of iterations =  2.2

     total cpu time spent up to now is        6.6 secs

     total energy              =    -487.44442070 Ry
     estimated scf accuracy    <       0.00003053 Ry

     total magnetization       =     0.00 Bohr mag/cell
     absolute magnetization    =     0.00 Bohr mag/cell

     iteration #  6     ecut=    70.00 Ry     beta= 0.70
     Davidson diagonalization with overlap

---- Real-time Memory Report at c_bands before calling an iterative solver
            81 MiB given to the printing process from OS
             0 MiB allocation reported by mallinfo(arena+hblkhd)
        149155 MiB available memory on the node where the printing process lives
------------------
     ethr =  1.27E-07,  avg # of iterations =  1.8
 
     Magnetic moment per site  (integrated on atomic sphere of radius R)
     atom   1 (R=0.413)  charge= 10.6248  magn=  0.0000
     atom   2 (R=0.413)  charge= 10.6248  magn=  0.0000

     total cpu time spent up to now is        7.3 secs

     End of self-consistent calculation

 ------ SPIN UP ------------


          k = 0.0000 0.0000 0.0000 (  1921 PWs)   bands (ev):

     1.1018   3.0988   3.9248   4.2155   4.2155   4.2663   4.2663   4.6740
     4.6740   4.8821   4.8821   7.9504   8.7563  25.3044  29.0531  30.6397

     occupation numbers 
     1.0000   1.0000   1.0000   1.0000   1.0000   1.0000   1.0000   1.0000
     1.0000   1.0000   1.0000   1.0000   1.0000   0.0000   0.0000   0.0000

          k = 0.0000 0.0000 0.0752 (  1939 PWs)   bands (ev):

     1.2253   3.0751   3.9286   4.2147   4.2147   4.2612   4.2612   4.6877
     4.6877   4.8745   4.8745   6.6208  10.3677  23.3937  30.7655  30.7657

     occupation numbers 
     1.0000   1.0000   1.0000   1.0000   1.0000   1.0000   1.0000   1.0000
     1.0000   1.0000   1.0000   1.0000   1.0000   0.0000   0.0000   0.0000

          k = 0.0000 0.0000 0.1504 (  1945 PWs)   bands (ev):

     1.5831   2.9678   3.9545   4.2148   4.2148   4.2480   4.2480   4.7236
     4.7236   4.8519   4.8519   5.2975  12.5684  20.5056  31.1299  31.1299

     occupation numbers 
     1.0000   1.0000   1.0000   1.0000   1.0000   1.0000   1.0000   1.0000
     1.0000   1.0000   1.0000   1.0000   0.0000   0.0000   0.0000   0.0000

          k = 0.0000 0.0000 0.2256 (  1938 PWs)   bands (ev):

     2.1179   2.6582   4.0635   4.2203   4.2203   4.2324   4.2324   4.4318
     4.7702   4.7702   4.8157   4.8157  15.0141  17.6726  31.6730  31.6742

     occupation numbers 
     1.0000   1.0000   1.0000   1.0000   1.0000   1.0000   1.0000   1.0000
     1.0000   1.0000   1.0000   1.0000   0.0000   0.0000   0.0000   0.0000

          k = 0.0000 0.0825 0.0000 (  1923 PWs)   bands (ev):

     1.2622   3.1769   3.9447   4.1962   4.2466   4.2564   4.3055   4.6342
     4.6585   4.7751   4.8833   8.2232   8.8325  25.4857  27.8534  29.2167

     occupation numbers 
     1.0000   1.0000   1.0000   1.0000   1.0000   1.0000   1.0000   1.0000
     1.0000   1.0000   1.0000   1.0000   1.0000   0.0000   0.0000   0.0000

          k = 0.0000 0.0825 0.0752 (  1931 PWs)   bands (ev):

     1.3849   3.1578   3.9470   4.1936   4.2401   4.2552   4.3002   4.6511
     4.6734   4.7563   4.8749   6.8300  10.5158  23.5481  28.0232  29.3494

     occupation numbers 
     1.0000   1.0000   1.0000   1.0000   1.0000   1.0000   1.0000   1.0000
     1.0000   1.0000   1.0000   1.0000   1.0000   0.0000   0.0000   0.0000

          k = 0.0000 0.0825 0.1504 (  1937 PWs)   bands (ev):

     1.7396   3.0670   3.9661   4.1910   4.2233   4.2545   4.2868   4.6475
     4.7121   4.7189   4.8502   5.5556  12.7204  20.6551  28.4010  29.7436

     occupation numbers 
     1.0000   1.0000   1.0000   1.0000   1.0000   1.0000   1.0000   1.0000
     1.0000   1.0000   1.0000   1.0000   0.0000   0.0000   0.0000   0.0000

          k = 0.0000 0.0825 0.2256 (  1948 PWs)   bands (ev):

     2.2665   2.7860   4.0526   4.1962   4.2015   4.2594   4.2712   4.3480
     4.7621   4.7872   4.8110   4.9393  15.1654  17.8226  29.0110  29.8446

     occupation numbers 
     1.0000   1.0000   1.0000   1.0000   1.0000   1.0000   1.0000   1.0000
     1.0000   1.0000   1.0000   1.0000   0.0000   0.0000   0.0000   0.0000

          k = 0.0000 0.1650 0.0000 (  1921 PWs)   bands (ev):

     1.7328   3.3762   3.9847   4.1533   4.2239   4.3727   4.4166   4.4521
     4.6159   4.6177   4.8839   8.9473   9.0810  24.3216  25.9981  27.4363

     occupation numbers 
     1.0000   1.0000   1.0000   1.0000   1.0000   1.0000   1.0000   1.0000
     1.0000   1.0000   1.0000   1.0000   1.0000   0.0000   0.0000   0.0000

          k = 0.0000 0.1650 0.0752 (  1924 PWs)   bands (ev):

     1.8517   3.3693   3.9863   4.1444   4.2070   4.3698   4.4107   4.4503
     4.6269   4.6364   4.8737   7.3463  10.9687  23.9207  24.5486  27.5766

     occupation numbers 
     1.0000   1.0000   1.0000   1.0000   1.0000   1.0000   1.0000   1.0000
     1.0000   1.0000   1.0000   1.0000   1.0000   0.0000   0.0000   0.0000

          k = 0.0000 0.1650 0.1504 (  1923 PWs)   bands (ev):

     2.1925   3.3223   3.9918   4.1299   4.1712   4.3663   4.3867   4.3965
     4.6831   4.6939   4.8441   6.0360  13.1755  21.0874  24.8661  27.4325

     occupation numbers 
     1.0000   1.0000   1.0000   1.0000   1.0000   1.0000   1.0000   1.0000
     1.0000   1.0000   1.0000   1.0000   0.0000   0.0000   0.0000   0.0000

          k = 0.0000 0.1650 0.2256 (  1934 PWs)   bands (ev):

     2.6846   3.1270   4.0203   4.0968   4.1593   4.2401   4.3694   4.3806
     4.7414   4.7981   4.8513   5.2127  15.6151  18.2648  25.4873  26.3500

     occupation numbers 
     1.0000   1.0000   1.0000   1.0000   1.0000   1.0000   1.0000   1.0000
     1.0000   1.0000   1.0000   1.0000   0.0000   0.0000   0.0000   0.0000

          k = 0.0000 0.2474 0.0000 (  1915 PWs)   bands (ev):

     2.4573   3.5649   4.0290   4.1155   4.1823   4.3322   4.4965   4.5455
     4.5632   4.5810   4.8804   9.5573   9.9889  20.9242  25.8704  26.4315

     occupation numbers 
     1.0000   1.0000   1.0000   1.0000   1.0000   1.0000   1.0000   1.0000
     1.0000   1.0000   1.0000   1.0000   1.0000   0.0000   0.0000   0.0000

          k = 0.0000 0.2474 0.0752 (  1924 PWs)   bands (ev):

     2.5610   3.5698   4.0251   4.0933   4.1725   4.3234   4.5268   4.5468
     4.5684   4.6055   4.8686   8.0754  11.7372  21.0415  24.6807  25.3767

     occupation numbers 
     1.0000   1.0000   1.0000   1.0000   1.0000   1.0000   1.0000   1.0000
     1.0000   1.0000   1.0000   1.0000   1.0000   0.0000   0.0000   0.0000

          k = 0.0000 0.2474 0.1504 (  1927 PWs)   bands (ev):

     2.8466   3.5673   4.0005   4.0384   4.1707   4.2974   4.5171   4.5549
     4.6608   4.7006   4.8349   6.6950  13.9273  21.2280  22.0416  24.0929

     occupation numbers 
     1.0000   1.0000   1.0000   1.0000   1.0000   1.0000   1.0000   1.0000
     1.0000   1.0000   1.0000   1.0000   0.0000   0.0000   0.0000   0.0000

          k = 0.0000 0.2474 0.2256 (  1918 PWs)   bands (ev):

     3.2147   3.4828   3.9666   3.9807   4.2035   4.2537   4.5220   4.5369
     4.7233   4.7842   5.0231   5.6617  16.3465  18.9583  22.1431  22.9964

     occupation numbers 
     1.0000   1.0000   1.0000   1.0000   1.0000   1.0000   1.0000   1.0000
     1.0000   1.0000   1.0000   1.0000   0.0000   0.0000   0.0000   0.0000

          k = 0.0000 0.3299 0.0000 (  1921 PWs)   bands (ev):

     3.1705   3.5768   3.9495   4.1220   4.2713   4.3767   4.5065   4.7083
     4.7440   4.7693   4.8729  10.3295  11.2781  17.7659  23.3865  24.2191

     occupation numbers 
     1.0000   1.0000   1.0000   1.0000   1.0000   1.0000   1.0000   1.0000
     1.0000   1.0000   1.0000   1.0000   1.0000   0.0000   0.0000   0.0000

          k = 0.0000 0.3299 0.0752 (  1919 PWs)   bands (ev):

     3.2153   3.5831   3.9398   4.0771   4.2421   4.5201   4.5262   4.7214
     4.7453   4.7625   4.8637   9.0413  12.8096  17.8891  22.2748  24.7353

     occupation numbers 
     1.0000   1.0000   1.0000   1.0000   1.0000   1.0000   1.0000   1.0000
     1.0000   1.0000   1.0000   1.0000   0.0000   0.0000   0.0000   0.0000

          k = 0.0000 0.3299 0.1504 (  1919 PWs)   bands (ev):

     3.3262   3.5890   3.9131   3.9655   4.3264   4.5582   4.5924   4.7222
     4.7676   4.8407   4.9803   7.6265  14.9488  18.2482  20.9873  22.7461

     occupation numbers 
     1.0000   1.0000   1.0000   1.0000   1.0000   1.0000   1.0000   1.0000
     1.0000   1.0000   1.0000   1.0000   0.0000   0.0000   0.0000   0.0000

          k = 0.0000 0.3299 0.2256 (  1918 PWs)   bands (ev):

     3.4546   3.5542   3.8845   3.8962   4.4366   4.5314   4.6130   4.6724
     4.7877   4.8133   5.5770   6.4625  17.2749  18.7134  19.9409  20.2344

     occupation numbers 
     1.0000   1.0000   1.0000   1.0000   1.0000   1.0000   1.0000   1.0000
     1.0000   1.0000   1.0000   1.0000   0.0000   0.0000   0.0000   0.0000

          k = 0.0000 0.4124 0.0000 (  1906 PWs)   bands (ev):

     3.3971   3.5073   3.7819   4.2573   4.2712   4.4578   4.5311   4.8640
     4.9284   4.9459   5.7701  11.3902  12.7793  14.9458  20.5073  21.5772

     occupation numbers 
     1.0000   1.0000   1.0000   1.0000   1.0000   1.0000   1.0000   1.0000
     1.0000   1.0000   1.0000   1.0000   0.0000   0.0000   0.0000   0.0000

          k = 0.0000 0.4124 0.0752 (  1909 PWs)   bands (ev):

     3.3960   3.5023   3.7958   4.1035   4.3547   4.4759   4.6450   4.8378
     4.9306   4.9502   5.8547  10.2696  14.0880  15.0900  19.4539  22.7236

     occupation numbers 
     1.0000   1.0000   1.0000   1.0000   1.0000   1.0000   1.0000   1.0000
     1.0000   1.0000   1.0000   1.0000   0.0000   0.0000   0.0000   0.0000

          k = 0.0000 0.4124 0.1504 (  1914 PWs)   bands (ev):

     3.4042   3.4989   3.8052   3.9332   4.4879   4.5271   4.7588   4.7739
     4.9361   4.9532   6.1699   8.8815  15.3417  16.1182  18.3297  23.2476

     occupation numbers 
     1.0000   1.0000   1.0000   1.0000   1.0000   1.0000   1.0000   1.0000
     1.0000   1.0000   1.0000   1.0000   0.0000   0.0000   0.0000   0.0000

          k = 0.0000 0.4124 0.2256 (  1917 PWs)   bands (ev):

     3.4379   3.4809   3.8018   3.8292   4.6030   4.6393   4.6904   4.7478
     4.9435   4.9502   6.7900   7.7051  15.9631  16.6701  18.9728  21.2579

     occupation numbers 
     1.0000   1.0000   1.0000   1.0000   1.0000   1.0000   1.0000   1.0000
     1.0000   1.0000   1.0000   1.0000   0.0000   0.0000   0.0000   0.0000

          k = 0.0000 0.4949 0.0000 (  1912 PWs)   bands (ev):

     3.3790   3.4583   3.6832   4.1986   4.3562   4.4251   4.6850   4.8570
     5.0573   5.0744   7.4217  11.5888  13.6279  14.4285  17.9426  19.2213

     occupation numbers 
     1.0000   1.0000   1.0000   1.0000   1.0000   1.0000   1.0000   1.0000
     1.0000   1.0000   1.0000   1.0000   0.0000   0.0000   0.0000   0.0000

          k = 0.0000 0.4949 0.0752 (  1902 PWs)   bands (ev):

     3.3826   3.4315   3.7100   4.0830   4.4207   4.4451   4.7667   4.8335
     5.0586   5.0744   7.5207  11.2372  13.0130  15.4115  17.2925  20.3776

     occupation numbers 
     1.0000   1.0000   1.0000   1.0000   1.0000   1.0000   1.0000   1.0000
     1.0000   1.0000   1.0000   1.0000   0.0000   0.0000   0.0000   0.0000

          k = 0.0000 0.4949 0.1504 (  1902 PWs)   bands (ev):

     3.3782   3.4166   3.7358   3.9045   4.5017   4.5684   4.7696   4.8635
     5.0619   5.0733   7.8394  10.2650  13.0141  15.1616  18.2874  22.0018

     occupation numbers 
     1.0000   1.0000   1.0000   1.0000   1.0000   1.0000   1.0000   1.0000
     1.0000   1.0000   1.0000   1.0000   0.0000   0.0000   0.0000   0.0000

          k = 0.0000 0.4949 0.2256 (  1909 PWs)   bands (ev):

     3.3872   3.4108   3.7442   3.7840   4.5852   4.6806   4.7390   4.8557
     5.0663   5.0704   8.4126   9.2409  13.4908  14.2456  20.3421  22.2361

     occupation numbers 
     1.0000   1.0000   1.0000   1.0000   1.0000   1.0000   1.0000   1.0000
     1.0000   1.0000   1.0000   1.0000   0.0000   0.0000   0.0000   0.0000

          k = 0.0000-0.5774 0.0000 (  1898 PWs)   bands (ev):

     3.3588   3.4406   3.6508   4.1728   4.3913   4.4136   4.7340   4.8543
     5.1033   5.1219   9.0501   9.9223  14.6189  15.6052  16.3234  17.8076

     occupation numbers 
     1.0000   1.0000   1.0000   1.0000   1.0000   1.0000   1.0000   1.0000
     1.0000   1.0000   1.0000   1.0000   0.0000   0.0000   0.0000   0.0000

          k = 0.0000-0.5774 0.0752 (  1890 PWs)   bands (ev):

     3.3666   3.4055   3.6816   4.0694   4.4342   4.4462   4.8096   4.8310
     5.1045   5.1211   9.1472   9.9625  14.0155  14.4003  17.8054  18.6400

     occupation numbers 
     1.0000   1.0000   1.0000   1.0000   1.0000   1.0000   1.0000   1.0000
     1.0000   1.0000   1.0000   1.0000   0.0000   0.0000   0.0000   0.0000

          k = 0.0000-0.5774 0.1504 (  1908 PWs)   bands (ev):

     3.3664   3.3822   3.7120   3.8926   4.4924   4.5932   4.7666   4.9005
     5.1075   5.1188   9.4278  10.0568  13.0404  13.2328  19.7856  20.3023

     occupation numbers 
     1.0000   1.0000   1.0000   1.0000   1.0000   1.0000   1.0000   1.0000
     1.0000   1.0000   1.0000   1.0000   0.0000   0.0000   0.0000   0.0000

          k = 0.0000-0.5774 0.2256 (  1914 PWs)   bands (ev):

     3.3661   3.3839   3.7239   3.7679   4.5782   4.6760   4.7686   4.8897
     5.1114   5.1154   9.8148  10.0733  12.4089  12.4951  21.6899  21.9331

     occupation numbers 
     1.0000   1.0000   1.0000   1.0000   1.0000   1.0000   1.0000   1.0000
     1.0000   1.0000   1.0000   1.0000   0.0000   0.0000   0.0000   0.0000

          k = 0.0714 0.1237 0.0000 (  1923 PWs)   bands (ev):

     1.5784   3.3179   3.9751   4.1661   4.2074   4.3403   4.3888   4.5392
     4.5782   4.6864   4.8797   8.7179   8.9952  25.8356  26.1318  26.1789

     occupation numbers 
     1.0000   1.0000   1.0000   1.0000   1.0000   1.0000   1.0000   1.0000
     1.0000   1.0000   1.0000   1.0000   1.0000   0.0000   0.0000   0.0000

          k = 0.0714 0.1237 0.0752 (  1923 PWs)   bands (ev):

     1.6988   3.3074   3.9766   4.1574   4.1978   4.3378   4.3829   4.5281
     4.6072   4.6870   4.8705   7.1863  10.8168  23.8400  26.2610  26.3625

     occupation numbers 
     1.0000   1.0000   1.0000   1.0000   1.0000   1.0000   1.0000   1.0000
     1.0000   1.0000   1.0000   1.0000   1.0000   0.0000   0.0000   0.0000

          k = 0.0714 0.1237 0.1504 (  1928 PWs)   bands (ev):

     2.0454   3.2470   3.9857   4.1460   4.1719   4.3336   4.3689   4.4510
     4.6863   4.7068   4.8442   5.8935  13.0242  20.9475  26.6459  26.7373

     occupation numbers 
     1.0000   1.0000   1.0000   1.0000   1.0000   1.0000   1.0000   1.0000
     1.0000   1.0000   1.0000   1.0000   0.0000   0.0000   0.0000   0.0000

          k = 0.0714 0.1237 0.2256 (  1935 PWs)   bands (ev):

     2.5517   3.0233   4.0313   4.1276   4.1566   4.2527   4.3455   4.3536
     4.7506   4.7932   4.8333   5.1282  15.4661  18.1191  27.2734  27.3430

     occupation numbers 
     1.0000   1.0000   1.0000   1.0000   1.0000   1.0000   1.0000   1.0000
     1.0000   1.0000   1.0000   1.0000   0.0000   0.0000   0.0000   0.0000

          k = 0.0714 0.2062 0.0000 (  1923 PWs)   bands (ev):

     2.1838   3.5335   3.9919   4.1248   4.2068   4.2902   4.4912   4.4965
     4.5539   4.6271   4.8714   9.3603   9.5901  22.6895  24.6397  26.4304

     occupation numbers 
     1.0000   1.0000   1.0000   1.0000   1.0000   1.0000   1.0000   1.0000
     1.0000   1.0000   1.0000   1.0000   1.0000   0.0000   0.0000   0.0000

          k = 0.0714 0.2062 0.0752 (  1922 PWs)   bands (ev):

     2.2962   3.5360   3.9986   4.1046   4.1698   4.2929   4.4866   4.5358
     4.5498   4.6452   4.8620   7.7954  11.4302  22.7933  24.3811  24.8713

     occupation numbers 
     1.0000   1.0000   1.0000   1.0000   1.0000   1.0000   1.0000   1.0000
     1.0000   1.0000   1.0000   1.0000   1.0000   0.0000   0.0000   0.0000

          k = 0.0714 0.2062 0.1504 (  1930 PWs)   bands (ev):

     2.6134   3.5232   4.0087   4.0620   4.1088   4.2563   4.4781   4.5294
     4.6665   4.6926   4.8371   6.4404  13.6293  21.4793  23.2691  25.1797

     occupation numbers 
     1.0000   1.0000   1.0000   1.0000   1.0000   1.0000   1.0000   1.0000
     1.0000   1.0000   1.0000   1.0000   0.0000   0.0000   0.0000   0.0000

          k = 0.0714 0.2062 0.2256 (  1932 PWs)   bands (ev):

     3.0505   3.4017   3.9927   4.0114   4.1097   4.1769   4.4877   4.5078
     4.7336   4.7800   4.9515   5.4810  16.0591  18.6948  23.8731  24.7359

     occupation numbers 
     1.0000   1.0000   1.0000   1.0000   1.0000   1.0000   1.0000   1.0000
     1.0000   1.0000   1.0000   1.0000   0.0000   0.0000   0.0000   0.0000

          k = 0.0714 0.2887 0.0000 (  1922 PWs)   bands (ev):

     2.9562   3.6453   4.0482   4.0658   4.1008   4.3679   4.3948   4.5545
     4.6903   4.8118   4.8612   9.9951  10.7453  19.4110  23.3607  25.0145

     occupation numbers 
     1.0000   1.0000   1.0000   1.0000   1.0000   1.0000   1.0000   1.0000
     1.0000   1.0000   1.0000   1.0000   1.0000   0.0000   0.0000   0.0000

          k = 0.0714 0.2887 0.0752 (  1925 PWs)   bands (ev):

     3.0348   3.6548   4.0152   4.0573   4.1044   4.3413   4.4912   4.5515
     4.7051   4.7899   4.8736   8.6371  12.3571  19.5333  23.4729  23.9107

     occupation numbers 
     1.0000   1.0000   1.0000   1.0000   1.0000   1.0000   1.0000   1.0000
     1.0000   1.0000   1.0000   1.0000   0.0000   0.0000   0.0000   0.0000

          k = 0.0714 0.2887 0.1504 (  1924 PWs)   bands (ev):

     3.2364   3.6690   3.9549   3.9965   4.1553   4.3106   4.5588   4.6713
     4.7119   4.7816   4.9357   7.2340  14.5233  19.8760  22.3824  22.6115

     occupation numbers 
     1.0000   1.0000   1.0000   1.0000   1.0000   1.0000   1.0000   1.0000
     1.0000   1.0000   1.0000   1.0000   0.0000   0.0000   0.0000   0.0000

          k = 0.0714 0.2887 0.2256 (  1922 PWs)   bands (ev):

     3.4664   3.6258   3.9158   3.9444   4.2129   4.2671   4.5937   4.6492
     4.7693   4.7970   5.3298   6.1168  16.9136  19.4018  20.7594  21.5173

     occupation numbers 
     1.0000   1.0000   1.0000   1.0000   1.0000   1.0000   1.0000   1.0000
     1.0000   1.0000   1.0000   1.0000   0.0000   0.0000   0.0000   0.0000

          k = 0.0714 0.3712 0.0000 (  1914 PWs)   bands (ev):

     3.4269   3.5916   3.8595   4.1965   4.3011   4.3336   4.4826   4.6692
     4.8496   4.8745   5.3941  10.9489  12.1355  16.4005  22.0108  22.3726

     occupation numbers 
     1.0000   1.0000   1.0000   1.0000   1.0000   1.0000   1.0000   1.0000
     1.0000   1.0000   1.0000   1.0000   0.0000   0.0000   0.0000   0.0000

          k = 0.0714 0.3712 0.0752 (  1920 PWs)   bands (ev):

     3.4343   3.5957   3.8689   4.0859   4.2755   4.4915   4.5337   4.6656
     4.8230   4.8842   5.4522   9.7498  13.5655  16.5249  20.9246  22.4945

     occupation numbers 
     1.0000   1.0000   1.0000   1.0000   1.0000   1.0000   1.0000   1.0000
     1.0000   1.0000   1.0000   1.0000   0.0000   0.0000   0.0000   0.0000

          k = 0.0714 0.3712 0.1504 (  1913 PWs)   bands (ev):

     3.4638   3.6019   3.8684   3.9439   4.3572   4.5317   4.6137   4.7499
     4.7694   4.9015   5.7029   8.3457  15.6412  16.8945  19.6664  22.8045

     occupation numbers 
     1.0000   1.0000   1.0000   1.0000   1.0000   1.0000   1.0000   1.0000
     1.0000   1.0000   1.0000   1.0000   0.0000   0.0000   0.0000   0.0000

          k = 0.0714 0.3712 0.2256 (  1915 PWs)   bands (ev):

     3.5198   3.5799   3.8513   3.8683   4.4656   4.5518   4.5992   4.6704
     4.8692   4.9051   6.2773   7.1734  17.4275  17.6551  18.9469  20.7782

     occupation numbers 
     1.0000   1.0000   1.0000   1.0000   1.0000   1.0000   1.0000   1.0000
     1.0000   1.0000   1.0000   1.0000   0.0000   0.0000   0.0000   0.0000

          k = 0.0714 0.4536 0.0000 (  1911 PWs)   bands (ev):

     3.4521   3.5327   3.7350   4.2259   4.3181   4.4265   4.5669   4.8393
     4.9139   5.0078   6.7246  12.0016  13.7219  13.9343  19.2804  20.4534

     occupation numbers 
     1.0000   1.0000   1.0000   1.0000   1.0000   1.0000   1.0000   1.0000
     1.0000   1.0000   1.0000   0.0000   0.0000   0.0000   0.0000   0.0000

          k = 0.0714 0.4536 0.0752 (  1909 PWs)   bands (ev):

     3.4523   3.5114   3.7639   4.0926   4.3698   4.4588   4.6684   4.8142
     4.9115   5.0106   6.8213  11.0610  13.8307  15.0449  18.3106  21.6351

     occupation numbers 
     1.0000   1.0000   1.0000   1.0000   1.0000   1.0000   1.0000   1.0000
     1.0000   1.0000   1.0000   1.0000   0.0000   0.0000   0.0000   0.0000

          k = 0.0714 0.4536 0.1504 (  1909 PWs)   bands (ev):

     3.4470   3.5035   3.7890   3.9204   4.4445   4.5611   4.7465   4.7844
     4.9165   5.0134   7.1415   9.7465  14.1847  16.2023  17.8824  22.1981

     occupation numbers 
     1.0000   1.0000   1.0000   1.0000   1.0000   1.0000   1.0000   1.0000
     1.0000   1.0000   1.0000   1.0000   0.0000   0.0000   0.0000   0.0000

          k = 0.0714 0.4536 0.2256 (  1905 PWs)   bands (ev):

     3.4633   3.4946   3.7889   3.8145   4.5439   4.6491   4.6857   4.7748
     4.9621   5.0008   7.7349   8.6124  14.7698  15.5529  19.7052  21.8892

     occupation numbers 
     1.0000   1.0000   1.0000   1.0000   1.0000   1.0000   1.0000   1.0000
     1.0000   1.0000   1.0000   1.0000   0.0000   0.0000   0.0000   0.0000

          k = 0.0714 0.5361 0.0000 (  1910 PWs)   bands (ev):

     3.4121   3.5000   3.6740   4.1839   4.3850   4.3960   4.6827   4.8332
     5.0369   5.0681   8.5197  10.7878  14.3122  15.3371  16.9728  18.3630

     occupation numbers 
     1.0000   1.0000   1.0000   1.0000   1.0000   1.0000   1.0000   1.0000
     1.0000   1.0000   1.0000   1.0000   0.0000   0.0000   0.0000   0.0000

          k = 0.0714 0.5361 0.0752 (  1902 PWs)   bands (ev):

     3.4199   3.4618   3.7115   4.0782   4.3812   4.4718   4.7649   4.8083
     5.0333   5.0668   8.6190  10.7882  13.4526  15.2248  17.4290  19.4203

     occupation numbers 
     1.0000   1.0000   1.0000   1.0000   1.0000   1.0000   1.0000   1.0000
     1.0000   1.0000   1.0000   1.0000   0.0000   0.0000   0.0000   0.0000

          k = 0.0714 0.5361 0.1504 (  1906 PWs)   bands (ev):

     3.4178   3.4414   3.7453   3.9048   4.4357   4.6125   4.7386   4.8747
     5.0229   5.0609   8.9237  10.6359  12.6605  14.2097  19.1945  21.1559

     occupation numbers 
     1.0000   1.0000   1.0000   1.0000   1.0000   1.0000   1.0000   1.0000
     1.0000   1.0000   1.0000   1.0000   0.0000   0.0000   0.0000   0.0000

          k = 0.0714 0.5361 0.2256 (  1899 PWs)   bands (ev):

     3.4213   3.4422   3.7522   3.7872   4.5311   4.6397   4.7713   4.8817
     5.0256   5.0463   9.4347  10.0906  12.6741  13.2787  21.2037  22.3224

     occupation numbers 
     1.0000   1.0000   1.0000   1.0000   1.0000   1.0000   1.0000   1.0000
     1.0000   1.0000   1.0000   1.0000   0.0000   0.0000   0.0000   0.0000

          k = 0.1429 0.2474 0.0000 (  1927 PWs)   bands (ev):

     2.8718   3.7309   3.9353   4.0980   4.1053   4.2275   4.3794   4.5925
     4.6835   4.8327   4.8446   9.8913  10.5641  21.2299  21.3926  26.7818

     occupation numbers 
     1.0000   1.0000   1.0000   1.0000   1.0000   1.0000   1.0000   1.0000
     1.0000   1.0000   1.0000   1.0000   1.0000   0.0000   0.0000   0.0000

          k = 0.1429 0.2474 0.0752 (  1923 PWs)   bands (ev):

     2.9629   3.7446   3.9457   4.0358   4.1417   4.1637   4.4772   4.5708
     4.7113   4.7839   4.8831   8.5066  12.2073  21.3613  21.5019  25.0774

     occupation numbers 
     1.0000   1.0000   1.0000   1.0000   1.0000   1.0000   1.0000   1.0000
     1.0000   1.0000   1.0000   1.0000   0.0000   0.0000   0.0000   0.0000

          k = 0.1429 0.2474 0.1504 (  1922 PWs)   bands (ev):

     3.2060   3.7751   3.9515   3.9768   4.0701   4.1403   4.5564   4.6596
     4.7265   4.7544   4.9549   7.1124  14.3810  21.5918  21.7532  22.5866

     occupation numbers 
     1.0000   1.0000   1.0000   1.0000   1.0000   1.0000   1.0000   1.0000
     1.0000   1.0000   1.0000   1.0000   0.0000   0.0000   0.0000   0.0000

          k = 0.1429 0.2474 0.2256 (  1928 PWs)   bands (ev):

     3.5036   3.7270   3.9143   3.9785   4.0310   4.0934   4.5836   4.6414
     4.7862   4.7871   5.2871   6.0223  16.7851  19.3708  22.3963  22.6495

     occupation numbers 
     1.0000   1.0000   1.0000   1.0000   1.0000   1.0000   1.0000   1.0000
     1.0000   1.0000   1.0000   1.0000   0.0000   0.0000   0.0000   0.0000

          k = 0.1429 0.3299 0.0000 (  1922 PWs)   bands (ev):

     3.5381   3.7583   3.9283   4.0098   4.1372   4.2902   4.3654   4.5214
     4.8177   4.8630   5.3641  10.7381  11.8090  18.1678  20.2059  23.8096

     occupation numbers 
     1.0000   1.0000   1.0000   1.0000   1.0000   1.0000   1.0000   1.0000
     1.0000   1.0000   1.0000   1.0000   1.0000   0.0000   0.0000   0.0000

          k = 0.1429 0.3299 0.0752 (  1919 PWs)   bands (ev):

     3.5604   3.7731   3.9104   4.0143   4.1059   4.2871   4.4747   4.5169
     4.7909   4.8762   5.4112   9.5012  13.2878  18.2934  20.3319  22.6864

     occupation numbers 
     1.0000   1.0000   1.0000   1.0000   1.0000   1.0000   1.0000   1.0000
     1.0000   1.0000   1.0000   1.0000   0.0000   0.0000   0.0000   0.0000

          k = 0.1429 0.3299 0.1504 (  1916 PWs)   bands (ev):

     3.6158   3.8070   3.8613   4.0072   4.1060   4.2585   4.5218   4.6936
     4.7229   4.8999   5.6078   8.1011  15.4090  18.6612  20.6879  21.3952

     occupation numbers 
     1.0000   1.0000   1.0000   1.0000   1.0000   1.0000   1.0000   1.0000
     1.0000   1.0000   1.0000   1.0000   0.0000   0.0000   0.0000   0.0000

          k = 0.1429 0.3299 0.2256 (  1917 PWs)   bands (ev):

     3.6868   3.7626   3.8931   3.9583   4.1555   4.2115   4.5632   4.6379
     4.8521   4.9047   6.1038   6.9516  17.7221  19.1577  20.3251  20.4695

     occupation numbers 
     1.0000   1.0000   1.0000   1.0000   1.0000   1.0000   1.0000   1.0000
     1.0000   1.0000   1.0000   1.0000   0.0000   0.0000   0.0000   0.0000

          k = 0.1429 0.4124 0.0000 (  1916 PWs)   bands (ev):

     3.6388   3.7024   3.8054   4.2290   4.2616   4.3207   4.4361   4.5955
     4.7957   4.9793   6.4283  11.8951  13.2859  15.3364  19.3807  20.9405

     occupation numbers 
     1.0000   1.0000   1.0000   1.0000   1.0000   1.0000   1.0000   1.0000
     1.0000   1.0000   1.0000   0.3745   0.0000   0.0000   0.0000   0.0000

          k = 0.1429 0.4124 0.0752 (  1915 PWs)   bands (ev):

     3.6335   3.6797   3.8512   4.0697   4.2660   4.4506   4.5078   4.5904
     4.7688   4.9862   6.5183  10.7866  14.5912  15.4794  19.4997  19.8814

     occupation numbers 
     1.0000   1.0000   1.0000   1.0000   1.0000   1.0000   1.0000   1.0000
     1.0000   1.0000   1.0000   1.0000   0.0000   0.0000   0.0000   0.0000

          k = 0.1429 0.4124 0.1504 (  1908 PWs)   bands (ev):

     3.6150   3.6896   3.8763   3.9357   4.3025   4.4829   4.5570   4.6962
     4.7384   4.9945   6.8209   9.4177  15.7723  16.5941  18.7036  19.9045

     occupation numbers 
     1.0000   1.0000   1.0000   1.0000   1.0000   1.0000   1.0000   1.0000
     1.0000   1.0000   1.0000   1.0000   0.0000   0.0000   0.0000   0.0000

          k = 0.1429 0.4124 0.2256 (  1906 PWs)   bands (ev):

     3.6313   3.6762   3.8543   3.8854   4.3888   4.4757   4.5543   4.6137
     4.8955   4.9750   7.3974   8.2702  16.3939  17.1322  19.3175  20.4604

     occupation numbers 
     1.0000   1.0000   1.0000   1.0000   1.0000   1.0000   1.0000   1.0000
     1.0000   1.0000   1.0000   1.0000   0.0000   0.0000   0.0000   0.0000

          k = 0.1429 0.4949 0.0000 (  1911 PWs)   bands (ev):

     3.5658   3.6646   3.7336   4.1991   4.3637   4.3638   4.5106   4.7809
     4.8164   5.0101   8.0343  12.1814  14.0010  14.9336  18.3369  18.9006

     occupation numbers 
     1.0000   1.0000   1.0000   1.0000   1.0000   1.0000   1.0000   1.0000
     1.0000   1.0000   1.0000   0.0000   0.0000   0.0000   0.0000   0.0000

          k = 0.1429 0.4949 0.0752 (  1912 PWs)   bands (ev):

     3.5741   3.6089   3.7991   4.0861   4.3121   4.4632   4.6135   4.7517
     4.8096   5.0117   8.1395  11.8711  13.3564  15.9359  17.6526  19.0176

     occupation numbers 
     1.0000   1.0000   1.0000   1.0000   1.0000   1.0000   1.0000   1.0000
     1.0000   1.0000   1.0000   1.0001   0.0000   0.0000   0.0000   0.0000

          k = 0.1429 0.4949 0.1504 (  1902 PWs)   bands (ev):

     3.5610   3.6041   3.8441   3.9267   4.3304   4.5758   4.6684   4.7703
     4.7887   5.0075   8.4677  10.8944  13.3778  15.6315  18.6732  19.4100

     occupation numbers 
     1.0000   1.0000   1.0000   1.0000   1.0000   1.0000   1.0000   1.0000
     1.0000   1.0000   1.0000   1.0000   0.0000   0.0000   0.0000   0.0000

          k = 0.1429 0.4949 0.2256 (  1901 PWs)   bands (ev):

     3.5712   3.6048   3.8322   3.8385   4.4245   4.5478   4.6787   4.7453
     4.8959   4.9749   9.0417   9.8662  13.8884  14.6745  20.0344  20.4961

     occupation numbers 
     1.0000   1.0000   1.0000   1.0000   1.0000   1.0000   1.0000   1.0000
     1.0000   1.0000   1.0000   1.0000   0.0000   0.0000   0.0000   0.0000

          k = 0.1429 0.5774 0.0000 (  1902 PWs)   bands (ev):

     3.5378   3.6459   3.7102   4.1925   4.3336   4.3983   4.5753   4.7756
     4.9441   4.9652   9.7332  10.3716  15.1442  16.1512  16.6565  18.1584

     occupation numbers 
     1.0000   1.0000   1.0000   1.0000   1.0000   1.0000   1.0000   1.0000
     1.0000   1.0000   1.0000   1.0000   0.0000   0.0000   0.0000   0.0000

          k = 0.1429 0.5774 0.0752 (  1909 PWs)   bands (ev):

     3.5487   3.5838   3.7797   4.0910   4.2960   4.4896   4.6580   4.7466
     4.9407   4.9616   9.8419  10.4350  14.5033  14.8337  18.2327  18.8552

     occupation numbers 
     1.0000   1.0000   1.0000   1.0000   1.0000   1.0000   1.0000   1.0000
     1.0000   1.0000   1.0000   1.0000   0.0000   0.0000   0.0000   0.0000

          k = 0.1429 0.5774 0.1504 (  1910 PWs)   bands (ev):

     3.5408   3.5726   3.8267   3.9291   4.3170   4.6341   4.6599   4.7804
     4.9299   4.9438  10.1504  10.6061  13.4674  13.6118  19.2352  20.2479

     occupation numbers 
     1.0000   1.0000   1.0000   1.0000   1.0000   1.0000   1.0000   1.0000
     1.0000   1.0000   1.0000   1.0000   0.0000   0.0000   0.0000   0.0000

          k = 0.1429 0.5774 0.2256 (  1898 PWs)   bands (ev):

     3.5488   3.5780   3.8198   3.8284   4.4148   4.5422   4.7755   4.8483
     4.8998   4.9095  10.5599  10.7537  12.7472  12.8159  19.8783  20.6982

     occupation numbers 
     1.0000   1.0000   1.0000   1.0000   1.0000   1.0000   1.0000   1.0000
     1.0000   1.0000   1.0000   1.0000   0.0000   0.0000   0.0000   0.0000

          k = 0.2143 0.3712 0.0000 (  1915 PWs)   bands (ev):

     3.8173   3.8424   3.8878   4.0453   4.2063   4.2160   4.4325   4.4517
     4.7695   4.9735   6.3595  11.8247  13.1393  17.1240  17.3116  22.7803

     occupation numbers 
     1.0000   1.0000   1.0000   1.0000   1.0000   1.0000   1.0000   1.0000
     1.0000   1.0000   1.0000   1.0000   0.0000   0.0000   0.0000   0.0000

          k = 0.2143 0.3712 0.0752 (  1908 PWs)   bands (ev):

     3.8045   3.8326   3.9411   3.9452   4.1941   4.2752   4.4493   4.5167
     4.7425   4.9820   6.4463  10.6857  14.5055  17.2543  17.4366  21.6297

     occupation numbers 
     1.0000   1.0000   1.0000   1.0000   1.0000   1.0000   1.0000   1.0000
     1.0000   1.0000   1.0000   1.0000   0.0000   0.0000   0.0000   0.0000

          k = 0.2143 0.3712 0.1504 (  1914 PWs)   bands (ev):

     3.7703   3.8341   3.8799   4.0056   4.1678   4.2738   4.4586   4.6695
     4.7210   4.9926   6.7388   9.3108  16.5364  17.6442  17.8018  20.2937

     occupation numbers 
     1.0000   1.0000   1.0000   1.0000   1.0000   1.0000   1.0000   1.0000
     1.0000   1.0000   1.0000   1.0000   0.0000   0.0000   0.0000   0.0000

          k = 0.2143 0.3712 0.2256 (  1904 PWs)   bands (ev):

     3.7584   3.7764   3.9420   4.0034   4.1826   4.2339   4.5021   4.5803
     4.8886   4.9732   7.3024   8.1663  18.2686  18.3521  18.4423  19.1714

     occupation numbers 
     1.0000   1.0000   1.0000   1.0000   1.0000   1.0000   1.0000   1.0000
     1.0000   1.0000   1.0000   1.0000   0.0000   0.0000   0.0000   0.0000

          k = 0.2143 0.4536 0.0000 (  1915 PWs)   bands (ev):

     3.7759   3.7932   3.8705   4.1839   4.2605   4.3296   4.3607   4.5774
     4.7314   4.9897   7.8164  13.1055  14.6481  14.6987  16.5638  20.1385

     occupation numbers 
     1.0000   1.0000   1.0000   1.0000   1.0000   1.0000   1.0000   1.0000
     1.0000   1.0000   1.0000   0.0000   0.0000   0.0000   0.0000   0.0000

          k = 0.2143 0.4536 0.0752 (  1914 PWs)   bands (ev):

     3.7549   3.7907   3.9250   4.0539   4.2491   4.3840   4.4287   4.6070
     4.7030   4.9953   7.9236  12.1304  14.6451  15.9711  16.6927  19.1137

     occupation numbers 
     1.0000   1.0000   1.0000   1.0000   1.0000   1.0000   1.0000   1.0000
     1.0000   1.0000   1.0000   0.0000   0.0000   0.0000   0.0000   0.0000

          k = 0.2143 0.4536 0.1504 (  1907 PWs)   bands (ev):

     3.7256   3.8245   3.9061   4.0023   4.2171   4.4138   4.4753   4.6306
     4.7396   4.9983   8.2582  10.8196  15.0090  17.0450  17.2103  18.4942

     occupation numbers 
     1.0000   1.0000   1.0000   1.0000   1.0000   1.0000   1.0000   1.0000
     1.0000   1.0000   1.0000   1.0000   0.0000   0.0000   0.0000   0.0000

          k = 0.2143 0.4536 0.2256 (  1900 PWs)   bands (ev):

     3.7352   3.7867   3.9099   3.9747   4.2787   4.3735   4.5018   4.5537
     4.8828   4.9692   8.8470   9.7048  15.6179  16.4363  17.7093  18.5040

     occupation numbers 
     1.0000   1.0000   1.0000   1.0000   1.0000   1.0000   1.0000   1.0000
     1.0000   1.0000   1.0000   1.0000   0.0000   0.0000   0.0000   0.0000

          k = 0.2143 0.5361 0.0000 (  1916 PWs)   bands (ev):

     3.7330   3.7728   3.8492   4.1962   4.2770   4.3654   4.3962   4.7109
     4.7526   4.9204   9.6431  11.8152  15.2060  16.2044  16.3532  17.8036

     occupation numbers 
     1.0000   1.0000   1.0000   1.0000   1.0000   1.0000   1.0000   1.0000
     1.0000   1.0000   1.0000   1.0000   0.0000   0.0000   0.0000   0.0000

          k = 0.2143 0.5361 0.0752 (  1914 PWs)   bands (ev):

     3.7289   3.7467   3.9165   4.0955   4.2172   4.4365   4.4782   4.6806
     4.7586   4.9256   9.7546  11.8752  14.2792  16.1288  16.4260  18.2036

     occupation numbers 
     1.0000   1.0000   1.0000   1.0000   1.0000   1.0000   1.0000   1.0000
     1.0000   1.0000   1.0000   1.0024   0.0000   0.0000   0.0000   0.0000

          k = 0.2143 0.5361 0.1504 (  1908 PWs)   bands (ev):

     3.7012   3.7794   3.9535   3.9826   4.1861   4.4926   4.5638   4.6293
     4.7888   4.9307  10.0896  11.8896  13.3416  15.0836  16.7598  19.1552

     occupation numbers 
     1.0000   1.0000   1.0000   1.0000   1.0000   1.0000   1.0000   1.0000
     1.0000   1.0000   1.0000   0.9352   0.0000   0.0000   0.0000   0.0000

          k = 0.2143 0.5361 0.2256 (  1908 PWs)   bands (ev):

     3.7209   3.7774   3.8964   3.9469   4.2782   4.4109   4.6026   4.6268
     4.8555   4.9117  10.6425  11.3573  13.3816  14.0831  17.3891  18.2420

     occupation numbers 
     1.0000   1.0000   1.0000   1.0000   1.0000   1.0000   1.0000   1.0000
     1.0000   1.0000   1.0000   1.0000   0.0000   0.0000   0.0000   0.0000

          k = 0.2857 0.4949 0.0000 (  1910 PWs)   bands (ev):

     3.8094   3.8907   3.9631   4.1732   4.2217   4.2734   4.3663   4.6397
     4.6806   4.9108   9.5325  13.6079  14.0023  15.2877  16.3284  19.4420

     occupation numbers 
     1.0000   1.0000   1.0000   1.0000   1.0000   1.0000   1.0000   1.0000
     1.0000   1.0000   1.0000   0.0000   0.0000   0.0000   0.0000   0.0000

          k = 0.2857 0.4949 0.0752 (  1914 PWs)   bands (ev):

     3.8056   3.9017   3.9955   4.0623   4.2251   4.3094   4.3956   4.6503
     4.6723   4.9190   9.6474  13.3879  14.1321  14.5756  17.2723  18.4416

     occupation numbers 
     1.0000   1.0000   1.0000   1.0000   1.0000   1.0000   1.0000   1.0000
     1.0000   1.0000   1.0000   0.0000   0.0000   0.0000   0.0000   0.0000

          k = 0.2857 0.4949 0.1504 (  1907 PWs)   bands (ev):

     3.8056   3.9276   3.9566   4.0782   4.1423   4.3433   4.4331   4.5791
     4.7597   4.9299   9.9958  12.4439  14.5144  14.5809  16.9869  17.1015

     occupation numbers 
     1.0000   1.0000   1.0000   1.0000   1.0000   1.0000   1.0000   1.0000
     1.0000   1.0000   1.0000   0.0000   0.0000   0.0000   0.0000   0.0000

          k = 0.2857 0.4949 0.2256 (  1903 PWs)   bands (ev):

     3.8231   3.8673   3.9908   4.0601   4.1887   4.2935   4.4664   4.5096
     4.8557   4.9151  10.5852  11.4148  15.0918  15.1099  16.0373  16.0604

     occupation numbers 
     1.0000   1.0000   1.0000   1.0000   1.0000   1.0000   1.0000   1.0000
     1.0000   1.0000   1.0000   1.0000   0.0000   0.0000   0.0000   0.0000

          k = 0.2857 0.5774 0.0000 (  1916 PWs)   bands (ev):

     3.8220   3.9313   4.0014   4.1851   4.2005   4.2059   4.3961   4.6614
     4.7322   4.8102  11.4704  11.6360  13.7214  16.6279  17.7100  17.8384

     occupation numbers 
     1.0000   1.0000   1.0000   1.0000   1.0000   1.0000   1.0000   1.0000
     1.0000   1.0000   1.0000   1.0000   0.0000   0.0000   0.0000   0.0000

          k = 0.2857 0.5774 0.0752 (  1908 PWs)   bands (ev):

     3.8298   3.9389   4.0087   4.1022   4.1820   4.2662   4.4149   4.6308
     4.7516   4.8258  11.5954  11.7325  13.8244  15.9356  16.2209  18.1053

     occupation numbers 
     1.0000   1.0000   1.0000   1.0000   1.0000   1.0000   1.0000   1.0000
     1.0000   1.0000   1.0000   1.0000   0.0000   0.0000   0.0000   0.0000

          k = 0.2857 0.5774 0.1504 (  1903 PWs)   bands (ev):

     3.8466   3.9541   4.0160   4.0327   4.1597   4.2959   4.4428   4.5574
     4.8006   4.8565  11.9517  12.0166  14.0326  14.8091  15.0891  16.9270

     occupation numbers 
     1.0000   1.0000   1.0000   1.0000   1.0000   1.0000   1.0000   1.0000
     1.0000   1.0000   0.0000   0.0000   0.0000   0.0000   0.0000   0.0000

          k = 0.2857 0.5774 0.2256 (  1903 PWs)   bands (ev):

     3.8725   3.9184   4.0084   4.0355   4.1952   4.2678   4.4619   4.4910
     4.8501   4.8709  12.4182  12.4227  13.7351  13.8792  15.1032  15.8797

     occupation numbers 
     1.0000   1.0000   1.0000   1.0000   1.0000   1.0000   1.0000   1.0000
     1.0000   1.0000   0.0000   0.0000   0.0000   0.0000   0.0000   0.0000

 ------ SPIN DOWN ----------


          k = 0.0000 0.0000 0.0000 (  1921 PWs)   bands (ev):

     1.1018   3.0988   3.9248   4.2155   4.2155   4.2663   4.2663   4.6740
     4.6740   4.8821   4.8821   7.9504   8.7563  25.3044  29.0531  30.6397

     occupation numbers 
     1.0000   1.0000   1.0000   1.0000   1.0000   1.0000   1.0000   1.0000
     1.0000   1.0000   1.0000   1.0000   1.0000   0.0000   0.0000   0.0000

          k = 0.0000 0.0000 0.0752 (  1939 PWs)   bands (ev):

     1.2253   3.0751   3.9286   4.2147   4.2147   4.2612   4.2612   4.6877
     4.6877   4.8745   4.8745   6.6208  10.3677  23.3937  30.7655  30.7657

     occupation numbers 
     1.0000   1.0000   1.0000   1.0000   1.0000   1.0000   1.0000   1.0000
     1.0000   1.0000   1.0000   1.0000   1.0000   0.0000   0.0000   0.0000

          k = 0.0000 0.0000 0.1504 (  1945 PWs)   bands (ev):

     1.5831   2.9678   3.9545   4.2148   4.2148   4.2480   4.2480   4.7236
     4.7236   4.8519   4.8519   5.2975  12.5684  20.5056  31.1299  31.1299

     occupation numbers 
     1.0000   1.0000   1.0000   1.0000   1.0000   1.0000   1.0000   1.0000
     1.0000   1.0000   1.0000   1.0000   0.0000   0.0000   0.0000   0.0000

          k = 0.0000 0.0000 0.2256 (  1938 PWs)   bands (ev):

     2.1179   2.6582   4.0635   4.2203   4.2203   4.2324   4.2324   4.4318
     4.7702   4.7702   4.8157   4.8157  15.0141  17.6726  31.6730  31.6742

     occupation numbers 
     1.0000   1.0000   1.0000   1.0000   1.0000   1.0000   1.0000   1.0000
     1.0000   1.0000   1.0000   1.0000   0.0000   0.0000   0.0000   0.0000

          k = 0.0000 0.0825 0.0000 (  1923 PWs)   bands (ev):

     1.2622   3.1769   3.9447   4.1962   4.2466   4.2564   4.3055   4.6342
     4.6585   4.7751   4.8833   8.2232   8.8325  25.4857  27.8534  29.2167

     occupation numbers 
     1.0000   1.0000   1.0000   1.0000   1.0000   1.0000   1.0000   1.0000
     1.0000   1.0000   1.0000   1.0000   1.0000   0.0000   0.0000   0.0000

          k = 0.0000 0.0825 0.0752 (  1931 PWs)   bands (ev):

     1.3849   3.1578   3.9470   4.1936   4.2401   4.2552   4.3002   4.6511
     4.6734   4.7563   4.8749   6.8300  10.5158  23.5481  28.0232  29.3494

     occupation numbers 
     1.0000   1.0000   1.0000   1.0000   1.0000   1.0000   1.0000   1.0000
     1.0000   1.0000   1.0000   1.0000   1.0000   0.0000   0.0000   0.0000

          k = 0.0000 0.0825 0.1504 (  1937 PWs)   bands (ev):

     1.7396   3.0670   3.9661   4.1910   4.2233   4.2545   4.2868   4.6475
     4.7121   4.7189   4.8502   5.5556  12.7204  20.6551  28.4010  29.7436

     occupation numbers 
     1.0000   1.0000   1.0000   1.0000   1.0000   1.0000   1.0000   1.0000
     1.0000   1.0000   1.0000   1.0000   0.0000   0.0000   0.0000   0.0000

          k = 0.0000 0.0825 0.2256 (  1948 PWs)   bands (ev):

     2.2665   2.7860   4.0526   4.1962   4.2015   4.2594   4.2712   4.3480
     4.7621   4.7872   4.8110   4.9393  15.1654  17.8226  29.0110  29.8446

     occupation numbers 
     1.0000   1.0000   1.0000   1.0000   1.0000   1.0000   1.0000   1.0000
     1.0000   1.0000   1.0000   1.0000   0.0000   0.0000   0.0000   0.0000

          k = 0.0000 0.1650 0.0000 (  1921 PWs)   bands (ev):

     1.7328   3.3762   3.9847   4.1533   4.2239   4.3727   4.4166   4.4521
     4.6159   4.6177   4.8839   8.9473   9.0810  24.3216  25.9981  27.4363

     occupation numbers 
     1.0000   1.0000   1.0000   1.0000   1.0000   1.0000   1.0000   1.0000
     1.0000   1.0000   1.0000   1.0000   1.0000   0.0000   0.0000   0.0000

          k = 0.0000 0.1650 0.0752 (  1924 PWs)   bands (ev):

[...]

     occupation numbers 
     1.0000   1.0000   1.0000   1.0000   1.0000   1.0000   1.0000   1.0000
     1.0000   1.0000   1.0000   1.0000   1.0000   0.0000   0.0000   0.0000

          k = 0.1429 0.2474 0.0752 (  1923 PWs)   bands (ev):

     2.9629   3.7446   3.9457   4.0358   4.1417   4.1637   4.4772   4.5708
     4.7113   4.7839   4.8831   8.5066  12.2073  21.3613  21.5019  25.0774

     occupation numbers 
     1.0000   1.0000   1.0000   1.0000   1.0000   1.0000   1.0000   1.0000
     1.0000   1.0000   1.0000   1.0000   0.0000   0.0000   0.0000   0.0000

          k = 0.1429 0.2474 0.1504 (  1922 PWs)   bands (ev):

     3.2060   3.7751   3.9515   3.9768   4.0701   4.1403   4.5564   4.6596
     4.7265   4.7544   4.9549   7.1124  14.3810  21.5918  21.7532  22.5866

     occupation numbers 
     1.0000   1.0000   1.0000   1.0000   1.0000   1.0000   1.0000   1.0000
     1.0000   1.0000   1.0000   1.0000   0.0000   0.0000   0.0000   0.0000

          k = 0.1429 0.2474 0.2256 (  1928 PWs)   bands (ev):

     3.5036   3.7270   3.9143   3.9785   4.0310   4.0934   4.5836   4.6414
     4.7862   4.7871   5.2871   6.0223  16.7851  19.3708  22.3963  22.6495

     occupation numbers 
     1.0000   1.0000   1.0000   1.0000   1.0000   1.0000   1.0000   1.0000
     1.0000   1.0000   1.0000   1.0000   0.0000   0.0000   0.0000   0.0000

          k = 0.1429 0.3299 0.0000 (  1922 PWs)   bands (ev):

     3.5381   3.7583   3.9283   4.0098   4.1372   4.2902   4.3654   4.5214
     4.8177   4.8630   5.3641  10.7381  11.8090  18.1678  20.2059  23.8096

     occupation numbers 
     1.0000   1.0000   1.0000   1.0000   1.0000   1.0000   1.0000   1.0000
     1.0000   1.0000   1.0000   1.0000   1.0000   0.0000   0.0000   0.0000

          k = 0.1429 0.3299 0.0752 (  1919 PWs)   bands (ev):

     3.5604   3.7731   3.9104   4.0143   4.1059   4.2871   4.4747   4.5169
     4.7909   4.8762   5.4112   9.5012  13.2878  18.2934  20.3319  22.6864

     occupation numbers 
     1.0000   1.0000   1.0000   1.0000   1.0000   1.0000   1.0000   1.0000
     1.0000   1.0000   1.0000   1.0000   0.0000   0.0000   0.0000   0.0000

          k = 0.1429 0.3299 0.1504 (  1916 PWs)   bands (ev):

     3.6158   3.8070   3.8613   4.0072   4.1060   4.2585   4.5218   4.6936
     4.7229   4.8999   5.6078   8.1011  15.4090  18.6612  20.6879  21.3952

     occupation numbers 
     1.0000   1.0000   1.0000   1.0000   1.0000   1.0000   1.0000   1.0000
     1.0000   1.0000   1.0000   1.0000   0.0000   0.0000   0.0000   0.0000

          k = 0.1429 0.3299 0.2256 (  1917 PWs)   bands (ev):

     3.6868   3.7626   3.8931   3.9583   4.1555   4.2115   4.5632   4.6379
     4.8521   4.9047   6.1038   6.9516  17.7221  19.1577  20.3251  20.4695

     occupation numbers 
     1.0000   1.0000   1.0000   1.0000   1.0000   1.0000   1.0000   1.0000
     1.0000   1.0000   1.0000   1.0000   0.0000   0.0000   0.0000   0.0000

          k = 0.1429 0.4124 0.0000 (  1916 PWs)   bands (ev):

     3.6388   3.7024   3.8054   4.2290   4.2616   4.3207   4.4361   4.5955
     4.7957   4.9793   6.4283  11.8951  13.2859  15.3364  19.3807  20.9405

     occupation numbers 
     1.0000   1.0000   1.0000   1.0000   1.0000   1.0000   1.0000   1.0000
     1.0000   1.0000   1.0000   0.3745   0.0000   0.0000   0.0000   0.0000

          k = 0.1429 0.4124 0.0752 (  1915 PWs)   bands (ev):

     3.6335   3.6797   3.8512   4.0697   4.2660   4.4506   4.5078   4.5904
     4.7688   4.9862   6.5183  10.7866  14.5912  15.4794  19.4997  19.8814

     occupation numbers 
     1.0000   1.0000   1.0000   1.0000   1.0000   1.0000   1.0000   1.0000
     1.0000   1.0000   1.0000   1.0000   0.0000   0.0000   0.0000   0.0000

          k = 0.1429 0.4124 0.1504 (  1908 PWs)   bands (ev):

     3.6150   3.6896   3.8763   3.9357   4.3025   4.4829   4.5570   4.6962
     4.7384   4.9945   6.8209   9.4177  15.7723  16.5941  18.7036  19.9045

     occupation numbers 
     1.0000   1.0000   1.0000   1.0000   1.0000   1.0000   1.0000   1.0000
     1.0000   1.0000   1.0000   1.0000   0.0000   0.0000   0.0000   0.0000

          k = 0.1429 0.4124 0.2256 (  1906 PWs)   bands (ev):

     3.6313   3.6762   3.8543   3.8854   4.3888   4.4757   4.5543   4.6137
     4.8955   4.9750   7.3974   8.2702  16.3939  17.1322  19.3175  20.4604

     occupation numbers 
     1.0000   1.0000   1.0000   1.0000   1.0000   1.0000   1.0000   1.0000
     1.0000   1.0000   1.0000   1.0000   0.0000   0.0000   0.0000   0.0000

          k = 0.1429 0.4949 0.0000 (  1911 PWs)   bands (ev):

     3.5658   3.6646   3.7336   4.1991   4.3637   4.3638   4.5106   4.7809
     4.8164   5.0101   8.0343  12.1814  14.0010  14.9336  18.3369  18.9006

     occupation numbers 
     1.0000   1.0000   1.0000   1.0000   1.0000   1.0000   1.0000   1.0000
     1.0000   1.0000   1.0000   0.0000   0.0000   0.0000   0.0000   0.0000

          k = 0.1429 0.4949 0.0752 (  1912 PWs)   bands (ev):

     3.5741   3.6089   3.7991   4.0861   4.3121   4.4632   4.6135   4.7517
     4.8096   5.0117   8.1395  11.8711  13.3564  15.9359  17.6526  19.0176

     occupation numbers 
     1.0000   1.0000   1.0000   1.0000   1.0000   1.0000   1.0000   1.0000
     1.0000   1.0000   1.0000   1.0001   0.0000   0.0000   0.0000   0.0000

          k = 0.1429 0.4949 0.1504 (  1902 PWs)   bands (ev):

     3.5610   3.6041   3.8441   3.9267   4.3304   4.5758   4.6684   4.7703
     4.7887   5.0075   8.4677  10.8944  13.3778  15.6315  18.6732  19.4100

     occupation numbers 
     1.0000   1.0000   1.0000   1.0000   1.0000   1.0000   1.0000   1.0000
     1.0000   1.0000   1.0000   1.0000   0.0000   0.0000   0.0000   0.0000

          k = 0.1429 0.4949 0.2256 (  1901 PWs)   bands (ev):

     3.5712   3.6048   3.8322   3.8385   4.4245   4.5478   4.6787   4.7453
     4.8959   4.9749   9.0417   9.8662  13.8884  14.6745  20.0344  20.4961

     occupation numbers 
     1.0000   1.0000   1.0000   1.0000   1.0000   1.0000   1.0000   1.0000
     1.0000   1.0000   1.0000   1.0000   0.0000   0.0000   0.0000   0.0000

          k = 0.1429 0.5774 0.0000 (  1902 PWs)   bands (ev):

     3.5378   3.6459   3.7102   4.1925   4.3336   4.3983   4.5753   4.7756
     4.9441   4.9652   9.7332  10.3716  15.1442  16.1512  16.6565  18.1584

     occupation numbers 
     1.0000   1.0000   1.0000   1.0000   1.0000   1.0000   1.0000   1.0000
     1.0000   1.0000   1.0000   1.0000   0.0000   0.0000   0.0000   0.0000

          k = 0.1429 0.5774 0.0752 (  1909 PWs)   bands (ev):

     3.5487   3.5838   3.7797   4.0910   4.2960   4.4896   4.6580   4.7466
     4.9407   4.9616   9.8419  10.4350  14.5033  14.8337  18.2327  18.8552

     occupation numbers 
     1.0000   1.0000   1.0000   1.0000   1.0000   1.0000   1.0000   1.0000
     1.0000   1.0000   1.0000   1.0000   0.0000   0.0000   0.0000   0.0000

          k = 0.1429 0.5774 0.1504 (  1910 PWs)   bands (ev):

     3.5408   3.5726   3.8267   3.9291   4.3170   4.6341   4.6599   4.7804
     4.9299   4.9438  10.1504  10.6061  13.4674  13.6118  19.2352  20.2479

     occupation numbers 
     1.0000   1.0000   1.0000   1.0000   1.0000   1.0000   1.0000   1.0000
     1.0000   1.0000   1.0000   1.0000   0.0000   0.0000   0.0000   0.0000

          k = 0.1429 0.5774 0.2256 (  1898 PWs)   bands (ev):

     3.5488   3.5780   3.8198   3.8284   4.4148   4.5422   4.7755   4.8483
     4.8998   4.9095  10.5599  10.7537  12.7472  12.8159  19.8783  20.6982

     occupation numbers 
     1.0000   1.0000   1.0000   1.0000   1.0000   1.0000   1.0000   1.0000
     1.0000   1.0000   1.0000   1.0000   0.0000   0.0000   0.0000   0.0000

          k = 0.2143 0.3712 0.0000 (  1915 PWs)   bands (ev):

     3.8173   3.8424   3.8878   4.0453   4.2063   4.2160   4.4325   4.4517
     4.7695   4.9735   6.3595  11.8247  13.1393  17.1240  17.3116  22.7803

     occupation numbers 
     1.0000   1.0000   1.0000   1.0000   1.0000   1.0000   1.0000   1.0000
     1.0000   1.0000   1.0000   1.0000   0.0000   0.0000   0.0000   0.0000

          k = 0.2143 0.3712 0.0752 (  1908 PWs)   bands (ev):

     3.8045   3.8326   3.9411   3.9452   4.1941   4.2752   4.4493   4.5167
     4.7425   4.9820   6.4463  10.6857  14.5055  17.2543  17.4366  21.6297

     occupation numbers 
     1.0000   1.0000   1.0000   1.0000   1.0000   1.0000   1.0000   1.0000
     1.0000   1.0000   1.0000   1.0000   0.0000   0.0000   0.0000   0.0000

          k = 0.2143 0.3712 0.1504 (  1914 PWs)   bands (ev):

     3.7703   3.8341   3.8799   4.0056   4.1678   4.2738   4.4586   4.6695
     4.7210   4.9926   6.7388   9.3108  16.5364  17.6442  17.8018  20.2937

     occupation numbers 
     1.0000   1.0000   1.0000   1.0000   1.0000   1.0000   1.0000   1.0000
     1.0000   1.0000   1.0000   1.0000   0.0000   0.0000   0.0000   0.0000

          k = 0.2143 0.3712 0.2256 (  1904 PWs)   bands (ev):

     3.7584   3.7764   3.9420   4.0034   4.1826   4.2339   4.5021   4.5803
     4.8886   4.9732   7.3024   8.1663  18.2686  18.3521  18.4423  19.1714

     occupation numbers 
     1.0000   1.0000   1.0000   1.0000   1.0000   1.0000   1.0000   1.0000
     1.0000   1.0000   1.0000   1.0000   0.0000   0.0000   0.0000   0.0000

          k = 0.2143 0.4536 0.0000 (  1915 PWs)   bands (ev):

     3.7759   3.7932   3.8705   4.1839   4.2605   4.3296   4.3607   4.5774
     4.7314   4.9897   7.8164  13.1055  14.6481  14.6987  16.5638  20.1385

     occupation numbers 
     1.0000   1.0000   1.0000   1.0000   1.0000   1.0000   1.0000   1.0000
     1.0000   1.0000   1.0000   0.0000   0.0000   0.0000   0.0000   0.0000

          k = 0.2143 0.4536 0.0752 (  1914 PWs)   bands (ev):

     3.7549   3.7907   3.9250   4.0539   4.2491   4.3840   4.4287   4.6070
     4.7030   4.9953   7.9236  12.1304  14.6451  15.9711  16.6927  19.1137

     occupation numbers 
     1.0000   1.0000   1.0000   1.0000   1.0000   1.0000   1.0000   1.0000
     1.0000   1.0000   1.0000   0.0000   0.0000   0.0000   0.0000   0.0000

          k = 0.2143 0.4536 0.1504 (  1907 PWs)   bands (ev):

     3.7256   3.8245   3.9061   4.0023   4.2171   4.4138   4.4753   4.6306
     4.7396   4.9983   8.2582  10.8196  15.0090  17.0450  17.2103  18.4942

     occupation numbers 
     1.0000   1.0000   1.0000   1.0000   1.0000   1.0000   1.0000   1.0000
     1.0000   1.0000   1.0000   1.0000   0.0000   0.0000   0.0000   0.0000

          k = 0.2143 0.4536 0.2256 (  1900 PWs)   bands (ev):

     3.7352   3.7867   3.9099   3.9747   4.2787   4.3735   4.5018   4.5537
     4.8828   4.9692   8.8470   9.7048  15.6179  16.4363  17.7093  18.5040

     occupation numbers 
     1.0000   1.0000   1.0000   1.0000   1.0000   1.0000   1.0000   1.0000
     1.0000   1.0000   1.0000   1.0000   0.0000   0.0000   0.0000   0.0000

          k = 0.2143 0.5361 0.0000 (  1916 PWs)   bands (ev):

     3.7330   3.7728   3.8492   4.1962   4.2770   4.3654   4.3962   4.7109
     4.7526   4.9204   9.6431  11.8152  15.2060  16.2044  16.3532  17.8036

     occupation numbers 
     1.0000   1.0000   1.0000   1.0000   1.0000   1.0000   1.0000   1.0000
     1.0000   1.0000   1.0000   1.0000   0.0000   0.0000   0.0000   0.0000

          k = 0.2143 0.5361 0.0752 (  1914 PWs)   bands (ev):

     3.7289   3.7467   3.9165   4.0955   4.2172   4.4365   4.4782   4.6806
     4.7586   4.9256   9.7546  11.8752  14.2792  16.1288  16.4260  18.2036

     occupation numbers 
     1.0000   1.0000   1.0000   1.0000   1.0000   1.0000   1.0000   1.0000
     1.0000   1.0000   1.0000   1.0024   0.0000   0.0000   0.0000   0.0000

          k = 0.2143 0.5361 0.1504 (  1908 PWs)   bands (ev):

     3.7012   3.7794   3.9535   3.9826   4.1861   4.4926   4.5638   4.6293
     4.7888   4.9307  10.0896  11.8896  13.3416  15.0836  16.7598  19.1552

     occupation numbers 
     1.0000   1.0000   1.0000   1.0000   1.0000   1.0000   1.0000   1.0000
     1.0000   1.0000   1.0000   0.9352   0.0000   0.0000   0.0000   0.0000

          k = 0.2143 0.5361 0.2256 (  1908 PWs)   bands (ev):

     3.7209   3.7774   3.8964   3.9469   4.2782   4.4109   4.6026   4.6268
     4.8555   4.9117  10.6425  11.3573  13.3816  14.0831  17.3891  18.2420

     occupation numbers 
     1.0000   1.0000   1.0000   1.0000   1.0000   1.0000   1.0000   1.0000
     1.0000   1.0000   1.0000   1.0000   0.0000   0.0000   0.0000   0.0000

          k = 0.2857 0.4949 0.0000 (  1910 PWs)   bands (ev):

     3.8094   3.8907   3.9631   4.1732   4.2217   4.2734   4.3663   4.6397
     4.6806   4.9108   9.5325  13.6079  14.0023  15.2877  16.3284  19.4420

     occupation numbers 
     1.0000   1.0000   1.0000   1.0000   1.0000   1.0000   1.0000   1.0000
     1.0000   1.0000   1.0000   0.0000   0.0000   0.0000   0.0000   0.0000

          k = 0.2857 0.4949 0.0752 (  1914 PWs)   bands (ev):

     3.8056   3.9017   3.9955   4.0623   4.2251   4.3094   4.3956   4.6503
     4.6723   4.9190   9.6474  13.3879  14.1321  14.5756  17.2723  18.4416

     occupation numbers 
     1.0000   1.0000   1.0000   1.0000   1.0000   1.0000   1.0000   1.0000
     1.0000   1.0000   1.0000   0.0000   0.0000   0.0000   0.0000   0.0000

          k = 0.2857 0.4949 0.1504 (  1907 PWs)   bands (ev):

     3.8056   3.9276   3.9566   4.0782   4.1423   4.3433   4.4331   4.5791
     4.7597   4.9299   9.9958  12.4439  14.5144  14.5809  16.9869  17.1015

     occupation numbers 
     1.0000   1.0000   1.0000   1.0000   1.0000   1.0000   1.0000   1.0000
     1.0000   1.0000   1.0000   0.0000   0.0000   0.0000   0.0000   0.0000

          k = 0.2857 0.4949 0.2256 (  1903 PWs)   bands (ev):

     3.8231   3.8673   3.9908   4.0601   4.1887   4.2935   4.4664   4.5096
     4.8557   4.9151  10.5852  11.4148  15.0918  15.1099  16.0373  16.0604

     occupation numbers 
     1.0000   1.0000   1.0000   1.0000   1.0000   1.0000   1.0000   1.0000
     1.0000   1.0000   1.0000   1.0000   0.0000   0.0000   0.0000   0.0000

          k = 0.2857 0.5774 0.0000 (  1916 PWs)   bands (ev):

     3.8220   3.9313   4.0014   4.1851   4.2005   4.2059   4.3961   4.6614
     4.7322   4.8102  11.4704  11.6360  13.7214  16.6279  17.7100  17.8384

     occupation numbers 
     1.0000   1.0000   1.0000   1.0000   1.0000   1.0000   1.0000   1.0000
     1.0000   1.0000   1.0000   1.0000   0.0000   0.0000   0.0000   0.0000

          k = 0.2857 0.5774 0.0752 (  1908 PWs)   bands (ev):

     3.8298   3.9389   4.0087   4.1022   4.1820   4.2662   4.4149   4.6308
     4.7516   4.8258  11.5954  11.7325  13.8244  15.9356  16.2209  18.1053

     occupation numbers 
     1.0000   1.0000   1.0000   1.0000   1.0000   1.0000   1.0000   1.0000
     1.0000   1.0000   1.0000   1.0000   0.0000   0.0000   0.0000   0.0000

          k = 0.2857 0.5774 0.1504 (  1903 PWs)   bands (ev):

     3.8466   3.9541   4.0160   4.0327   4.1597   4.2959   4.4428   4.5574
     4.8006   4.8565  11.9517  12.0166  14.0326  14.8091  15.0891  16.9270

     occupation numbers 
     1.0000   1.0000   1.0000   1.0000   1.0000   1.0000   1.0000   1.0000
     1.0000   1.0000   0.0000   0.0000   0.0000   0.0000   0.0000   0.0000

          k = 0.2857 0.5774 0.2256 (  1903 PWs)   bands (ev):

     3.8725   3.9184   4.0084   4.0355   4.1952   4.2678   4.4619   4.4910
     4.8501   4.8709  12.4182  12.4227  13.7351  13.8792  15.1032  15.8797

     occupation numbers 
     1.0000   1.0000   1.0000   1.0000   1.0000   1.0000   1.0000   1.0000
     1.0000   1.0000   0.0000   0.0000   0.0000   0.0000   0.0000   0.0000

     the Fermi energy is    11.8949 ev

!    total energy              =    -487.44442622 Ry
     total all-electron energy =     -7184.238472 Ry
     estimated scf accuracy    <       0.00000043 Ry
     smearing contrib. (-TS)   =      -0.00000088 Ry
     internal energy E=F+TS    =    -487.44442534 Ry

     The total energy is F=E-TS. E is the sum of the following terms:
     one-electron contribution =    -111.18175795 Ry
     hartree contribution      =      89.51339779 Ry
     xc contribution           =     -94.41192473 Ry
     ewald contribution        =    -180.48320170 Ry
     one-center paw contrib.   =    -190.88093875 Ry
      -> PAW hartree energy AE =     122.99567360 Ry
      -> PAW hartree energy PS =    -122.37584267 Ry
      -> PAW xc energy AE      =    -143.14493187 Ry
      -> PAW xc energy PS      =      47.08463156 Ry
      -> total E_H with PAW    =      90.13322872 Ry
      -> total E_XC with PAW   =    -190.47222503 Ry

     total magnetization       =     0.00 Bohr mag/cell
     absolute magnetization    =     0.00 Bohr mag/cell

     convergence has been achieved in   6 iterations

     Writing all to output data dir ./out/Zn.save/
 
     init_run     :      0.31s CPU      0.43s WALL (       1 calls)
     electrons    :      6.21s CPU      6.74s WALL (       1 calls)

     Called by init_run:
     wfcinit      :      0.14s CPU      0.22s WALL (       1 calls)
     potinit      :      0.11s CPU      0.13s WALL (       1 calls)
     hinit0       :      0.06s CPU      0.06s WALL (       1 calls)

     Called by electrons:
     c_bands      :      5.00s CPU      5.38s WALL (       6 calls)
     sum_band     :      0.63s CPU      0.66s WALL (       6 calls)
     v_of_rho     :      0.02s CPU      0.02s WALL (       7 calls)
     v_h          :      0.00s CPU      0.00s WALL (       7 calls)
     v_xc         :      0.02s CPU      0.02s WALL (       7 calls)
     newd         :      0.01s CPU      0.01s WALL (       7 calls)
     PAW_pot      :      0.64s CPU      0.77s WALL (       7 calls)
     mix_rho      :      0.00s CPU      0.00s WALL (       6 calls)

     Called by c_bands:
     init_us_2    :      0.04s CPU      0.05s WALL (    1152 calls)
     init_us_2:cp :      0.04s CPU      0.04s WALL (    1152 calls)
     cegterg      :      4.74s CPU      5.01s WALL (     576 calls)

     Called by sum_band:
     sum_band:wei :      0.01s CPU      0.01s WALL (       6 calls)
     sum_band:loo :      0.59s CPU      0.62s WALL (       6 calls)
     sum_band:buf :      0.00s CPU      0.00s WALL (     576 calls)
     sum_band:ini :      0.02s CPU      0.02s WALL (     576 calls)
     sum_band:cal :      0.05s CPU      0.05s WALL (     576 calls)
     sum_band:bec :      0.00s CPU      0.00s WALL (     576 calls)
     addusdens    :      0.02s CPU      0.02s WALL (       6 calls)
                                        0.00s GPU  (       6 calls)
     addusd:skk   :      0.00s CPU      0.00s WALL (       6 calls)
                                        0.00s GPU  (       6 calls)

     Called by *egterg:
     cdiaghg      :      0.81s CPU      0.86s WALL (    2778 calls)
     cegterg:over :      0.13s CPU      0.13s WALL (    2298 calls)
     cegterg:upda :      0.03s CPU      0.03s WALL (    2298 calls)
     cegterg:last :      0.05s CPU      0.05s WALL (    1701 calls)
     h_psi        :      3.55s CPU      3.75s WALL (    2874 calls)
     s_psi        :      0.07s CPU      0.07s WALL (    2874 calls)
     g_psi        :      0.01s CPU      0.01s WALL (    2298 calls)

     Called by h_psi:
     h_psi:calbec :      0.17s CPU      0.18s WALL (    2874 calls)
     vloc_psi     :      3.28s CPU      3.47s WALL (    2874 calls)
     add_vuspsi   :      0.07s CPU      0.07s WALL (    2874 calls)

     General routines
     calbec       :      0.20s CPU      0.22s WALL (    3450 calls)
     fft          :      0.01s CPU      0.01s WALL (     145 calls)
     ffts         :      0.00s CPU      0.00s WALL (      12 calls)
     fftw         :      3.52s CPU      3.71s WALL (   72690 calls)
 
     Parallel routines

     PAW routines
     PAW_pot      :      0.64s CPU      0.77s WALL (       7 calls)
     PAW_symme    :      0.01s CPU      0.01s WALL (      12 calls)
 
     PWSCF        :      6.80s CPU      7.76s WALL

 
   This run was terminated on:   3:24:54  13Mar2024            

=------------------------------------------------------------------------------=
   JOB DONE.
=------------------------------------------------------------------------------=
