
     Program PWSCF v.7.2 starts on 13Mar2024 at  3:27:22 

     This program is part of the open-source Quantum ESPRESSO suite
     for quantum simulation of materials; please cite
         "P. Giannozzi et al., J. Phys.:Condens. Matter 21 395502 (2009);
         "P. Giannozzi et al., J. Phys.:Condens. Matter 29 465901 (2017);
         "P. Giannozzi et al., J. Chem. Phys. 152 154105 (2020);
          URL http://www.quantum-espresso.org", 
     in publications or presentations arising from this work. More details at
     http://www.quantum-espresso.org/quote

     Parallel version (MPI), running on    28 processors

     MPI processes distributed on     1 nodes
     150181 MiB available memory on the printing compute node when the environment starts
 
     Waiting for input...
     Reading input from standard input

     Current dimensions of program PWSCF are:
     Max number of different atomic species (ntypx) = 10
     Max number of k-points (npk) = 120000
     Max angular momentum in pseudopotentials (lmaxx) =  4
     file Zn.pbe-dnl-kjpaw_psl.1.0.0.UPF: wavefunction(s)  4S 3D renormalized
 
     K-points division:     npool     =       2
     R & G space division:  proc/nbgrp/npool/nimage =      14
     Subspace diagonalization in iterative solution of the eigenvalue problem:
     a serial algorithm will be used

 
     Parallelization info
     --------------------
     sticks:   dense  smooth     PW     G-vecs:    dense   smooth      PW
     Min          35      35     10                 1135     1135     188
     Max          36      36     11                 1142     1142     195
     Sum         499     499    151                15943    15943    2697
 
     Using Slab Decomposition
 


     bravais-lattice index     =            4
     lattice parameter (alat)  =       5.0500  a.u.
     unit-cell volume          =     200.7600 (a.u.)^3
     number of atoms/cell      =            2
     number of atomic types    =            1
     number of electrons       =        24.00
     number of Kohn-Sham states=           16
     kinetic-energy cutoff     =      70.0000  Ry
     charge density cutoff     =     280.0000  Ry
     scf convergence threshold =      4.0E-06
     mixing beta               =       0.7000
     number of iterations used =            8  plain     mixing
     Exchange-correlation= SLA  PW   PBX  PBC
                           (   1   4   3   4   0   0   0)

     celldm(1)=   5.050000  celldm(2)=   0.000000  celldm(3)=   1.800000
     celldm(4)=   0.000000  celldm(5)=   0.000000  celldm(6)=   0.000000

     crystal axes: (cart. coord. in units of alat)
               a(1) = (   1.000000   0.000000   0.000000 )  
               a(2) = (  -0.500000   0.866025   0.000000 )  
               a(3) = (   0.000000   0.000000   1.800000 )  

     reciprocal axes: (cart. coord. in units 2 pi/alat)
               b(1) = (  1.000000  0.577350  0.000000 )  
               b(2) = (  0.000000  1.154701  0.000000 )  
               b(3) = (  0.000000  0.000000  0.555556 )  


     PseudoPot. # 1 for Zn read from file:
     /truba/home/amuhaymin/ZnS/pseudo/QE/Zn.pbe-dnl-kjpaw_psl.1.0.0.UPF
     MD5 check sum: c608214d9520ac179f507641260889e3
     Pseudo is Projector augmented-wave + core cor, Zval = 12.0
     Generated using &quot;atomic&quot; code by A. Dal Corso  v.6.2.2
     Shape of augmentation charge: PSQ
     Using radial grid of 1201 points,  6 beta functions with: 
                l(1) =   0
                l(2) =   0
                l(3) =   1
                l(4) =   1
                l(5) =   2
                l(6) =   2
     Q(r) pseudized with 0 coefficients 


     atomic species   valence    mass     pseudopotential
        Zn            12.00    65.38000     Zn( 1.00)

     Starting magnetic structure 
     atomic species   magnetization
        Zn           0.000

     24 Sym. Ops., with inversion, found (12 have fractional translation)


                                    s                        frac. trans.

      isym =  1     identity                                     

 cryst.   s( 1) = (     1          0          0      )
                  (     0          1          0      )
                  (     0          0          1      )

 cart.    s( 1) = (  1.0000000  0.0000000  0.0000000 )
                  (  0.0000000  1.0000000  0.0000000 )
                  (  0.0000000  0.0000000  1.0000000 )


      isym =  2     180 deg rotation - cart. axis [0,0,1]        

 cryst.   s( 2) = (    -1          0          0      )    f =(  0.0000000 )
                  (     0         -1          0      )       (  0.0000000 )
                  (     0          0          1      )       (  0.5000000 )

 cart.    s( 2) = ( -1.0000000  0.0000000  0.0000000 )    f =(  0.0000000 )
                  (  0.0000000 -1.0000000  0.0000000 )       (  0.0000000 )
                  (  0.0000000  0.0000000  1.0000000 )       (  0.9000000 )


      isym =  3     180 deg rotation - cart. axis [0,1,0]        

 cryst.   s( 3) = (    -1          0          0      )    f =(  0.0000000 )
                  (     1          1          0      )       (  0.0000000 )
                  (     0          0         -1      )       ( -0.5000000 )

 cart.    s( 3) = ( -1.0000000  0.0000000  0.0000000 )    f =(  0.0000000 )
                  (  0.0000000  1.0000000  0.0000000 )       (  0.0000000 )
                  (  0.0000000  0.0000000 -1.0000000 )       ( -0.9000000 )


      isym =  4     180 deg rotation - cart. axis [1,0,0]        

 cryst.   s( 4) = (     1          0          0      )
                  (    -1         -1          0      )
                  (     0          0         -1      )

 cart.    s( 4) = (  1.0000000  0.0000000  0.0000000 )
                  (  0.0000000 -1.0000000  0.0000000 )
                  (  0.0000000  0.0000000 -1.0000000 )


      isym =  5      60 deg rotation - cryst. axis [0,0,1]       

 cryst.   s( 5) = (     1          1          0      )    f =(  0.0000000 )
                  (    -1          0          0      )       ( -0.0000000 )
                  (     0          0          1      )       (  0.5000000 )

 cart.    s( 5) = (  0.5000000 -0.8660254  0.0000000 )    f =(  0.0000000 )
                  (  0.8660254  0.5000000  0.0000000 )       ( -0.0000000 )
                  (  0.0000000  0.0000000  1.0000000 )       (  0.9000000 )


      isym =  6      60 deg rotation - cryst. axis [0,0,-1]      

 cryst.   s( 6) = (     0         -1          0      )    f =(  0.0000000 )
                  (     1          1          0      )       ( -0.0000000 )
                  (     0          0          1      )       (  0.5000000 )

 cart.    s( 6) = (  0.5000000  0.8660254  0.0000000 )    f =(  0.0000000 )
                  ( -0.8660254  0.5000000  0.0000000 )       ( -0.0000000 )
                  (  0.0000000  0.0000000  1.0000000 )       (  0.9000000 )


      isym =  7     120 deg rotation - cryst. axis [0,0,1]       

 cryst.   s( 7) = (     0          1          0      )
                  (    -1         -1          0      )
                  (     0          0          1      )

 cart.    s( 7) = ( -0.5000000 -0.8660254  0.0000000 )
                  (  0.8660254 -0.5000000  0.0000000 )
                  (  0.0000000  0.0000000  1.0000000 )


      isym =  8     120 deg rotation - cryst. axis [0,0,-1]      

 cryst.   s( 8) = (    -1         -1          0      )
                  (     1          0          0      )
                  (     0          0          1      )

 cart.    s( 8) = ( -0.5000000  0.8660254  0.0000000 )
                  ( -0.8660254 -0.5000000  0.0000000 )
                  (  0.0000000  0.0000000  1.0000000 )


      isym =  9     180 deg rotation - cryst. axis [1,-1,0]      

 cryst.   s( 9) = (     0         -1          0      )    f =(  0.0000000 )
                  (    -1          0          0      )       (  0.0000000 )
                  (     0          0         -1      )       ( -0.5000000 )

 cart.    s( 9) = (  0.5000000 -0.8660254  0.0000000 )    f =(  0.0000000 )
                  ( -0.8660254 -0.5000000  0.0000000 )       (  0.0000000 )
                  (  0.0000000  0.0000000 -1.0000000 )       ( -0.9000000 )


      isym = 10     180 deg rotation - cryst. axis [2,1,0]       

 cryst.   s(10) = (     1          1          0      )    f =(  0.0000000 )
                  (     0         -1          0      )       ( -0.0000000 )
                  (     0          0         -1      )       ( -0.5000000 )

 cart.    s(10) = (  0.5000000  0.8660254  0.0000000 )    f =(  0.0000000 )
                  (  0.8660254 -0.5000000  0.0000000 )       ( -0.0000000 )
                  (  0.0000000  0.0000000 -1.0000000 )       ( -0.9000000 )


      isym = 11     180 deg rotation - cryst. axis [0,1,0]       

 cryst.   s(11) = (    -1         -1          0      )
                  (     0          1          0      )
                  (     0          0         -1      )

 cart.    s(11) = ( -0.5000000 -0.8660254  0.0000000 )
                  ( -0.8660254  0.5000000  0.0000000 )
                  (  0.0000000  0.0000000 -1.0000000 )


      isym = 12     180 deg rotation - cryst. axis [1,1,0]       

 cryst.   s(12) = (     0          1          0      )
                  (     1          0          0      )
                  (     0          0         -1      )

 cart.    s(12) = ( -0.5000000  0.8660254  0.0000000 )
                  (  0.8660254  0.5000000  0.0000000 )
                  (  0.0000000  0.0000000 -1.0000000 )


      isym = 13     inversion                                    

 cryst.   s(13) = (    -1          0          0      )
                  (     0         -1          0      )
                  (     0          0         -1      )

 cart.    s(13) = ( -1.0000000  0.0000000  0.0000000 )
                  (  0.0000000 -1.0000000  0.0000000 )
                  (  0.0000000  0.0000000 -1.0000000 )


      isym = 14     inv. 180 deg rotation - cart. axis [0,0,1]   

 cryst.   s(14) = (     1          0          0      )    f =(  0.0000000 )
                  (     0          1          0      )       (  0.0000000 )
                  (     0          0         -1      )       ( -0.5000000 )

 cart.    s(14) = (  1.0000000  0.0000000  0.0000000 )    f =(  0.0000000 )
                  (  0.0000000  1.0000000  0.0000000 )       (  0.0000000 )
                  (  0.0000000  0.0000000 -1.0000000 )       ( -0.9000000 )


      isym = 15     inv. 180 deg rotation - cart. axis [0,1,0]   

 cryst.   s(15) = (     1          0          0      )    f =(  0.0000000 )
                  (    -1         -1          0      )       (  0.0000000 )
                  (     0          0          1      )       (  0.5000000 )

 cart.    s(15) = (  1.0000000  0.0000000  0.0000000 )    f =(  0.0000000 )
                  (  0.0000000 -1.0000000  0.0000000 )       (  0.0000000 )
                  (  0.0000000  0.0000000  1.0000000 )       (  0.9000000 )


      isym = 16     inv. 180 deg rotation - cart. axis [1,0,0]   

 cryst.   s(16) = (    -1          0          0      )
                  (     1          1          0      )
                  (     0          0          1      )

 cart.    s(16) = ( -1.0000000  0.0000000  0.0000000 )
                  (  0.0000000  1.0000000  0.0000000 )
                  (  0.0000000  0.0000000  1.0000000 )


      isym = 17     inv.  60 deg rotation - cryst. axis [0,0,1]  

 cryst.   s(17) = (    -1         -1          0      )    f =(  0.0000000 )
                  (     1          0          0      )       (  0.0000000 )
                  (     0          0         -1      )       ( -0.5000000 )

 cart.    s(17) = ( -0.5000000  0.8660254  0.0000000 )    f =(  0.0000000 )
                  ( -0.8660254 -0.5000000  0.0000000 )       (  0.0000000 )
                  (  0.0000000  0.0000000 -1.0000000 )       ( -0.9000000 )


      isym = 18     inv.  60 deg rotation - cryst. axis [0,0,-1] 

 cryst.   s(18) = (     0          1          0      )    f =(  0.0000000 )
                  (    -1         -1          0      )       ( -0.0000000 )
                  (     0          0         -1      )       ( -0.5000000 )

 cart.    s(18) = ( -0.5000000 -0.8660254  0.0000000 )    f =(  0.0000000 )
                  (  0.8660254 -0.5000000  0.0000000 )       ( -0.0000000 )
                  (  0.0000000  0.0000000 -1.0000000 )       ( -0.9000000 )


      isym = 19     inv. 120 deg rotation - cryst. axis [0,0,1]  

 cryst.   s(19) = (     0         -1          0      )
                  (     1          1          0      )
                  (     0          0         -1      )

 cart.    s(19) = (  0.5000000  0.8660254  0.0000000 )
                  ( -0.8660254  0.5000000  0.0000000 )
                  (  0.0000000  0.0000000 -1.0000000 )


      isym = 20     inv. 120 deg rotation - cryst. axis [0,0,-1] 

 cryst.   s(20) = (     1          1          0      )
                  (    -1          0          0      )
                  (     0          0         -1      )

 cart.    s(20) = (  0.5000000 -0.8660254  0.0000000 )
                  (  0.8660254  0.5000000  0.0000000 )
                  (  0.0000000  0.0000000 -1.0000000 )


      isym = 21     inv. 180 deg rotation - cryst. axis [1,-1,0] 

 cryst.   s(21) = (     0          1          0      )    f =(  0.0000000 )
                  (     1          0          0      )       ( -0.0000000 )
                  (     0          0          1      )       (  0.5000000 )

 cart.    s(21) = ( -0.5000000  0.8660254  0.0000000 )    f =(  0.0000000 )
                  (  0.8660254  0.5000000  0.0000000 )       ( -0.0000000 )
                  (  0.0000000  0.0000000  1.0000000 )       (  0.9000000 )


      isym = 22     inv. 180 deg rotation - cryst. axis [2,1,0]  

 cryst.   s(22) = (    -1         -1          0      )    f =(  0.0000000 )
                  (     0          1          0      )       ( -0.0000000 )
                  (     0          0          1      )       (  0.5000000 )

 cart.    s(22) = ( -0.5000000 -0.8660254  0.0000000 )    f =(  0.0000000 )
                  ( -0.8660254  0.5000000  0.0000000 )       ( -0.0000000 )
                  (  0.0000000  0.0000000  1.0000000 )       (  0.9000000 )


      isym = 23     inv. 180 deg rotation - cryst. axis [0,1,0]  

 cryst.   s(23) = (     1          1          0      )
                  (     0         -1          0      )
                  (     0          0          1      )

 cart.    s(23) = (  0.5000000  0.8660254  0.0000000 )
                  (  0.8660254 -0.5000000  0.0000000 )
                  (  0.0000000  0.0000000  1.0000000 )


      isym = 24     inv. 180 deg rotation - cryst. axis [1,1,0]  

 cryst.   s(24) = (     0         -1          0      )
                  (    -1          0          0      )
                  (     0          0          1      )

 cart.    s(24) = (  0.5000000 -0.8660254  0.0000000 )
                  ( -0.8660254 -0.5000000  0.0000000 )
                  (  0.0000000  0.0000000  1.0000000 )


     point group D_6h(6/mmm)
     there are 12 classes
     the character table:

       E     2C6   2C3   C2    3C2'  3C2'' i     2S3   2S6   s_h   3s_d  3s_v 
A_1g   1.00  1.00  1.00  1.00  1.00  1.00  1.00  1.00  1.00  1.00  1.00  1.00
A_2g   1.00  1.00  1.00  1.00 -1.00 -1.00  1.00  1.00  1.00  1.00 -1.00 -1.00
B_1g   1.00 -1.00  1.00 -1.00  1.00 -1.00  1.00 -1.00  1.00 -1.00  1.00 -1.00
B_2g   1.00 -1.00  1.00 -1.00 -1.00  1.00  1.00 -1.00  1.00 -1.00 -1.00  1.00
E_1g   2.00  1.00 -1.00 -2.00  0.00  0.00  2.00  1.00 -1.00 -2.00  0.00  0.00
E_2g   2.00 -1.00 -1.00  2.00  0.00  0.00  2.00 -1.00 -1.00  2.00  0.00  0.00
A_1u   1.00  1.00  1.00  1.00  1.00  1.00 -1.00 -1.00 -1.00 -1.00 -1.00 -1.00
A_2u   1.00  1.00  1.00  1.00 -1.00 -1.00 -1.00 -1.00 -1.00 -1.00  1.00  1.00
B_1u   1.00 -1.00  1.00 -1.00  1.00 -1.00 -1.00  1.00 -1.00  1.00 -1.00  1.00
B_2u   1.00 -1.00  1.00 -1.00 -1.00  1.00 -1.00  1.00 -1.00  1.00  1.00 -1.00
E_1u   2.00  1.00 -1.00 -2.00  0.00  0.00 -2.00 -1.00  1.00  2.00  0.00  0.00
E_2u   2.00 -1.00 -1.00  2.00  0.00  0.00 -2.00  1.00  1.00 -2.00  0.00  0.00

     the symmetry operations in each class and the name of the first element:

     E        1
          identity                                               
     2C6      5    6
           60 deg rotation - cryst. axis [0,0,1]                 
     2C3      7    8
          120 deg rotation - cryst. axis [0,0,1]                 
     C2       2
          180 deg rotation - cart. axis [0,0,1]                  
     3C2'     4   12   11
          180 deg rotation - cart. axis [1,0,0]                  
     3C2''    3    9   10
          180 deg rotation - cart. axis [0,1,0]                  
     i       13
          inversion                                              
     2S3     17   18
          inv.  60 deg rotation - cryst. axis [0,0,1]            
     2S6     19   20
          inv. 120 deg rotation - cryst. axis [0,0,1]            
     s_h     14
          inv. 180 deg rotation - cart. axis [0,0,1]             
     3s_d    16   24   23
          inv. 180 deg rotation - cart. axis [1,0,0]             
     3s_v    15   21   22
          inv. 180 deg rotation - cart. axis [0,1,0]             

   Cartesian axes

     site n.     atom                  positions (alat units)
         1           Zn  tau(   1) = (  -0.0000000   0.5773503   0.4500000  )
         2           Zn  tau(   2) = (   0.5000000   0.2886751   1.3500000  )

   Crystallographic axes

     site n.     atom                  positions (cryst. coord.)
         1           Zn  tau(   1) = (  0.3333333  0.6666667  0.2500000  )
         2           Zn  tau(   2) = (  0.6666667  0.3333333  0.7500000  )

     number of k points=    96  Marzari-Vanderbilt smearing, width (Ry)=  0.0005
                       cart. coord. in units 2pi/alat
        k(    1) = (   0.0000000   0.0000000   0.0000000), wk =   0.0007289
        k(    2) = (   0.0000000   0.0000000   0.0793651), wk =   0.0014577
        k(    3) = (   0.0000000   0.0000000   0.1587302), wk =   0.0014577
        k(    4) = (   0.0000000   0.0000000   0.2380952), wk =   0.0014577
        k(    5) = (   0.0000000   0.0824786   0.0000000), wk =   0.0043732
        k(    6) = (   0.0000000   0.0824786   0.0793651), wk =   0.0087464
        k(    7) = (   0.0000000   0.0824786   0.1587302), wk =   0.0087464
        k(    8) = (   0.0000000   0.0824786   0.2380952), wk =   0.0087464
        k(    9) = (   0.0000000   0.1649572   0.0000000), wk =   0.0043732
        k(   10) = (   0.0000000   0.1649572   0.0793651), wk =   0.0087464
        k(   11) = (   0.0000000   0.1649572   0.1587302), wk =   0.0087464
        k(   12) = (   0.0000000   0.1649572   0.2380952), wk =   0.0087464
        k(   13) = (   0.0000000   0.2474358   0.0000000), wk =   0.0043732
        k(   14) = (   0.0000000   0.2474358   0.0793651), wk =   0.0087464
        k(   15) = (   0.0000000   0.2474358   0.1587302), wk =   0.0087464
        k(   16) = (   0.0000000   0.2474358   0.2380952), wk =   0.0087464
        k(   17) = (   0.0000000   0.3299144   0.0000000), wk =   0.0043732
        k(   18) = (   0.0000000   0.3299144   0.0793651), wk =   0.0087464
        k(   19) = (   0.0000000   0.3299144   0.1587302), wk =   0.0087464
        k(   20) = (   0.0000000   0.3299144   0.2380952), wk =   0.0087464
        k(   21) = (   0.0000000   0.4123930   0.0000000), wk =   0.0043732
        k(   22) = (   0.0000000   0.4123930   0.0793651), wk =   0.0087464
        k(   23) = (   0.0000000   0.4123930   0.1587302), wk =   0.0087464
        k(   24) = (   0.0000000   0.4123930   0.2380952), wk =   0.0087464
        k(   25) = (   0.0000000   0.4948717   0.0000000), wk =   0.0043732
        k(   26) = (   0.0000000   0.4948717   0.0793651), wk =   0.0087464
        k(   27) = (   0.0000000   0.4948717   0.1587302), wk =   0.0087464
        k(   28) = (   0.0000000   0.4948717   0.2380952), wk =   0.0087464
        k(   29) = (   0.0000000  -0.5773503   0.0000000), wk =   0.0021866
        k(   30) = (   0.0000000  -0.5773503   0.0793651), wk =   0.0043732
        k(   31) = (   0.0000000  -0.5773503   0.1587302), wk =   0.0043732
        k(   32) = (   0.0000000  -0.5773503   0.2380952), wk =   0.0043732
        k(   33) = (   0.0714286   0.1237179   0.0000000), wk =   0.0043732
        k(   34) = (   0.0714286   0.1237179   0.0793651), wk =   0.0087464
        k(   35) = (   0.0714286   0.1237179   0.1587302), wk =   0.0087464
        k(   36) = (   0.0714286   0.1237179   0.2380952), wk =   0.0087464
        k(   37) = (   0.0714286   0.2061965   0.0000000), wk =   0.0087464
        k(   38) = (   0.0714286   0.2061965   0.0793651), wk =   0.0174927
        k(   39) = (   0.0714286   0.2061965   0.1587302), wk =   0.0174927
        k(   40) = (   0.0714286   0.2061965   0.2380952), wk =   0.0174927
        k(   41) = (   0.0714286   0.2886751   0.0000000), wk =   0.0087464
        k(   42) = (   0.0714286   0.2886751   0.0793651), wk =   0.0174927
        k(   43) = (   0.0714286   0.2886751   0.1587302), wk =   0.0174927
        k(   44) = (   0.0714286   0.2886751   0.2380952), wk =   0.0174927
        k(   45) = (   0.0714286   0.3711537   0.0000000), wk =   0.0087464
        k(   46) = (   0.0714286   0.3711537   0.0793651), wk =   0.0174927
        k(   47) = (   0.0714286   0.3711537   0.1587302), wk =   0.0174927
        k(   48) = (   0.0714286   0.3711537   0.2380952), wk =   0.0174927
        k(   49) = (   0.0714286   0.4536324   0.0000000), wk =   0.0087464
        k(   50) = (   0.0714286   0.4536324   0.0793651), wk =   0.0174927
        k(   51) = (   0.0714286   0.4536324   0.1587302), wk =   0.0174927
        k(   52) = (   0.0714286   0.4536324   0.2380952), wk =   0.0174927
        k(   53) = (   0.0714286   0.5361110   0.0000000), wk =   0.0087464
        k(   54) = (   0.0714286   0.5361110   0.0793651), wk =   0.0174927
        k(   55) = (   0.0714286   0.5361110   0.1587302), wk =   0.0174927
        k(   56) = (   0.0714286   0.5361110   0.2380952), wk =   0.0174927
        k(   57) = (   0.1428571   0.2474358   0.0000000), wk =   0.0043732
        k(   58) = (   0.1428571   0.2474358   0.0793651), wk =   0.0087464
        k(   59) = (   0.1428571   0.2474358   0.1587302), wk =   0.0087464
        k(   60) = (   0.1428571   0.2474358   0.2380952), wk =   0.0087464
        k(   61) = (   0.1428571   0.3299144   0.0000000), wk =   0.0087464
        k(   62) = (   0.1428571   0.3299144   0.0793651), wk =   0.0174927
        k(   63) = (   0.1428571   0.3299144   0.1587302), wk =   0.0174927
        k(   64) = (   0.1428571   0.3299144   0.2380952), wk =   0.0174927
        k(   65) = (   0.1428571   0.4123930   0.0000000), wk =   0.0087464
        k(   66) = (   0.1428571   0.4123930   0.0793651), wk =   0.0174927
        k(   67) = (   0.1428571   0.4123930   0.1587302), wk =   0.0174927
        k(   68) = (   0.1428571   0.4123930   0.2380952), wk =   0.0174927
        k(   69) = (   0.1428571   0.4948717   0.0000000), wk =   0.0087464
        k(   70) = (   0.1428571   0.4948717   0.0793651), wk =   0.0174927
        k(   71) = (   0.1428571   0.4948717   0.1587302), wk =   0.0174927
        k(   72) = (   0.1428571   0.4948717   0.2380952), wk =   0.0174927
        k(   73) = (   0.1428571   0.5773503   0.0000000), wk =   0.0043732
        k(   74) = (   0.1428571   0.5773503   0.0793651), wk =   0.0087464
        k(   75) = (   0.1428571   0.5773503   0.1587302), wk =   0.0087464
        k(   76) = (   0.1428571   0.5773503   0.2380952), wk =   0.0087464
        k(   77) = (   0.2142857   0.3711537   0.0000000), wk =   0.0043732
        k(   78) = (   0.2142857   0.3711537   0.0793651), wk =   0.0087464
        k(   79) = (   0.2142857   0.3711537   0.1587302), wk =   0.0087464
        k(   80) = (   0.2142857   0.3711537   0.2380952), wk =   0.0087464
        k(   81) = (   0.2142857   0.4536324   0.0000000), wk =   0.0087464
        k(   82) = (   0.2142857   0.4536324   0.0793651), wk =   0.0174927
        k(   83) = (   0.2142857   0.4536324   0.1587302), wk =   0.0174927
        k(   84) = (   0.2142857   0.4536324   0.2380952), wk =   0.0174927
        k(   85) = (   0.2142857   0.5361110   0.0000000), wk =   0.0087464
        k(   86) = (   0.2142857   0.5361110   0.0793651), wk =   0.0174927
        k(   87) = (   0.2142857   0.5361110   0.1587302), wk =   0.0174927
        k(   88) = (   0.2142857   0.5361110   0.2380952), wk =   0.0174927
        k(   89) = (   0.2857143   0.4948717   0.0000000), wk =   0.0043732
        k(   90) = (   0.2857143   0.4948717   0.0793651), wk =   0.0087464
        k(   91) = (   0.2857143   0.4948717   0.1587302), wk =   0.0087464
        k(   92) = (   0.2857143   0.4948717   0.2380952), wk =   0.0087464
        k(   93) = (   0.2857143   0.5773503   0.0000000), wk =   0.0043732
        k(   94) = (   0.2857143   0.5773503   0.0793651), wk =   0.0087464
        k(   95) = (   0.2857143   0.5773503   0.1587302), wk =   0.0087464
        k(   96) = (   0.2857143   0.5773503   0.2380952), wk =   0.0087464

                       cryst. coord.
        k(    1) = (   0.0000000   0.0000000   0.0000000), wk =   0.0007289
        k(    2) = (   0.0000000   0.0000000   0.1428571), wk =   0.0014577
        k(    3) = (   0.0000000   0.0000000   0.2857143), wk =   0.0014577
        k(    4) = (   0.0000000   0.0000000   0.4285714), wk =   0.0014577
        k(    5) = (   0.0000000   0.0714286   0.0000000), wk =   0.0043732
        k(    6) = (   0.0000000   0.0714286   0.1428571), wk =   0.0087464
        k(    7) = (   0.0000000   0.0714286   0.2857143), wk =   0.0087464
        k(    8) = (   0.0000000   0.0714286   0.4285714), wk =   0.0087464
        k(    9) = (   0.0000000   0.1428571   0.0000000), wk =   0.0043732
        k(   10) = (   0.0000000   0.1428571   0.1428571), wk =   0.0087464
        k(   11) = (   0.0000000   0.1428571   0.2857143), wk =   0.0087464
        k(   12) = (   0.0000000   0.1428571   0.4285714), wk =   0.0087464
        k(   13) = (   0.0000000   0.2142857   0.0000000), wk =   0.0043732
        k(   14) = (   0.0000000   0.2142857   0.1428571), wk =   0.0087464
        k(   15) = (   0.0000000   0.2142857   0.2857143), wk =   0.0087464
        k(   16) = (   0.0000000   0.2142857   0.4285714), wk =   0.0087464
        k(   17) = (   0.0000000   0.2857143   0.0000000), wk =   0.0043732
        k(   18) = (   0.0000000   0.2857143   0.1428571), wk =   0.0087464
        k(   19) = (   0.0000000   0.2857143   0.2857143), wk =   0.0087464
        k(   20) = (   0.0000000   0.2857143   0.4285714), wk =   0.0087464
        k(   21) = (   0.0000000   0.3571429   0.0000000), wk =   0.0043732
        k(   22) = (   0.0000000   0.3571429   0.1428571), wk =   0.0087464
        k(   23) = (   0.0000000   0.3571429   0.2857143), wk =   0.0087464
        k(   24) = (   0.0000000   0.3571429   0.4285714), wk =   0.0087464
        k(   25) = (   0.0000000   0.4285714   0.0000000), wk =   0.0043732
        k(   26) = (   0.0000000   0.4285714   0.1428571), wk =   0.0087464
        k(   27) = (   0.0000000   0.4285714   0.2857143), wk =   0.0087464
        k(   28) = (   0.0000000   0.4285714   0.4285714), wk =   0.0087464
        k(   29) = (   0.0000000  -0.5000000   0.0000000), wk =   0.0021866
        k(   30) = (   0.0000000  -0.5000000   0.1428571), wk =   0.0043732
        k(   31) = (   0.0000000  -0.5000000   0.2857143), wk =   0.0043732
        k(   32) = (   0.0000000  -0.5000000   0.4285714), wk =   0.0043732
        k(   33) = (   0.0714286   0.0714286   0.0000000), wk =   0.0043732
        k(   34) = (   0.0714286   0.0714286   0.1428571), wk =   0.0087464
        k(   35) = (   0.0714286   0.0714286   0.2857143), wk =   0.0087464
        k(   36) = (   0.0714286   0.0714286   0.4285714), wk =   0.0087464
        k(   37) = (   0.0714286   0.1428571   0.0000000), wk =   0.0087464
        k(   38) = (   0.0714286   0.1428571   0.1428571), wk =   0.0174927
        k(   39) = (   0.0714286   0.1428571   0.2857143), wk =   0.0174927
        k(   40) = (   0.0714286   0.1428571   0.4285714), wk =   0.0174927
        k(   41) = (   0.0714286   0.2142857   0.0000000), wk =   0.0087464
        k(   42) = (   0.0714286   0.2142857   0.1428571), wk =   0.0174927
        k(   43) = (   0.0714286   0.2142857   0.2857143), wk =   0.0174927
        k(   44) = (   0.0714286   0.2142857   0.4285714), wk =   0.0174927
        k(   45) = (   0.0714286   0.2857143   0.0000000), wk =   0.0087464
        k(   46) = (   0.0714286   0.2857143   0.1428571), wk =   0.0174927
        k(   47) = (   0.0714286   0.2857143   0.2857143), wk =   0.0174927
        k(   48) = (   0.0714286   0.2857143   0.4285714), wk =   0.0174927
        k(   49) = (   0.0714286   0.3571429   0.0000000), wk =   0.0087464
        k(   50) = (   0.0714286   0.3571429   0.1428571), wk =   0.0174927
        k(   51) = (   0.0714286   0.3571429   0.2857143), wk =   0.0174927
        k(   52) = (   0.0714286   0.3571429   0.4285714), wk =   0.0174927
        k(   53) = (   0.0714286   0.4285714   0.0000000), wk =   0.0087464
        k(   54) = (   0.0714286   0.4285714   0.1428571), wk =   0.0174927
        k(   55) = (   0.0714286   0.4285714   0.2857143), wk =   0.0174927
        k(   56) = (   0.0714286   0.4285714   0.4285714), wk =   0.0174927
        k(   57) = (   0.1428571   0.1428571   0.0000000), wk =   0.0043732
        k(   58) = (   0.1428571   0.1428571   0.1428571), wk =   0.0087464
        k(   59) = (   0.1428571   0.1428571   0.2857143), wk =   0.0087464
        k(   60) = (   0.1428571   0.1428571   0.4285714), wk =   0.0087464
        k(   61) = (   0.1428571   0.2142857   0.0000000), wk =   0.0087464
        k(   62) = (   0.1428571   0.2142857   0.1428571), wk =   0.0174927
        k(   63) = (   0.1428571   0.2142857   0.2857143), wk =   0.0174927
        k(   64) = (   0.1428571   0.2142857   0.4285714), wk =   0.0174927
        k(   65) = (   0.1428571   0.2857143   0.0000000), wk =   0.0087464
        k(   66) = (   0.1428571   0.2857143   0.1428571), wk =   0.0174927
        k(   67) = (   0.1428571   0.2857143   0.2857143), wk =   0.0174927
        k(   68) = (   0.1428571   0.2857143   0.4285714), wk =   0.0174927
        k(   69) = (   0.1428571   0.3571429   0.0000000), wk =   0.0087464
        k(   70) = (   0.1428571   0.3571429   0.1428571), wk =   0.0174927
        k(   71) = (   0.1428571   0.3571429   0.2857143), wk =   0.0174927
        k(   72) = (   0.1428571   0.3571429   0.4285714), wk =   0.0174927
        k(   73) = (   0.1428571   0.4285714   0.0000000), wk =   0.0043732
        k(   74) = (   0.1428571   0.4285714   0.1428571), wk =   0.0087464
        k(   75) = (   0.1428571   0.4285714   0.2857143), wk =   0.0087464
        k(   76) = (   0.1428571   0.4285714   0.4285714), wk =   0.0087464
        k(   77) = (   0.2142857   0.2142857   0.0000000), wk =   0.0043732
        k(   78) = (   0.2142857   0.2142857   0.1428571), wk =   0.0087464
        k(   79) = (   0.2142857   0.2142857   0.2857143), wk =   0.0087464
        k(   80) = (   0.2142857   0.2142857   0.4285714), wk =   0.0087464
        k(   81) = (   0.2142857   0.2857143   0.0000000), wk =   0.0087464
        k(   82) = (   0.2142857   0.2857143   0.1428571), wk =   0.0174927
        k(   83) = (   0.2142857   0.2857143   0.2857143), wk =   0.0174927
        k(   84) = (   0.2142857   0.2857143   0.4285714), wk =   0.0174927
        k(   85) = (   0.2142857   0.3571429   0.0000000), wk =   0.0087464
        k(   86) = (   0.2142857   0.3571429   0.1428571), wk =   0.0174927
        k(   87) = (   0.2142857   0.3571429   0.2857143), wk =   0.0174927
        k(   88) = (   0.2142857   0.3571429   0.4285714), wk =   0.0174927
        k(   89) = (   0.2857143   0.2857143   0.0000000), wk =   0.0043732
        k(   90) = (   0.2857143   0.2857143   0.1428571), wk =   0.0087464
        k(   91) = (   0.2857143   0.2857143   0.2857143), wk =   0.0087464
        k(   92) = (   0.2857143   0.2857143   0.4285714), wk =   0.0087464
        k(   93) = (   0.2857143   0.3571429   0.0000000), wk =   0.0043732
        k(   94) = (   0.2857143   0.3571429   0.1428571), wk =   0.0087464
        k(   95) = (   0.2857143   0.3571429   0.2857143), wk =   0.0087464
        k(   96) = (   0.2857143   0.3571429   0.4285714), wk =   0.0087464

     Dense  grid:    15943 G-vectors     FFT dimensions: (  27,  27,  50)

     Dynamical RAM for                 wfc:       0.03 MB

     Dynamical RAM for     wfc (w. buffer):       3.34 MB

     Dynamical RAM for           str. fact:       0.02 MB

     Dynamical RAM for           local pot:       0.00 MB

     Dynamical RAM for          nlocal pot:       0.08 MB

     Dynamical RAM for                qrad:       1.34 MB

     Dynamical RAM for          rho,v,vnew:       0.24 MB

     Dynamical RAM for               rhoin:       0.08 MB

     Dynamical RAM for            rho*nmix:       0.56 MB

     Dynamical RAM for           G-vectors:       0.07 MB

     Dynamical RAM for          h,s,v(r/c):       0.05 MB

     Dynamical RAM for          <psi|beta>:       0.01 MB

     Dynamical RAM for                 psi:       0.07 MB

     Dynamical RAM for                hpsi:       0.07 MB

     Dynamical RAM for                spsi:       0.07 MB

     Dynamical RAM for      wfcinit/wfcrot:       0.07 MB

     Dynamical RAM for           addusdens:       1.66 MB

     Estimated static dynamical RAM per process >       5.34 MB

     Estimated max dynamical RAM per process >       7.56 MB

     Estimated total dynamical RAM >     203.84 MB

     Check: negative core charge=   -0.000003
     Generating pointlists ...
     new r_m :   0.4125 (alat units)  2.0831 (a.u.) for type    1

     The initial density is read from file :
     ./out/Zn.save/charge-density


     starting charge      23.6750, renormalised to      24.0000

     negative rho (up, down):  6.204E+00 6.204E+00
     Starting wfcs from file
     Checking if some PAW data can be deallocated... 

     total cpu time spent up to now is        0.5 secs

     Self-consistent Calculation

     iteration #  1     ecut=    70.00 Ry     beta= 0.70
     Davidson diagonalization with overlap

---- Real-time Memory Report at c_bands before calling an iterative solver
            59 MiB given to the printing process from OS
             0 MiB allocation reported by mallinfo(arena+hblkhd)
        149450 MiB available memory on the node where the printing process lives
------------------
     c_bands:  1 eigenvalues not converged
     c_bands:  1 eigenvalues not converged
     c_bands:  1 eigenvalues not converged
     c_bands:  1 eigenvalues not converged
     c_bands:  1 eigenvalues not converged
     c_bands:  1 eigenvalues not converged
     c_bands:  2 eigenvalues not converged
     c_bands:  2 eigenvalues not converged
     c_bands:  1 eigenvalues not converged
     c_bands:  1 eigenvalues not converged
     c_bands:  2 eigenvalues not converged
     c_bands:  2 eigenvalues not converged
     c_bands:  1 eigenvalues not converged
     c_bands:  1 eigenvalues not converged
     c_bands:  1 eigenvalues not converged
     c_bands:  1 eigenvalues not converged
     c_bands:  1 eigenvalues not converged
     c_bands:  1 eigenvalues not converged
     c_bands:  1 eigenvalues not converged
     c_bands:  1 eigenvalues not converged
     c_bands:  1 eigenvalues not converged
     c_bands:  1 eigenvalues not converged
     c_bands:  1 eigenvalues not converged
     c_bands:  1 eigenvalues not converged
     c_bands:  1 eigenvalues not converged
     c_bands:  1 eigenvalues not converged
     c_bands:  1 eigenvalues not converged
     c_bands:  1 eigenvalues not converged
     c_bands:  1 eigenvalues not converged
     c_bands:  1 eigenvalues not converged
     c_bands:  2 eigenvalues not converged
     c_bands:  1 eigenvalues not converged
     c_bands:  1 eigenvalues not converged
     c_bands:  1 eigenvalues not converged
     c_bands:  1 eigenvalues not converged
     c_bands:  1 eigenvalues not converged
     c_bands:  1 eigenvalues not converged
     c_bands:  1 eigenvalues not converged
     c_bands:  1 eigenvalues not converged
     ethr =  1.00E-05,  avg # of iterations = 19.1

     negative rho (up, down):  1.236E+00 1.236E+00

     total cpu time spent up to now is        4.7 secs

     total energy              =    -483.55755495 Ry
     estimated scf accuracy    <      33.79118431 Ry

     total magnetization       =    -0.00 Bohr mag/cell
     absolute magnetization    =     0.00 Bohr mag/cell

     iteration #  2     ecut=    70.00 Ry     beta= 0.70
     Davidson diagonalization with overlap

---- Real-time Memory Report at c_bands before calling an iterative solver
            78 MiB given to the printing process from OS
             0 MiB allocation reported by mallinfo(arena+hblkhd)
        149160 MiB available memory on the node where the printing process lives
------------------
     ethr =  1.00E-02,  avg # of iterations =  3.8

     negative rho (up, down):  2.733E-01 2.733E-01

     total cpu time spent up to now is        5.9 secs

     total energy              =    -478.48610153 Ry
     estimated scf accuracy    <      20.59388296 Ry

     total magnetization       =    -0.00 Bohr mag/cell
     absolute magnetization    =     0.00 Bohr mag/cell

     iteration #  3     ecut=    70.00 Ry     beta= 0.70
     Davidson diagonalization with overlap

---- Real-time Memory Report at c_bands before calling an iterative solver
            82 MiB given to the printing process from OS
             0 MiB allocation reported by mallinfo(arena+hblkhd)
        149134 MiB available memory on the node where the printing process lives
------------------
     ethr =  1.00E-02,  avg # of iterations =  4.2

     total cpu time spent up to now is        7.1 secs

     total energy              =    -487.15324330 Ry
     estimated scf accuracy    <       5.92704676 Ry

     total magnetization       =    -0.00 Bohr mag/cell
     absolute magnetization    =     0.00 Bohr mag/cell

     iteration #  4     ecut=    70.00 Ry     beta= 0.70
     Davidson diagonalization with overlap

---- Real-time Memory Report at c_bands before calling an iterative solver
            83 MiB given to the printing process from OS
             0 MiB allocation reported by mallinfo(arena+hblkhd)
        149124 MiB available memory on the node where the printing process lives
------------------
     ethr =  1.00E-02,  avg # of iterations =  2.0

     total cpu time spent up to now is        8.1 secs

     total energy              =    -487.22030016 Ry
     estimated scf accuracy    <       0.71032975 Ry

     total magnetization       =    -0.00 Bohr mag/cell
     absolute magnetization    =     0.00 Bohr mag/cell

     iteration #  5     ecut=    70.00 Ry     beta= 0.70
     Davidson diagonalization with overlap

---- Real-time Memory Report at c_bands before calling an iterative solver
            83 MiB given to the printing process from OS
             0 MiB allocation reported by mallinfo(arena+hblkhd)
        149115 MiB available memory on the node where the printing process lives
------------------
     ethr =  2.96E-03,  avg # of iterations =  2.0

     total cpu time spent up to now is        9.0 secs

     total energy              =    -487.44235371 Ry
     estimated scf accuracy    <       0.06568670 Ry

     total magnetization       =    -0.00 Bohr mag/cell
     absolute magnetization    =     0.00 Bohr mag/cell

     iteration #  6     ecut=    70.00 Ry     beta= 0.70
     Davidson diagonalization with overlap

---- Real-time Memory Report at c_bands before calling an iterative solver
            84 MiB given to the printing process from OS
             0 MiB allocation reported by mallinfo(arena+hblkhd)
        149110 MiB available memory on the node where the printing process lives
------------------
     ethr =  2.74E-04,  avg # of iterations =  3.2

     total cpu time spent up to now is        9.9 secs

     total energy              =    -487.44329885 Ry
     estimated scf accuracy    <       0.01121177 Ry

     total magnetization       =    -0.00 Bohr mag/cell
     absolute magnetization    =     0.00 Bohr mag/cell

     iteration #  7     ecut=    70.00 Ry     beta= 0.70
     Davidson diagonalization with overlap

---- Real-time Memory Report at c_bands before calling an iterative solver
            84 MiB given to the printing process from OS
             0 MiB allocation reported by mallinfo(arena+hblkhd)
        149104 MiB available memory on the node where the printing process lives
------------------
     c_bands:  1 eigenvalues not converged
     ethr =  4.67E-05,  avg # of iterations =  5.1

     total cpu time spent up to now is       11.0 secs

     total energy              =    -487.44674909 Ry
     estimated scf accuracy    <       0.00020766 Ry

     total magnetization       =    -0.00 Bohr mag/cell
     absolute magnetization    =     0.00 Bohr mag/cell

     iteration #  8     ecut=    70.00 Ry     beta= 0.70
     Davidson diagonalization with overlap

---- Real-time Memory Report at c_bands before calling an iterative solver
            84 MiB given to the printing process from OS
             0 MiB allocation reported by mallinfo(arena+hblkhd)
        149099 MiB available memory on the node where the printing process lives
------------------
     ethr =  8.65E-07,  avg # of iterations =  5.6

     total cpu time spent up to now is       12.3 secs

     total energy              =    -487.44685768 Ry
     estimated scf accuracy    <       0.00019662 Ry

     total magnetization       =    -0.00 Bohr mag/cell
     absolute magnetization    =     0.00 Bohr mag/cell

     iteration #  9     ecut=    70.00 Ry     beta= 0.70
     Davidson diagonalization with overlap

---- Real-time Memory Report at c_bands before calling an iterative solver
            84 MiB given to the printing process from OS
             0 MiB allocation reported by mallinfo(arena+hblkhd)
        149098 MiB available memory on the node where the printing process lives
------------------
     ethr =  8.19E-07,  avg # of iterations =  2.0
 
     Magnetic moment per site  (integrated on atomic sphere of radius R)
     atom   1 (R=0.413)  charge= 10.7232  magn= -0.0000
     atom   2 (R=0.413)  charge= 10.7232  magn= -0.0000

     total cpu time spent up to now is       13.1 secs

     End of self-consistent calculation

 ------ SPIN UP ------------


          k = 0.0000 0.0000 0.0000 (  2005 PWs)   bands (ev):

     0.8492   2.8391   3.5789   3.7817   3.7817   3.8427   3.8427   4.1336
     4.1336   4.3866   4.3866   7.8262   8.7905  26.2721  28.4448  28.4449

     occupation numbers 
     1.0000   1.0000   1.0000   1.0000   1.0000   1.0000   1.0000   1.0000
     1.0000   1.0000   1.0000   1.0000   1.0000   0.0000   0.0000   0.0000

          k = 0.0000 0.0000 0.0794 (  1986 PWs)   bands (ev):

     0.9820   2.8274   3.5775   3.7782   3.7782   3.8351   3.8351   4.1526
     4.1526   4.3787   4.3787   6.4561  10.4449  24.1531  28.5769  28.5770

     occupation numbers 
     1.0000   1.0000   1.0000   1.0000   1.0000   1.0000   1.0000   1.0000
     1.0000   1.0000   1.0000   1.0000   1.0000   0.0000   0.0000   0.0000

          k = 0.0000 0.0000 0.1587 (  2004 PWs)   bands (ev):

     1.3677   2.7599   3.5880   3.7741   3.7741   3.8160   3.8160   4.2005
     4.2005   4.3544   4.3544   5.0303  12.7520  21.0894  28.9590  28.9591

     occupation numbers 
     1.0000   1.0000   1.0000   1.0000   1.0000   1.0000   1.0000   1.0000
     1.0000   1.0000   1.0000   1.0000   0.0000   0.0000   0.0000   0.0000

          k = 0.0000 0.0000 0.2381 (  1992 PWs)   bands (ev):

     1.9448   2.5002   3.6774   3.7786   3.7786   3.7942   3.7942   4.0656
     4.2591   4.2591   4.3134   4.3134  15.3182  18.1093  29.5286  29.5286

     occupation numbers 
     1.0000   1.0000   1.0000   1.0000   1.0000   1.0000   1.0000   1.0000
     1.0000   1.0000   1.0000   1.0000   0.0000   0.0000   0.0000   0.0000

          k = 0.0000 0.0825 0.0000 (  1983 PWs)   bands (ev):

     0.9990   2.9020   3.5903   3.7704   3.8171   3.8274   3.8760   4.1017
     4.1185   4.2999   4.3895   8.0706   8.8696  26.0175  26.4297  27.1859

     occupation numbers 
     1.0000   1.0000   1.0000   1.0000   1.0000   1.0000   1.0000   1.0000
     1.0000   1.0000   1.0000   1.0000   1.0000   0.0000   0.0000   0.0000

          k = 0.0000 0.0825 0.0794 (  1990 PWs)   bands (ev):

     1.1309   2.8944   3.5888   3.7632   3.8129   3.8178   3.8681   4.1261
     4.1393   4.2835   4.3808   6.6484  10.5815  24.2815  26.1699  27.3251

     occupation numbers 
     1.0000   1.0000   1.0000   1.0000   1.0000   1.0000   1.0000   1.0000
     1.0000   1.0000   1.0000   1.0000   1.0000   0.0000   0.0000   0.0000

          k = 0.0000 0.0825 0.1587 (  2003 PWs)   bands (ev):

     1.5133   2.8418   3.5941   3.7541   3.7937   3.8075   3.8487   4.1765
     4.1905   4.2258   4.3543   5.2519  12.8924  21.2230  26.5615  27.7381

     occupation numbers 
     1.0000   1.0000   1.0000   1.0000   1.0000   1.0000   1.0000   1.0000
     1.0000   1.0000   1.0000   1.0000   0.0000   0.0000   0.0000   0.0000

          k = 0.0000 0.0825 0.2381 (  1994 PWs)   bands (ev):

     2.0815   2.6124   3.6562   3.7596   3.7659   3.8113   3.8267   3.9527
     4.2526   4.2871   4.3103   4.4772  15.4575  18.2462  27.2092  28.1004

     occupation numbers 
     1.0000   1.0000   1.0000   1.0000   1.0000   1.0000   1.0000   1.0000
     1.0000   1.0000   1.0000   1.0000   0.0000   0.0000   0.0000   0.0000

          k = 0.0000 0.1650 0.0000 (  1973 PWs)   bands (ev):

     1.4387   3.0615   3.6024   3.7488   3.8199   3.9178   3.9702   3.9724
     4.0789   4.1451   4.3950   8.7353   9.1235  22.6740  25.5344  26.8254

     occupation numbers 
     1.0000   1.0000   1.0000   1.0000   1.0000   1.0000   1.0000   1.0000
     1.0000   1.0000   1.0000   1.0000   1.0000   0.0000   0.0000   0.0000

          k = 0.0000 0.1650 0.0794 (  1993 PWs)   bands (ev):

     1.5665   3.0641   3.6050   3.7311   3.7924   3.9096   3.9611   3.9965
     4.1064   4.1469   4.3844   7.1486  10.9986  22.7921  24.7059  25.6822

     occupation numbers 
     1.0000   1.0000   1.0000   1.0000   1.0000   1.0000   1.0000   1.0000
     1.0000   1.0000   1.0000   1.0000   1.0000   0.0000   0.0000   0.0000

          k = 0.0000 0.1650 0.1587 (  1993 PWs)   bands (ev):

     1.9339   3.0497   3.6062   3.7017   3.7435   3.8996   3.9405   3.9692
     4.1675   4.2066   4.3529   5.7294  13.3135  21.5887  23.2676  25.9795

     occupation numbers 
     1.0000   1.0000   1.0000   1.0000   1.0000   1.0000   1.0000   1.0000
     1.0000   1.0000   1.0000   1.0000   0.0000   0.0000   0.0000   0.0000

          k = 0.0000 0.1650 0.2381 (  1995 PWs)   bands (ev):

     2.4631   2.9058   3.6068   3.6593   3.7389   3.8383   3.9021   3.9179
     4.2375   4.3023   4.3768   4.7914  15.8718  18.6482  23.9062  24.8209

     occupation numbers 
     1.0000   1.0000   1.0000   1.0000   1.0000   1.0000   1.0000   1.0000
     1.0000   1.0000   1.0000   1.0000   0.0000   0.0000   0.0000   0.0000

          k = 0.0000 0.2474 0.0000 (  1976 PWs)   bands (ev):

     2.1179   3.2089   3.6268   3.7149   3.7480   3.9372   4.0263   4.0367
     4.0671   4.1095   4.3985   9.5982   9.7113  19.4610  24.0724  25.4773

     occupation numbers 
     1.0000   1.0000   1.0000   1.0000   1.0000   1.0000   1.0000   1.0000
     1.0000   1.0000   1.0000   1.0000   1.0000   0.0000   0.0000   0.0000

          k = 0.0000 0.2474 0.0794 (  1986 PWs)   bands (ev):

     2.2298   3.2206   3.6271   3.6828   3.7407   3.9272   4.0139   4.0872
     4.0872   4.1131   4.3862   7.8758  11.7069  19.5916  24.2078  24.2266

     occupation numbers 
     1.0000   1.0000   1.0000   1.0000   1.0000   1.0000   1.0000   1.0000
     1.0000   1.0000   1.0000   1.0000   0.0000   0.0000   0.0000   0.0000

          k = 0.0000 0.2474 0.1587 (  1989 PWs)   bands (ev):

     2.5370   3.2412   3.6055   3.6088   3.7451   3.9002   4.0093   4.0732
     4.1648   4.2412   4.3507   6.4007  14.0102  19.9604  22.3260  22.8233

     occupation numbers 
     1.0000   1.0000   1.0000   1.0000   1.0000   1.0000   1.0000   1.0000
     1.0000   1.0000   1.0000   1.0000   0.0000   0.0000   0.0000   0.0000

          k = 0.0000 0.2474 0.2381 (  1993 PWs)   bands (ev):

     2.9267   3.1902   3.5403   3.5592   3.7900   3.8515   4.0217   4.0461
     4.2316   4.2967   4.5819   5.2812  16.5432  19.2283  20.8059  21.6611

     occupation numbers 
     1.0000   1.0000   1.0000   1.0000   1.0000   1.0000   1.0000   1.0000
     1.0000   1.0000   1.0000   1.0000   0.0000   0.0000   0.0000   0.0000

          k = 0.0000 0.3299 0.0000 (  1978 PWs)   bands (ev):

     2.8063   3.2134   3.5358   3.7240   3.8150   3.9433   3.9719   4.2381
     4.2690   4.2870   4.3985  10.3478  10.9307  16.4723  22.5424  23.2945

     occupation numbers 
     1.0000   1.0000   1.0000   1.0000   1.0000   1.0000   1.0000   1.0000
     1.0000   1.0000   1.0000   1.0000   1.0000   0.0000   0.0000   0.0000

          k = 0.0000 0.3299 0.0794 (  1980 PWs)   bands (ev):

     2.8548   3.2256   3.5371   3.6710   3.7863   3.9870   4.0897   4.2417
     4.2593   4.2972   4.3878   8.8315  12.6996  16.6052  21.2759  23.0312

     occupation numbers 
     1.0000   1.0000   1.0000   1.0000   1.0000   1.0000   1.0000   1.0000
     1.0000   1.0000   1.0000   1.0000   0.0000   0.0000   0.0000   0.0000

          k = 0.0000 0.3299 0.1587 (  1972 PWs)   bands (ev):

     2.9725   3.2475   3.5109   3.5521   3.8784   4.0294   4.1631   4.2154
     4.2665   4.3605   4.5463   7.3250  14.9542  16.9977  19.9030  23.0468

     occupation numbers 
     1.0000   1.0000   1.0000   1.0000   1.0000   1.0000   1.0000   1.0000
     1.0000   1.0000   1.0000   1.0000   0.0000   0.0000   0.0000   0.0000

          k = 0.0000 0.3299 0.2381 (  1981 PWs)   bands (ev):

     3.1085   3.2193   3.4666   3.4932   3.9973   4.0907   4.0988   4.1579
     4.2934   4.3265   5.1632   6.0948  17.3003  17.6062  18.8911  20.3596

     occupation numbers 
     1.0000   1.0000   1.0000   1.0000   1.0000   1.0000   1.0000   1.0000
     1.0000   1.0000   1.0000   1.0000   0.0000   0.0000   0.0000   0.0000

          k = 0.0000 0.4124 0.0000 (  1996 PWs)   bands (ev):

     3.0571   3.1563   3.3772   3.8225   3.8638   3.9254   4.0478   4.3957
     4.3961   4.4192   5.2641  11.3467  12.3534  13.8132  19.8091  20.7643

     occupation numbers 
     1.0000   1.0000   1.0000   1.0000   1.0000   1.0000   1.0000   1.0000
     1.0000   1.0000   1.0000   1.0000   0.0000   0.0000   0.0000   0.0000

          k = 0.0000 0.4124 0.0794 (  1980 PWs)   bands (ev):

     3.0474   3.1535   3.4102   3.6852   3.8955   3.9458   4.1885   4.3578
     4.3986   4.4317   5.3508  10.0220  13.7238  14.1128  18.6236  22.1089

     occupation numbers 
     1.0000   1.0000   1.0000   1.0000   1.0000   1.0000   1.0000   1.0000
     1.0000   1.0000   1.0000   1.0000   0.0000   0.0000   0.0000   0.0000

          k = 0.0000 0.4124 0.1587 (  1987 PWs)   bands (ev):

     3.0452   3.1628   3.4313   3.5090   4.0036   4.0210   4.2832   4.3075
     4.4066   4.4349   5.6795   8.5355  14.2759  15.8651  17.5432  22.6202

     occupation numbers 
     1.0000   1.0000   1.0000   1.0000   1.0000   1.0000   1.0000   1.0000
     1.0000   1.0000   1.0000   1.0000   0.0000   0.0000   0.0000   0.0000

          k = 0.0000 0.4124 0.2381 (  1979 PWs)   bands (ev):

     3.0839   3.1442   3.4086   3.4225   4.0893   4.1768   4.1883   4.2916
     4.4175   4.4284   6.3303   7.2928  14.9212  15.7511  18.9286  21.3851

     occupation numbers 
     1.0000   1.0000   1.0000   1.0000   1.0000   1.0000   1.0000   1.0000
     1.0000   1.0000   1.0000   1.0000   0.0000   0.0000   0.0000   0.0000

          k = 0.0000 0.4949 0.0000 (  1992 PWs)   bands (ev):

     3.0465   3.1283   3.2816   3.8098   3.8943   3.8989   4.1895   4.3935
     4.5050   4.5291   6.8162  10.9091  13.1860  13.9079  17.3821  18.5397

     occupation numbers 
     1.0000   1.0000   1.0000   1.0000   1.0000   1.0000   1.0000   1.0000
     1.0000   1.0000   1.0000   1.0000   0.0000   0.0000   0.0000   0.0000

          k = 0.0000 0.4949 0.0794 (  1981 PWs)   bands (ev):

     3.0474   3.0863   3.3355   3.6752   3.9170   3.9549   4.2904   4.3650
     4.5071   4.5296   6.9223  10.7259  12.2239  14.9776  16.7134  19.8482

     occupation numbers 
     1.0000   1.0000   1.0000   1.0000   1.0000   1.0000   1.0000   1.0000
     1.0000   1.0000   1.0000   1.0000   0.0000   0.0000   0.0000   0.0000

          k = 0.0000 0.4949 0.1587 (  1985 PWs)   bands (ev):

     3.0218   3.0897   3.3741   3.4845   3.9814   4.0960   4.2896   4.3976
     4.5121   4.5286   7.2635   9.8354  12.0614  14.4222  18.0570  21.6667

     occupation numbers 
     1.0000   1.0000   1.0000   1.0000   1.0000   1.0000   1.0000   1.0000
     1.0000   1.0000   1.0000   1.0000   0.0000   0.0000   0.0000   0.0000

          k = 0.0000 0.4949 0.2381 (  1985 PWs)   bands (ev):

     3.0371   3.0814   3.3650   3.3755   4.0768   4.1864   4.2693   4.3896
     4.5183   4.5244   7.8753   8.7567  12.5656  13.3902  20.2758  22.2175

     occupation numbers 
     1.0000   1.0000   1.0000   1.0000   1.0000   1.0000   1.0000   1.0000
     1.0000   1.0000   1.0000   1.0000   0.0000   0.0000   0.0000   0.0000

          k = 0.0000-0.5774 0.0000 (  1978 PWs)   bands (ev):

     3.0282   3.1182   3.2499   3.7906   3.8834   3.9264   4.2352   4.3924
     4.5438   4.5697   8.4191   9.1085  14.3118  14.9878  15.8180  17.2362

     occupation numbers 
     1.0000   1.0000   1.0000   1.0000   1.0000   1.0000   1.0000   1.0000
     1.0000   1.0000   1.0000   1.0000   0.0000   0.0000   0.0000   0.0000

          k = 0.0000-0.5774 0.0794 (  1988 PWs)   bands (ev):

     3.0395   3.0580   3.3108   3.6675   3.9068   3.9759   4.3280   4.3647
     4.5459   4.5686   8.5327   9.1689  13.5771  13.7106  17.3799  18.1996

     occupation numbers 
     1.0000   1.0000   1.0000   1.0000   1.0000   1.0000   1.0000   1.0000
     1.0000   1.0000   1.0000   1.0000   0.0000   0.0000   0.0000   0.0000

          k = 0.0000-0.5774 0.1587 (  1982 PWs)   bands (ev):

     3.0083   3.0622   3.3536   3.4755   3.9732   4.1189   4.2892   4.4301
     4.5504   4.5656   8.8586   9.3347  12.4276  12.4374  19.4939  20.0276

     occupation numbers 
     1.0000   1.0000   1.0000   1.0000   1.0000   1.0000   1.0000   1.0000
     1.0000   1.0000   1.0000   1.0000   0.0000   0.0000   0.0000   0.0000

          k = 0.0000-0.5774 0.2381 (  2004 PWs)   bands (ev):

     3.0180   3.0582   3.3479   3.3605   4.0714   4.1840   4.2971   4.4208
     4.5558   4.5610   9.2915   9.4853  11.6126  11.6262  21.5548  21.8169

     occupation numbers 
     1.0000   1.0000   1.0000   1.0000   1.0000   1.0000   1.0000   1.0000
     1.0000   1.0000   1.0000   1.0000   0.0000   0.0000   0.0000   0.0000

          k = 0.0714 0.1237 0.0000 (  1979 PWs)   bands (ev):

     1.2943   3.0151   3.6003   3.7603   3.7969   3.8897   3.9474   4.0456
     4.0547   4.1966   4.3905   8.5229   9.0363  24.3054  24.5033  26.7188

     occupation numbers 
     1.0000   1.0000   1.0000   1.0000   1.0000   1.0000   1.0000   1.0000
     1.0000   1.0000   1.0000   1.0000   1.0000   0.0000   0.0000   0.0000

          k = 0.0714 0.1237 0.0794 (  1989 PWs)   bands (ev):

     1.4237   3.0148   3.6017   3.7415   3.7829   3.8828   3.9381   4.0561
     4.0926   4.1880   4.3811   6.9910  10.8587  24.3516  24.4425  24.8705

     occupation numbers 
     1.0000   1.0000   1.0000   1.0000   1.0000   1.0000   1.0000   1.0000
     1.0000   1.0000   1.0000   1.0000   1.0000   0.0000   0.0000   0.0000

          k = 0.0714 0.1237 0.1587 (  1989 PWs)   bands (ev):

     1.7973   2.9890   3.6037   3.7165   3.7462   3.8737   3.9178   4.0213
     4.1858   4.1957   4.3532   5.5844  13.1734  21.4798  24.8512  25.0846

     occupation numbers 
     1.0000   1.0000   1.0000   1.0000   1.0000   1.0000   1.0000   1.0000
     1.0000   1.0000   1.0000   1.0000   0.0000   0.0000   0.0000   0.0000

          k = 0.0714 0.1237 0.2381 (  1998 PWs)   bands (ev):

     2.3426   2.8180   3.6214   3.6904   3.7335   3.8433   3.8906   3.8963
     4.2460   4.2962   4.3505   4.6959  15.7346  18.5164  25.5243  25.7299

     occupation numbers 
     1.0000   1.0000   1.0000   1.0000   1.0000   1.0000   1.0000   1.0000
     1.0000   1.0000   1.0000   1.0000   0.0000   0.0000   0.0000   0.0000

          k = 0.0714 0.2062 0.0000 (  1978 PWs)   bands (ev):

     1.8602   3.1858   3.5873   3.7356   3.8194   3.8464   3.9886   4.0247
     4.0902   4.1202   4.3897   9.3359   9.4028  21.1260  22.9722  26.8901

     occupation numbers 
     1.0000   1.0000   1.0000   1.0000   1.0000   1.0000   1.0000   1.0000
     1.0000   1.0000   1.0000   1.0000   1.0000   0.0000   0.0000   0.0000

          k = 0.0714 0.2062 0.0794 (  1987 PWs)   bands (ev):

     1.9811   3.1961   3.5955   3.7065   3.7602   3.8738   4.0024   4.0433
     4.0840   4.1438   4.3803   7.5953  11.4235  21.2551  23.0968  25.0782

     occupation numbers 
     1.0000   1.0000   1.0000   1.0000   1.0000   1.0000   1.0000   1.0000
     1.0000   1.0000   1.0000   1.0000   0.8400   0.0000   0.0000   0.0000

          k = 0.0714 0.2062 0.1587 (  1986 PWs)   bands (ev):

     2.3224   3.2107   3.6127   3.6401   3.6883   3.8563   3.9837   4.0540
     4.1737   4.2085   4.3564   6.1411  13.7338  21.5030  22.1681  23.5806

     occupation numbers 
     1.0000   1.0000   1.0000   1.0000   1.0000   1.0000   1.0000   1.0000
     1.0000   1.0000   1.0000   1.0000   0.0000   0.0000   0.0000   0.0000

          k = 0.0714 0.2062 0.2381 (  1999 PWs)   bands (ev):

     2.7889   3.1349   3.5706   3.5805   3.6993   3.7775   3.9972   4.0248
     4.2408   4.2911   4.4962   5.0851  16.2807  19.0332  22.3867  23.3001

     occupation numbers 
     1.0000   1.0000   1.0000   1.0000   1.0000   1.0000   1.0000   1.0000
     1.0000   1.0000   1.0000   1.0000   0.0000   0.0000   0.0000   0.0000

          k = 0.0714 0.2887 0.0000 (  1975 PWs)   bands (ev):

     2.5876   3.2707   3.6280   3.6422   3.7140   3.9202   3.9691   4.0467
     4.1924   4.3210   4.3875  10.0232  10.4258  18.0279  21.7601  24.0864

     occupation numbers 
     1.0000   1.0000   1.0000   1.0000   1.0000   1.0000   1.0000   1.0000
     1.0000   1.0000   1.0000   1.0000   1.0000   0.0000   0.0000   0.0000

          k = 0.0714 0.2887 0.0794 (  1977 PWs)   bands (ev):

     2.6725   3.2857   3.5971   3.6655   3.6779   3.9360   4.0105   4.0572
     4.2121   4.2963   4.3989   8.4315  12.2798  18.1609  21.8978  22.8071

     occupation numbers 
     1.0000   1.0000   1.0000   1.0000   1.0000   1.0000   1.0000   1.0000
     1.0000   1.0000   1.0000   1.0000   0.0000   0.0000   0.0000   0.0000

          k = 0.0714 0.2887 0.1587 (  1978 PWs)   bands (ev):

     2.8877   3.3191   3.5295   3.6023   3.7329   3.9093   4.0347   4.2036
     4.2156   4.2960   4.4667   6.9359  14.5625  18.5498  21.4205  22.2212

     occupation numbers 
     1.0000   1.0000   1.0000   1.0000   1.0000   1.0000   1.0000   1.0000
     1.0000   1.0000   1.0000   1.0000   0.0000   0.0000   0.0000   0.0000

          k = 0.0714 0.2887 0.2381 (  1982 PWs)   bands (ev):

     3.1265   3.2920   3.4903   3.5406   3.7990   3.8604   4.0760   4.1430
     4.2853   4.3169   4.8995   5.7447  17.0541  19.0218  20.1016  20.2778

     occupation numbers 
     1.0000   1.0000   1.0000   1.0000   1.0000   1.0000   1.0000   1.0000
     1.0000   1.0000   1.0000   1.0000   0.0000   0.0000   0.0000   0.0000

          k = 0.0714 0.3712 0.0000 (  1984 PWs)   bands (ev):

     3.0650   3.2230   3.4501   3.7781   3.8599   3.8697   3.9720   4.2115
     4.3536   4.3835   4.8811  10.9346  11.7431  15.1802  20.8099  21.2431

     occupation numbers 
     1.0000   1.0000   1.0000   1.0000   1.0000   1.0000   1.0000   1.0000
     1.0000   1.0000   1.0000   1.0000   0.0000   0.0000   0.0000   0.0000

          k = 0.0714 0.3712 0.0794 (  1992 PWs)   bands (ev):

     3.0675   3.2330   3.4742   3.6628   3.8202   3.9707   4.0900   4.2034
     4.3472   4.3729   4.9430   9.5165  13.3997  15.3143  20.0040  20.9541

     occupation numbers 
     1.0000   1.0000   1.0000   1.0000   1.0000   1.0000   1.0000   1.0000
     1.0000   1.0000   1.0000   1.0000   0.0000   0.0000   0.0000   0.0000

          k = 0.0714 0.3712 0.1587 (  1982 PWs)   bands (ev):

     3.0922   3.2538   3.4749   3.5293   3.8976   4.0172   4.1657   4.2683
     4.2896   4.3948   5.2142   8.0163  15.5475  15.7434  18.6776  21.3706

     occupation numbers 
     1.0000   1.0000   1.0000   1.0000   1.0000   1.0000   1.0000   1.0000
     1.0000   1.0000   1.0000   1.0000   0.0000   0.0000   0.0000   0.0000

          k = 0.0714 0.3712 0.2381 (  1979 PWs)   bands (ev):

     3.1532   3.2302   3.4405   3.4741   4.0145   4.0722   4.1216   4.1715
     4.3736   4.4049   5.8282   6.7762  16.3377  17.0218  18.5474  20.9010

     occupation numbers 
     1.0000   1.0000   1.0000   1.0000   1.0000   1.0000   1.0000   1.0000
     1.0000   1.0000   1.0000   1.0000   0.0000   0.0000   0.0000   0.0000

          k = 0.0714 0.4536 0.0000 (  1988 PWs)   bands (ev):

     3.1093   3.1844   3.3294   3.8165   3.8699   3.9095   4.0780   4.3792
     4.4017   4.4726   6.1428  11.7596  13.0137  13.2443  18.6500  19.6959

     occupation numbers 
     1.0000   1.0000   1.0000   1.0000   1.0000   1.0000   1.0000   1.0000
     1.0000   1.0000   1.0000   0.0000   0.0000   0.0000   0.0000   0.0000

          k = 0.0714 0.4536 0.0794 (  1982 PWs)   bands (ev):

     3.1018   3.1554   3.3849   3.6729   3.8866   3.9581   4.2003   4.3474
     4.4006   4.4779   6.2454  10.7592  12.8108  14.7220  17.5677  20.2993

     occupation numbers 
     1.0000   1.0000   1.0000   1.0000   1.0000   1.0000   1.0000   1.0000
     1.0000   1.0000   1.0000   1.0000   0.0000   0.0000   0.0000   0.0000

          k = 0.0714 0.4536 0.1587 (  1986 PWs)   bands (ev):

     3.0785   3.1651   3.4232   3.4950   3.9403   4.0770   4.2691   4.3241
     4.3977   4.4881   6.5862   9.3529  13.1580  15.5469  17.5336  20.7339

     occupation numbers 
     1.0000   1.0000   1.0000   1.0000   1.0000   1.0000   1.0000   1.0000
     1.0000   1.0000   1.0000   1.0000   0.0000   0.0000   0.0000   0.0000

          k = 0.0714 0.4536 0.2381 (  1986 PWs)   bands (ev):

     3.1004   3.1530   3.3983   3.4122   4.0436   4.1601   4.2093   4.3035
     4.4450   4.4817   7.2173   8.1483  13.7844  14.6444  19.6548  21.3630

     occupation numbers 
     1.0000   1.0000   1.0000   1.0000   1.0000   1.0000   1.0000   1.0000
     1.0000   1.0000   1.0000   1.0000   0.0000   0.0000   0.0000   0.0000

          k = 0.0714 0.5361 0.0000 (  1981 PWs)   bands (ev):

     3.0736   3.1673   3.2691   3.7948   3.8730   3.9223   4.1817   4.3764
     4.5014   4.5281   7.8541   9.9934  13.9801  14.7522  16.4567  17.7394

     occupation numbers 
     1.0000   1.0000   1.0000   1.0000   1.0000   1.0000   1.0000   1.0000
     1.0000   1.0000   1.0000   1.0000   0.0000   0.0000   0.0000   0.0000

          k = 0.0714 0.5361 0.0794 (  1982 PWs)   bands (ev):

     3.0829   3.1040   3.3400   3.6704   3.8718   3.9900   4.2801   4.3471
     4.4989   4.5279   7.9631  10.0390  12.8902  14.6348  16.9999  18.9331

     occupation numbers 
     1.0000   1.0000   1.0000   1.0000   1.0000   1.0000   1.0000   1.0000
     1.0000   1.0000   1.0000   1.0000   0.0000   0.0000   0.0000   0.0000

          k = 0.0714 0.5361 0.1587 (  1987 PWs)   bands (ev):

     3.0504   3.1124   3.3866   3.4834   3.9259   4.1317   4.2670   4.3991
     4.4873   4.5248   8.2966  10.0338  11.8669  13.4855  18.9356  20.4042

     occupation numbers 
     1.0000   1.0000   1.0000   1.0000   1.0000   1.0000   1.0000   1.0000
     1.0000   1.0000   1.0000   1.0000   0.0000   0.0000   0.0000   0.0000

          k = 0.0714 0.5361 0.2381 (  1993 PWs)   bands (ev):

     3.0631   3.1079   3.3746   3.3780   4.0315   4.1541   4.2941   4.4091
     4.4878   4.5114   8.8533   9.5553  11.7877  12.4549  21.0270  21.1382

     occupation numbers 
     1.0000   1.0000   1.0000   1.0000   1.0000   1.0000   1.0000   1.0000
     1.0000   1.0000   1.0000   1.0000   0.0000   0.0000   0.0000   0.0000

          k = 0.1429 0.2474 0.0000 (  1977 PWs)   bands (ev):

     2.5019   3.3386   3.5295   3.6763   3.7275   3.8486   3.8925   4.0876
     4.1869   4.3381   4.3746   9.9206  10.2540  19.6805  19.9762  25.8586

     occupation numbers 
     1.0000   1.0000   1.0000   1.0000   1.0000   1.0000   1.0000   1.0000
     1.0000   1.0000   1.0000   1.0000   1.0000   0.0000   0.0000   0.0000

          k = 0.1429 0.2474 0.0794 (  1983 PWs)   bands (ev):

     2.5995   3.3565   3.5396   3.6298   3.7529   3.7653   4.0109   4.0575
     4.2190   4.2925   4.4065   8.3003  12.1407  19.8201  20.1028  24.4429

     occupation numbers 
     1.0000   1.0000   1.0000   1.0000   1.0000   1.0000   1.0000   1.0000
     1.0000   1.0000   1.0000   1.0000   0.0000   0.0000   0.0000   0.0000

          k = 0.1429 0.2474 0.1587 (  1991 PWs)   bands (ev):

     2.8570   3.4054   3.5421   3.5714   3.6731   3.7552   4.0341   4.1967
     4.2252   4.2672   4.4810   6.8123  14.4310  20.2361  20.4405  22.7678

     occupation numbers 
     1.0000   1.0000   1.0000   1.0000   1.0000   1.0000   1.0000   1.0000
     1.0000   1.0000   1.0000   1.0000   0.0000   0.0000   0.0000   0.0000

          k = 0.1429 0.2474 0.2381 (  1986 PWs)   bands (ev):

     3.1624   3.3885   3.4940   3.5780   3.6303   3.7019   4.0669   4.1369
     4.3037   4.3097   4.8457   5.6434  16.9458  19.5816  20.9210  21.3981

     occupation numbers 
     1.0000   1.0000   1.0000   1.0000   1.0000   1.0000   1.0000   1.0000
     1.0000   1.0000   1.0000   1.0000   0.0000   0.0000   0.0000   0.0000

          k = 0.1429 0.3299 0.0000 (  1980 PWs)   bands (ev):

     3.1278   3.3609   3.5144   3.5898   3.7518   3.8241   3.9681   4.0252
     4.3463   4.3589   4.8282  10.7283  11.4329  16.8474  18.7934  22.9302

     occupation numbers 
     1.0000   1.0000   1.0000   1.0000   1.0000   1.0000   1.0000   1.0000
     1.0000   1.0000   1.0000   1.0000   0.0618   0.0000   0.0000   0.0000

          k = 0.1429 0.3299 0.0794 (  1987 PWs)   bands (ev):

     3.1515   3.3772   3.4996   3.5959   3.7120   3.8774   4.0065   4.0397
     4.3257   4.3640   4.8801   9.2688  13.1429  16.9828  18.9298  21.6521

     occupation numbers 
     1.0000   1.0000   1.0000   1.0000   1.0000   1.0000   1.0000   1.0000
     1.0000   1.0000   1.0000   1.0000   0.0000   0.0000   0.0000   0.0000

          k = 0.1429 0.3299 0.1587 (  1981 PWs)   bands (ev):

     3.2090   3.4265   3.4385   3.6222   3.6946   3.8620   4.0099   4.2292
     4.2469   4.3958   5.0975   7.7723  15.3814  17.3831  19.3286  20.2719

     occupation numbers 
     1.0000   1.0000   1.0000   1.0000   1.0000   1.0000   1.0000   1.0000
     1.0000   1.0000   1.0000   1.0000   0.0000   0.0000   0.0000   0.0000

          k = 0.1429 0.3299 0.2381 (  1981 PWs)   bands (ev):

     3.2815   3.3605   3.5003   3.5772   3.7470   3.8103   4.0556   4.1435
     4.3714   4.4102   5.6414   6.5502  17.7230  18.0104  19.2151  19.8494

     occupation numbers 
     1.0000   1.0000   1.0000   1.0000   1.0000   1.0000   1.0000   1.0000
     1.0000   1.0000   1.0000   1.0000   0.0000   0.0000   0.0000   0.0000

          k = 0.1429 0.4124 0.0000 (  1989 PWs)   bands (ev):

     3.2681   3.3130   3.3920   3.7850   3.8238   3.8623   3.9473   4.1581
     4.3460   4.4553   5.8356  11.8101  12.8323  14.1806  18.0135  20.2121

     occupation numbers 
     1.0000   1.0000   1.0000   1.0000   1.0000   1.0000   1.0000   1.0000
     1.0000   1.0000   1.0000   0.0000   0.0000   0.0000   0.0000   0.0000

          k = 0.1429 0.4124 0.0794 (  1985 PWs)   bands (ev):

     3.2450   3.2968   3.4602   3.6345   3.8130   3.9581   4.0479   4.1543
     4.3146   4.4660   5.9320  10.4992  14.1736  14.5022  18.1534  19.0061

     occupation numbers 
     1.0000   1.0000   1.0000   1.0000   1.0000   1.0000   1.0000   1.0000
     1.0000   1.0000   1.0000   1.0000   0.0000   0.0000   0.0000   0.0000

          k = 0.1429 0.4124 0.1587 (  1989 PWs)   bands (ev):

     3.2125   3.3269   3.4594   3.5477   3.8339   3.9983   4.1112   4.2256
     4.2734   4.4835   6.2573   9.0277  14.6723  16.3315  17.8788  18.5669

     occupation numbers 
     1.0000   1.0000   1.0000   1.0000   1.0000   1.0000   1.0000   1.0000
     1.0000   1.0000   1.0000   1.0000   0.0000   0.0000   0.0000   0.0000

          k = 0.1429 0.4124 0.2381 (  1974 PWs)   bands (ev):

     3.2323   3.2963   3.4474   3.5073   3.9299   4.0205   4.0811   4.1293
     4.4102   4.4756   6.8758   7.8066  15.3265  16.1786  19.1592  19.2207

     occupation numbers 
     1.0000   1.0000   1.0000   1.0000   1.0000   1.0000   1.0000   1.0000
     1.0000   1.0000   1.0000   1.0000   0.0000   0.0000   0.0000   0.0000

          k = 0.1429 0.4949 0.0000 (  1974 PWs)   bands (ev):

     3.2037   3.3006   3.3181   3.7787   3.8726   3.9099   4.0196   4.3362
     4.3374   4.4913   7.3590  11.4090  13.5783  14.3852  17.5306  17.7828

     occupation numbers 
     1.0000   1.0000   1.0000   1.0000   1.0000   1.0000   1.0000   1.0000
     1.0000   1.0000   1.0000   1.0044   0.0000   0.0000   0.0000   0.0000

          k = 0.1429 0.4949 0.0794 (  1980 PWs)   bands (ev):

     3.2046   3.2255   3.4233   3.6591   3.8223   3.9872   4.1352   4.3051
     4.3302   4.4962   7.4721  11.2851  12.5689  15.4751  17.0532  17.6780

     occupation numbers 
     1.0000   1.0000   1.0000   1.0000   1.0000   1.0000   1.0000   1.0000
     1.0000   1.0000   1.0000   1.0000   0.0000   0.0000   0.0000   0.0000

          k = 0.1429 0.4949 0.1587 (  1992 PWs)   bands (ev):

     3.1646   3.2529   3.4768   3.5001   3.8332   4.0967   4.2087   4.2783
     4.3220   4.5007   7.8246  10.4112  12.4057  14.8636  18.0980  18.4071

     occupation numbers 
     1.0000   1.0000   1.0000   1.0000   1.0000   1.0000   1.0000   1.0000
     1.0000   1.0000   1.0000   1.0000   0.0000   0.0000   0.0000   0.0000

          k = 0.1429 0.4949 0.2381 (  1991 PWs)   bands (ev):

     3.1827   3.2430   3.4202   3.4591   3.9391   4.0768   4.1987   4.2618
     4.4096   4.4781   8.4401   9.3221  12.9463  13.7994  18.7761  19.6053

     occupation numbers 
     1.0000   1.0000   1.0000   1.0000   1.0000   1.0000   1.0000   1.0000
     1.0000   1.0000   1.0000   1.0000   0.0000   0.0000   0.0000   0.0000

          k = 0.1429 0.5774 0.0000 (  1982 PWs)   bands (ev):

     3.1794   3.2891   3.2936   3.7944   3.8279   3.9371   4.0747   4.3343
     4.4385   4.4613   9.0311   9.5039  14.8098  15.5025  16.1507  17.3743

     occupation numbers 
     1.0000   1.0000   1.0000   1.0000   1.0000   1.0000   1.0000   1.0000
     1.0000   1.0000   1.0000   1.0000   0.0000   0.0000   0.0000   0.0000

          k = 0.1429 0.5774 0.0794 (  1983 PWs)   bands (ev):

     3.1919   3.1937   3.4075   3.6737   3.7977   4.0132   4.1695   4.3017
     4.4358   4.4618   9.1549   9.5834  14.0401  14.1326  17.5144  17.7964

     occupation numbers 
     1.0000   1.0000   1.0000   1.0000   1.0000   1.0000   1.0000   1.0000
     1.0000   1.0000   1.0000   1.0000   0.0000   0.0000   0.0000   0.0000

          k = 0.1429 0.5774 0.1587 (  1986 PWs)   bands (ev):

     3.1460   3.2262   3.4679   3.4987   3.8178   4.1508   4.2020   4.2900
     4.4280   4.4560   9.5067   9.8122  12.8102  12.8463  17.9393  19.9223

     occupation numbers 
     1.0000   1.0000   1.0000   1.0000   1.0000   1.0000   1.0000   1.0000
     1.0000   1.0000   1.0000   1.0000   0.0000   0.0000   0.0000   0.0000

          k = 0.1429 0.5774 0.2381 (  1998 PWs)   bands (ev):

     3.1644   3.2223   3.4125   3.4425   3.9295   4.0724   4.2847   4.3398
     4.4169   4.4279   9.9661  10.0854  11.9385  11.9526  18.6242  19.5262

     occupation numbers 
     1.0000   1.0000   1.0000   1.0000   1.0000   1.0000   1.0000   1.0000
     1.0000   1.0000   1.0000   1.0000   0.0000   0.0000   0.0000   0.0000

          k = 0.2143 0.3712 0.0000 (  1993 PWs)   bands (ev):

     3.3950   3.4249   3.4683   3.6165   3.7612   3.8149   3.9696   4.0233
     4.3269   4.4525   5.7592  11.7457  12.6933  15.8016  16.1207  21.9603

     occupation numbers 
     1.0000   1.0000   1.0000   1.0000   1.0000   1.0000   1.0000   1.0000
     1.0000   1.0000   1.0000   0.0000   0.0000   0.0000   0.0000   0.0000

          k = 0.2143 0.3712 0.0794 (  1981 PWs)   bands (ev):

     3.3853   3.4051   3.5181   3.5299   3.7985   3.8558   3.9635   4.0779
     4.2951   4.4648   5.8526  10.3970  14.2748  15.9406  16.2559  20.5939

     occupation numbers 
     1.0000   1.0000   1.0000   1.0000   1.0000   1.0000   1.0000   1.0000
     1.0000   1.0000   1.0000   1.0000   0.0000   0.0000   0.0000   0.0000

          k = 0.2143 0.3712 0.1587 (  1988 PWs)   bands (ev):

     3.3506   3.3837   3.4877   3.6158   3.7543   3.8718   3.9685   4.2037
     4.2613   4.4844   6.1686   8.9195  16.3181  16.4412  16.6537  19.1674

     occupation numbers 
     1.0000   1.0000   1.0000   1.0000   1.0000   1.0000   1.0000   1.0000
     1.0000   1.0000   1.0000   1.0000   0.0000   0.0000   0.0000   0.0000

          k = 0.2143 0.3712 0.2381 (  1979 PWs)   bands (ev):

     3.3349   3.3433   3.5504   3.6233   3.7633   3.8283   4.0135   4.1020
     4.4085   4.4773   6.7761   7.7001  17.0307  17.2789  17.8538  17.9747

     occupation numbers 
     1.0000   1.0000   1.0000   1.0000   1.0000   1.0000   1.0000   1.0000
     1.0000   1.0000   1.0000   1.0000   0.0000   0.0000   0.0000   0.0000

          k = 0.2143 0.4536 0.0000 (  1989 PWs)   bands (ev):

     3.3664   3.3772   3.4587   3.7396   3.8030   3.8934   3.8993   4.1475
     4.3020   4.4796   7.1326  12.7912  13.6729  14.1675  15.3559  19.4565

     occupation numbers 
     1.0000   1.0000   1.0000   1.0000   1.0000   1.0000   1.0000   1.0000
     1.0000   1.0000   1.0000   0.0000   0.0000   0.0000   0.0000   0.0000

          k = 0.2143 0.4536 0.0794 (  1989 PWs)   bands (ev):

     3.3310   3.3939   3.5125   3.6138   3.8045   3.9303   3.9740   4.1673
     4.2687   4.4883   7.2474  11.7515  13.5618  15.4733  15.6331  18.2959

     occupation numbers 
     1.0000   1.0000   1.0000   1.0000   1.0000   1.0000   1.0000   1.0000
     1.0000   1.0000   1.0000   0.0000   0.0000   0.0000   0.0000   0.0000

          k = 0.2143 0.4536 0.1587 (  1984 PWs)   bands (ev):

     3.3021   3.4410   3.4577   3.6237   3.7493   3.9649   4.0286   4.1799
     4.2775   4.4989   7.6059  10.3424  13.9359  15.8974  16.4694  17.9308

     occupation numbers 
     1.0000   1.0000   1.0000   1.0000   1.0000   1.0000   1.0000   1.0000
     1.0000   1.0000   1.0000   1.0000   0.0000   0.0000   0.0000   0.0000

          k = 0.2143 0.4536 0.2381 (  1979 PWs)   bands (ev):

     3.3117   3.3646   3.5116   3.5915   3.8224   3.9339   4.0417   4.0916
     4.4052   4.4798   8.2360   9.1521  14.5878  15.4796  16.5751  17.4555

     occupation numbers 
     1.0000   1.0000   1.0000   1.0000   1.0000   1.0000   1.0000   1.0000
     1.0000   1.0000   1.0000   1.0000   0.0000   0.0000   0.0000   0.0000

          k = 0.2143 0.5361 0.0000 (  1987 PWs)   bands (ev):

     3.3382   3.3429   3.4475   3.7602   3.8174   3.8930   3.9478   4.2886
     4.2929   4.4313   8.8646  10.9162  14.7987  15.0823  15.7136  17.2269

     occupation numbers 
     1.0000   1.0000   1.0000   1.0000   1.0000   1.0000   1.0000   1.0000
     1.0000   1.0000   1.0000   1.0000   0.0000   0.0000   0.0000   0.0000

          k = 0.2143 0.5361 0.0794 (  1989 PWs)   bands (ev):

     3.3016   3.3590   3.5142   3.6601   3.7520   3.9780   4.0136   4.2543
     4.2978   4.4385   8.9849  11.0071  13.7053  15.1538  15.5838  17.7022

     occupation numbers 
     1.0000   1.0000   1.0000   1.0000   1.0000   1.0000   1.0000   1.0000
     1.0000   1.0000   1.0000   1.0000   0.0000   0.0000   0.0000   0.0000

          k = 0.2143 0.5361 0.1587 (  1988 PWs)   bands (ev):

     3.2765   3.4020   3.5102   3.6099   3.7021   4.0359   4.0996   4.1811
     4.3245   4.4484   9.3465  11.1598  12.5484  14.3275  15.5957  18.2386

     occupation numbers 
     1.0000   1.0000   1.0000   1.0000   1.0000   1.0000   1.0000   1.0000
     1.0000   1.0000   1.0000   1.0000   0.0000   0.0000   0.0000   0.0000

          k = 0.2143 0.5361 0.2381 (  1987 PWs)   bands (ev):

     3.3005   3.3750   3.4831   3.5591   3.8144   3.9599   4.1369   4.1600
     4.3842   4.4347   9.9444  10.7142  12.4715  13.2364  16.2685  17.1830

     occupation numbers 
     1.0000   1.0000   1.0000   1.0000   1.0000   1.0000   1.0000   1.0000
     1.0000   1.0000   1.0000   1.0000   0.0000   0.0000   0.0000   0.0000

          k = 0.2857 0.4949 0.0000 (  1995 PWs)   bands (ev):

     3.3634   3.4702   3.5281   3.7309   3.7648   3.8252   3.9542   4.1992
     4.2682   4.4245   8.7452  12.6367  13.0019  14.8290  15.7012  18.8145

     occupation numbers 
     1.0000   1.0000   1.0000   1.0000   1.0000   1.0000   1.0000   1.0000
     1.0000   1.0000   1.0000   0.0000   0.0000   0.0000   0.0000   0.0000

          k = 0.2857 0.4949 0.0794 (  1985 PWs)   bands (ev):

     3.3650   3.4768   3.5550   3.6219   3.7909   3.8644   3.9705   4.2234
     4.2335   4.4341   8.8682  12.6087  13.1427  13.7492  16.7454  17.5707

     occupation numbers 
     1.0000   1.0000   1.0000   1.0000   1.0000   1.0000   1.0000   1.0000
     1.0000   1.0000   1.0000   0.0000   0.0000   0.0000   0.0000   0.0000

          k = 0.2857 0.4949 0.1587 (  1984 PWs)   bands (ev):

     3.3711   3.4702   3.5550   3.6266   3.7281   3.9105   3.9959   4.1479
     4.2976   4.4480   9.2411  11.8481  13.4903  13.5579  16.1396  16.2200

     occupation numbers 
     1.0000   1.0000   1.0000   1.0000   1.0000   1.0000   1.0000   1.0000
     1.0000   1.0000   1.0000   0.0000   0.0000   0.0000   0.0000   0.0000

          k = 0.2857 0.4949 0.2381 (  1983 PWs)   bands (ev):

     3.3869   3.4208   3.5833   3.6375   3.7590   3.8647   4.0232   4.0667
     4.3841   4.4376   9.8718  10.7590  14.0431  14.2139  14.9903  15.1755

     occupation numbers 
     1.0000   1.0000   1.0000   1.0000   1.0000   1.0000   1.0000   1.0000
     1.0000   1.0000   1.0000   1.0000   0.0000   0.0000   0.0000   0.0000

          k = 0.2857 0.5774 0.0000 (  1981 PWs)   bands (ev):

     3.3656   3.5045   3.5529   3.7389   3.7521   3.7744   3.9820   4.2557
     4.2779   4.3443  10.6271  10.6679  12.7015  16.2173  16.9776  17.2484

     occupation numbers 
     1.0000   1.0000   1.0000   1.0000   1.0000   1.0000   1.0000   1.0000
     1.0000   1.0000   1.0000   1.0000   0.0000   0.0000   0.0000   0.0000

          k = 0.2857 0.5774 0.0794 (  1980 PWs)   bands (ev):

     3.3785   3.5086   3.5487   3.6681   3.7536   3.8289   3.9925   4.2203
     4.2939   4.3587  10.7629  10.7755  12.8259  15.3917  15.4356  17.3243

     occupation numbers 
     1.0000   1.0000   1.0000   1.0000   1.0000   1.0000   1.0000   1.0000
     1.0000   1.0000   1.0000   1.0000   0.0000   0.0000   0.0000   0.0000

          k = 0.2857 0.5774 0.1587 (  1980 PWs)   bands (ev):

     3.4020   3.5038   3.5633   3.6047   3.7553   3.8621   4.0113   4.1345
     4.3358   4.3870  11.0969  11.1521  13.1368  14.1339  14.1356  16.0631

     occupation numbers 
     1.0000   1.0000   1.0000   1.0000   1.0000   1.0000   1.0000   1.0000
     1.0000   1.0000   1.0000   1.0000   0.0000   0.0000   0.0000   0.0000

          k = 0.2857 0.5774 0.2381 (  1986 PWs)   bands (ev):

     3.4248   3.4626   3.5965   3.5992   3.7797   3.8398   4.0266   4.0570
[...]

     occupation numbers 
     1.0000   1.0000   1.0000   1.0000   1.0000   1.0000   1.0000   1.0000
     1.0000   1.0000   1.0000   1.0000   1.0000   0.0000   0.0000   0.0000

          k = 0.1429 0.2474 0.0794 (  1983 PWs)   bands (ev):

     2.5994   3.3564   3.5396   3.6298   3.7529   3.7652   4.0109   4.0575
     4.2190   4.2925   4.4065   8.3002  12.1407  19.8200  20.1027  24.4428

     occupation numbers 
     1.0000   1.0000   1.0000   1.0000   1.0000   1.0000   1.0000   1.0000
     1.0000   1.0000   1.0000   1.0000   0.0000   0.0000   0.0000   0.0000

          k = 0.1429 0.2474 0.1587 (  1991 PWs)   bands (ev):

     2.8570   3.4054   3.5421   3.5714   3.6731   3.7552   4.0341   4.1966
     4.2252   4.2672   4.4810   6.8123  14.4309  20.2360  20.4404  22.7678

     occupation numbers 
     1.0000   1.0000   1.0000   1.0000   1.0000   1.0000   1.0000   1.0000
     1.0000   1.0000   1.0000   1.0000   0.0000   0.0000   0.0000   0.0000

          k = 0.1429 0.2474 0.2381 (  1986 PWs)   bands (ev):

     3.1623   3.3885   3.4940   3.5780   3.6303   3.7019   4.0669   4.1369
     4.3037   4.3097   4.8457   5.6434  16.9458  19.5816  20.9210  21.3981

     occupation numbers 
     1.0000   1.0000   1.0000   1.0000   1.0000   1.0000   1.0000   1.0000
     1.0000   1.0000   1.0000   1.0000   0.0000   0.0000   0.0000   0.0000

          k = 0.1429 0.3299 0.0000 (  1980 PWs)   bands (ev):

     3.1278   3.3609   3.5144   3.5898   3.7518   3.8241   3.9681   4.0252
     4.3463   4.3588   4.8282  10.7283  11.4328  16.8474  18.7934  22.9302

     occupation numbers 
     1.0000   1.0000   1.0000   1.0000   1.0000   1.0000   1.0000   1.0000
     1.0000   1.0000   1.0000   1.0000   0.0631   0.0000   0.0000   0.0000

          k = 0.1429 0.3299 0.0794 (  1987 PWs)   bands (ev):

     3.1515   3.3772   3.4996   3.5959   3.7120   3.8774   4.0065   4.0397
     4.3257   4.3640   4.8801   9.2688  13.1428  16.9828  18.9298  21.6521

     occupation numbers 
     1.0000   1.0000   1.0000   1.0000   1.0000   1.0000   1.0000   1.0000
     1.0000   1.0000   1.0000   1.0000   0.0000   0.0000   0.0000   0.0000

          k = 0.1429 0.3299 0.1587 (  1981 PWs)   bands (ev):

     3.2089   3.4264   3.4385   3.6222   3.6946   3.8620   4.0099   4.2292
     4.2468   4.3958   5.0975   7.7722  15.3814  17.3830  19.3285  20.2719

     occupation numbers 
     1.0000   1.0000   1.0000   1.0000   1.0000   1.0000   1.0000   1.0000
     1.0000   1.0000   1.0000   1.0000   0.0000   0.0000   0.0000   0.0000

          k = 0.1429 0.3299 0.2381 (  1981 PWs)   bands (ev):

     3.2815   3.3605   3.5003   3.5772   3.7470   3.8103   4.0556   4.1435
     4.3714   4.4102   5.6414   6.5502  17.7229  18.0104  19.2151  19.8493

     occupation numbers 
     1.0000   1.0000   1.0000   1.0000   1.0000   1.0000   1.0000   1.0000
     1.0000   1.0000   1.0000   1.0000   0.0000   0.0000   0.0000   0.0000

          k = 0.1429 0.4124 0.0000 (  1989 PWs)   bands (ev):

     3.2680   3.3130   3.3920   3.7850   3.8238   3.8623   3.9473   4.1581
     4.3460   4.4553   5.8356  11.8101  12.8323  14.1806  18.0134  20.2121

     occupation numbers 
     1.0000   1.0000   1.0000   1.0000   1.0000   1.0000   1.0000   1.0000
     1.0000   1.0000   1.0000   0.0000   0.0000   0.0000   0.0000   0.0000

          k = 0.1429 0.4124 0.0794 (  1985 PWs)   bands (ev):

     3.2449   3.2968   3.4602   3.6345   3.8130   3.9581   4.0479   4.1543
     4.3146   4.4659   5.9320  10.4991  14.1736  14.5022  18.1534  19.0061

     occupation numbers 
     1.0000   1.0000   1.0000   1.0000   1.0000   1.0000   1.0000   1.0000
     1.0000   1.0000   1.0000   1.0000   0.0000   0.0000   0.0000   0.0000

          k = 0.1429 0.4124 0.1587 (  1989 PWs)   bands (ev):

     3.2125   3.3269   3.4593   3.5477   3.8338   3.9983   4.1112   4.2256
     4.2734   4.4835   6.2573   9.0276  14.6722  16.3315  17.8788  18.5668

     occupation numbers 
     1.0000   1.0000   1.0000   1.0000   1.0000   1.0000   1.0000   1.0000
     1.0000   1.0000   1.0000   1.0000   0.0000   0.0000   0.0000   0.0000

          k = 0.1429 0.4124 0.2381 (  1974 PWs)   bands (ev):

     3.2323   3.2963   3.4474   3.5073   3.9299   4.0205   4.0811   4.1293
     4.4102   4.4756   6.8758   7.8065  15.3265  16.1786  19.1592  19.2207

     occupation numbers 
     1.0000   1.0000   1.0000   1.0000   1.0000   1.0000   1.0000   1.0000
     1.0000   1.0000   1.0000   1.0000   0.0000   0.0000   0.0000   0.0000

          k = 0.1429 0.4949 0.0000 (  1974 PWs)   bands (ev):

     3.2037   3.3006   3.3181   3.7787   3.8725   3.9099   4.0196   4.3362
     4.3374   4.4913   7.3589  11.4089  13.5783  14.3851  17.5306  17.7828

     occupation numbers 
     1.0000   1.0000   1.0000   1.0000   1.0000   1.0000   1.0000   1.0000
     1.0000   1.0000   1.0000   1.0043   0.0000   0.0000   0.0000   0.0000

          k = 0.1429 0.4949 0.0794 (  1980 PWs)   bands (ev):

     3.2046   3.2255   3.4233   3.6591   3.8223   3.9872   4.1352   4.3051
     4.3302   4.4962   7.4721  11.2851  12.5689  15.4751  17.0531  17.6779

     occupation numbers 
     1.0000   1.0000   1.0000   1.0000   1.0000   1.0000   1.0000   1.0000
     1.0000   1.0000   1.0000   1.0000   0.0000   0.0000   0.0000   0.0000

          k = 0.1429 0.4949 0.1587 (  1992 PWs)   bands (ev):

     3.1646   3.2529   3.4768   3.5000   3.8332   4.0967   4.2087   4.2783
     4.3220   4.5007   7.8246  10.4112  12.4057  14.8636  18.0979  18.4071

     occupation numbers 
     1.0000   1.0000   1.0000   1.0000   1.0000   1.0000   1.0000   1.0000
     1.0000   1.0000   1.0000   1.0000   0.0000   0.0000   0.0000   0.0000

          k = 0.1429 0.4949 0.2381 (  1991 PWs)   bands (ev):

     3.1827   3.2430   3.4202   3.4590   3.9391   4.0768   4.1986   4.2618
     4.4096   4.4781   8.4401   9.3220  12.9463  13.7994  18.7761  19.6052

     occupation numbers 
     1.0000   1.0000   1.0000   1.0000   1.0000   1.0000   1.0000   1.0000
     1.0000   1.0000   1.0000   1.0000   0.0000   0.0000   0.0000   0.0000

          k = 0.1429 0.5774 0.0000 (  1982 PWs)   bands (ev):

     3.1794   3.2891   3.2936   3.7944   3.8279   3.9371   4.0746   4.3343
     4.4385   4.4613   9.0311   9.5039  14.8098  15.5025  16.1507  17.3743

     occupation numbers 
     1.0000   1.0000   1.0000   1.0000   1.0000   1.0000   1.0000   1.0000
     1.0000   1.0000   1.0000   1.0000   0.0000   0.0000   0.0000   0.0000

          k = 0.1429 0.5774 0.0794 (  1983 PWs)   bands (ev):

     3.1919   3.1937   3.4075   3.6737   3.7976   4.0132   4.1695   4.3017
     4.4358   4.4618   9.1548   9.5833  14.0401  14.1325  17.5143  17.7964

     occupation numbers 
     1.0000   1.0000   1.0000   1.0000   1.0000   1.0000   1.0000   1.0000
     1.0000   1.0000   1.0000   1.0000   0.0000   0.0000   0.0000   0.0000

          k = 0.1429 0.5774 0.1587 (  1986 PWs)   bands (ev):

     3.1460   3.2262   3.4679   3.4987   3.8178   4.1508   4.2020   4.2900
     4.4279   4.4560   9.5066   9.8121  12.8101  12.8463  17.9393  19.9222

     occupation numbers 
     1.0000   1.0000   1.0000   1.0000   1.0000   1.0000   1.0000   1.0000
     1.0000   1.0000   1.0000   1.0000   0.0000   0.0000   0.0000   0.0000

          k = 0.1429 0.5774 0.2381 (  1998 PWs)   bands (ev):

     3.1644   3.2223   3.4125   3.4424   3.9295   4.0724   4.2847   4.3398
     4.4169   4.4279   9.9660  10.0853  11.9384  11.9526  18.6242  19.5262

     occupation numbers 
     1.0000   1.0000   1.0000   1.0000   1.0000   1.0000   1.0000   1.0000
     1.0000   1.0000   1.0000   1.0000   0.0000   0.0000   0.0000   0.0000

          k = 0.2143 0.3712 0.0000 (  1993 PWs)   bands (ev):

     3.3950   3.4249   3.4683   3.6165   3.7612   3.8149   3.9696   4.0233
     4.3269   4.4525   5.7591  11.7457  12.6932  15.8016  16.1207  21.9603

     occupation numbers 
     1.0000   1.0000   1.0000   1.0000   1.0000   1.0000   1.0000   1.0000
     1.0000   1.0000   1.0000   0.0000   0.0000   0.0000   0.0000   0.0000

          k = 0.2143 0.3712 0.0794 (  1981 PWs)   bands (ev):

     3.3853   3.4051   3.5181   3.5299   3.7985   3.8558   3.9634   4.0779
     4.2951   4.4648   5.8525  10.3970  14.2748  15.9406  16.2559  20.5938

     occupation numbers 
     1.0000   1.0000   1.0000   1.0000   1.0000   1.0000   1.0000   1.0000
     1.0000   1.0000   1.0000   1.0000   0.0000   0.0000   0.0000   0.0000

          k = 0.2143 0.3712 0.1587 (  1988 PWs)   bands (ev):

     3.3506   3.3837   3.4877   3.6157   3.7543   3.8718   3.9685   4.2037
     4.2613   4.4844   6.1685   8.9195  16.3181  16.4412  16.6537  19.1674

     occupation numbers 
     1.0000   1.0000   1.0000   1.0000   1.0000   1.0000   1.0000   1.0000
     1.0000   1.0000   1.0000   1.0000   0.0000   0.0000   0.0000   0.0000

          k = 0.2143 0.3712 0.2381 (  1979 PWs)   bands (ev):

     3.3348   3.3433   3.5504   3.6233   3.7633   3.8283   4.0134   4.1020
     4.4085   4.4773   6.7761   7.7001  17.0306  17.2788  17.8537  17.9746

     occupation numbers 
     1.0000   1.0000   1.0000   1.0000   1.0000   1.0000   1.0000   1.0000
     1.0000   1.0000   1.0000   1.0000   0.0000   0.0000   0.0000   0.0000

          k = 0.2143 0.4536 0.0000 (  1989 PWs)   bands (ev):

     3.3664   3.3772   3.4586   3.7396   3.8030   3.8934   3.8993   4.1475
     4.3020   4.4796   7.1326  12.7912  13.6728  14.1674  15.3559  19.4565

     occupation numbers 
     1.0000   1.0000   1.0000   1.0000   1.0000   1.0000   1.0000   1.0000
     1.0000   1.0000   1.0000   0.0000   0.0000   0.0000   0.0000   0.0000

          k = 0.2143 0.4536 0.0794 (  1989 PWs)   bands (ev):

     3.3310   3.3939   3.5125   3.6138   3.8045   3.9303   3.9740   4.1673
     4.2687   4.4882   7.2474  11.7515  13.5618  15.4733  15.6331  18.2959

     occupation numbers 
     1.0000   1.0000   1.0000   1.0000   1.0000   1.0000   1.0000   1.0000
     1.0000   1.0000   1.0000   0.0000   0.0000   0.0000   0.0000   0.0000

          k = 0.2143 0.4536 0.1587 (  1984 PWs)   bands (ev):

     3.3020   3.4410   3.4577   3.6237   3.7493   3.9649   4.0286   4.1799
     4.2775   4.4989   7.6058  10.3424  13.9359  15.8973  16.4694  17.9308

     occupation numbers 
     1.0000   1.0000   1.0000   1.0000   1.0000   1.0000   1.0000   1.0000
     1.0000   1.0000   1.0000   1.0000   0.0000   0.0000   0.0000   0.0000

          k = 0.2143 0.4536 0.2381 (  1979 PWs)   bands (ev):

     3.3117   3.3646   3.5116   3.5915   3.8224   3.9339   4.0417   4.0916
     4.4052   4.4798   8.2359   9.1521  14.5877  15.4796  16.5750  17.4555

     occupation numbers 
     1.0000   1.0000   1.0000   1.0000   1.0000   1.0000   1.0000   1.0000
     1.0000   1.0000   1.0000   1.0000   0.0000   0.0000   0.0000   0.0000

          k = 0.2143 0.5361 0.0000 (  1987 PWs)   bands (ev):

     3.3382   3.3429   3.4475   3.7602   3.8174   3.8930   3.9477   4.2886
     4.2929   4.4313   8.8645  10.9162  14.7987  15.0823  15.7136  17.2269

     occupation numbers 
     1.0000   1.0000   1.0000   1.0000   1.0000   1.0000   1.0000   1.0000
     1.0000   1.0000   1.0000   1.0000   0.0000   0.0000   0.0000   0.0000

          k = 0.2143 0.5361 0.0794 (  1989 PWs)   bands (ev):

     3.3016   3.3590   3.5142   3.6601   3.7519   3.9780   4.0136   4.2543
     4.2978   4.4385   8.9849  11.0071  13.7052  15.1538  15.5837  17.7022

     occupation numbers 
     1.0000   1.0000   1.0000   1.0000   1.0000   1.0000   1.0000   1.0000
     1.0000   1.0000   1.0000   1.0000   0.0000   0.0000   0.0000   0.0000

          k = 0.2143 0.5361 0.1587 (  1988 PWs)   bands (ev):

     3.2765   3.4020   3.5102   3.6099   3.7021   4.0359   4.0996   4.1811
     4.3245   4.4484   9.3465  11.1598  12.5484  14.3274  15.5957  18.2386

     occupation numbers 
     1.0000   1.0000   1.0000   1.0000   1.0000   1.0000   1.0000   1.0000
     1.0000   1.0000   1.0000   1.0000   0.0000   0.0000   0.0000   0.0000

          k = 0.2143 0.5361 0.2381 (  1987 PWs)   bands (ev):

     3.3005   3.3750   3.4831   3.5591   3.8143   3.9599   4.1369   4.1600
     4.3842   4.4347   9.9444  10.7142  12.4715  13.2363  16.2685  17.1829

     occupation numbers 
     1.0000   1.0000   1.0000   1.0000   1.0000   1.0000   1.0000   1.0000
     1.0000   1.0000   1.0000   1.0000   0.0000   0.0000   0.0000   0.0000

          k = 0.2857 0.4949 0.0000 (  1995 PWs)   bands (ev):

     3.3634   3.4702   3.5281   3.7309   3.7648   3.8252   3.9542   4.1992
     4.2682   4.4245   8.7451  12.6366  13.0019  14.8290  15.7011  18.8145

     occupation numbers 
     1.0000   1.0000   1.0000   1.0000   1.0000   1.0000   1.0000   1.0000
     1.0000   1.0000   1.0000   0.0000   0.0000   0.0000   0.0000   0.0000

          k = 0.2857 0.4949 0.0794 (  1985 PWs)   bands (ev):

     3.3650   3.4768   3.5550   3.6219   3.7909   3.8644   3.9705   4.2234
     4.2335   4.4341   8.8682  12.6086  13.1427  13.7492  16.7453  17.5706

     occupation numbers 
     1.0000   1.0000   1.0000   1.0000   1.0000   1.0000   1.0000   1.0000
     1.0000   1.0000   1.0000   0.0000   0.0000   0.0000   0.0000   0.0000

          k = 0.2857 0.4949 0.1587 (  1984 PWs)   bands (ev):

     3.3711   3.4702   3.5550   3.6266   3.7281   3.9104   3.9959   4.1479
     4.2976   4.4480   9.2411  11.8480  13.4903  13.5579  16.1395  16.2199

     occupation numbers 
     1.0000   1.0000   1.0000   1.0000   1.0000   1.0000   1.0000   1.0000
     1.0000   1.0000   1.0000   0.0000   0.0000   0.0000   0.0000   0.0000

          k = 0.2857 0.4949 0.2381 (  1983 PWs)   bands (ev):

     3.3869   3.4208   3.5833   3.6375   3.7590   3.8647   4.0232   4.0667
     4.3841   4.4375   9.8718  10.7590  14.0431  14.2139  14.9903  15.1755

     occupation numbers 
     1.0000   1.0000   1.0000   1.0000   1.0000   1.0000   1.0000   1.0000
     1.0000   1.0000   1.0000   1.0000   0.0000   0.0000   0.0000   0.0000

          k = 0.2857 0.5774 0.0000 (  1981 PWs)   bands (ev):

     3.3656   3.5045   3.5529   3.7389   3.7521   3.7744   3.9820   4.2557
     4.2779   4.3443  10.6271  10.6678  12.7015  16.2173  16.9775  17.2483

     occupation numbers 
     1.0000   1.0000   1.0000   1.0000   1.0000   1.0000   1.0000   1.0000
     1.0000   1.0000   1.0000   1.0000   0.0000   0.0000   0.0000   0.0000

          k = 0.2857 0.5774 0.0794 (  1980 PWs)   bands (ev):

     3.3785   3.5086   3.5487   3.6681   3.7535   3.8289   3.9925   4.2203
     4.2939   4.3587  10.7629  10.7755  12.8259  15.3917  15.4355  17.3242

     occupation numbers 
     1.0000   1.0000   1.0000   1.0000   1.0000   1.0000   1.0000   1.0000
     1.0000   1.0000   1.0000   1.0000   0.0000   0.0000   0.0000   0.0000

          k = 0.2857 0.5774 0.1587 (  1980 PWs)   bands (ev):

     3.4020   3.5038   3.5633   3.6047   3.7553   3.8621   4.0113   4.1345
     4.3358   4.3870  11.0969  11.1520  13.1368  14.1338  14.1356  16.0630

     occupation numbers 
     1.0000   1.0000   1.0000   1.0000   1.0000   1.0000   1.0000   1.0000
     1.0000   1.0000   1.0000   1.0000   0.0000   0.0000   0.0000   0.0000

          k = 0.2857 0.5774 0.2381 (  1986 PWs)   bands (ev):

     3.4248   3.4625   3.5965   3.5992   3.7797   3.8398   4.0266   4.0570
     4.3804   4.4001  11.5828  11.6733  12.8772  13.0862  14.0764  14.9358

     occupation numbers 
     1.0000   1.0000   1.0000   1.0000   1.0000   1.0000   1.0000   1.0000
     1.0000   1.0000   0.0000   0.0000   0.0000   0.0000   0.0000   0.0000

     the Fermi energy is    11.4276 ev

!    total energy              =    -487.44689458 Ry
     total all-electron energy =     -7184.240940 Ry
     estimated scf accuracy    <       0.00000007 Ry
     smearing contrib. (-TS)   =      -0.00000112 Ry
     internal energy E=F+TS    =    -487.44689346 Ry

     The total energy is F=E-TS. E is the sum of the following terms:
     one-electron contribution =    -113.94141255 Ry
     hartree contribution      =      90.46397497 Ry
     xc contribution           =     -94.37733191 Ry
     ewald contribution        =    -178.71945273 Ry
     one-center paw contrib.   =    -190.87267124 Ry
      -> PAW hartree energy AE =     122.09077649 Ry
      -> PAW hartree energy PS =    -121.46742059 Ry
      -> PAW xc energy AE      =    -143.08330164 Ry
      -> PAW xc energy PS      =      47.02361013 Ry
      -> total E_H with PAW    =      91.08733087 Ry
      -> total E_XC with PAW   =    -190.43702343 Ry

     total magnetization       =    -0.00 Bohr mag/cell
     absolute magnetization    =     0.00 Bohr mag/cell

     convergence has been achieved in   9 iterations

     Writing all to output data dir ./out/Zn.save/
 
     init_run     :      0.27s CPU      0.37s WALL (       1 calls)
     electrons    :     11.65s CPU     12.59s WALL (       1 calls)

     Called by init_run:
     wfcinit      :      0.12s CPU      0.19s WALL (       1 calls)
     potinit      :      0.10s CPU      0.12s WALL (       1 calls)
     hinit0       :      0.04s CPU      0.04s WALL (       1 calls)

     Called by electrons:
     c_bands      :      9.82s CPU     10.54s WALL (       9 calls)
     sum_band     :      0.96s CPU      1.01s WALL (       9 calls)
     v_of_rho     :      0.03s CPU      0.03s WALL (      10 calls)
     v_h          :      0.00s CPU      0.00s WALL (      10 calls)
     v_xc         :      0.03s CPU      0.03s WALL (      10 calls)
     newd         :      0.02s CPU      0.02s WALL (      10 calls)
     PAW_pot      :      0.91s CPU      1.08s WALL (      10 calls)
     mix_rho      :      0.00s CPU      0.01s WALL (       9 calls)

     Called by c_bands:
     init_us_2    :      0.06s CPU      0.07s WALL (    1728 calls)
     init_us_2:cp :      0.06s CPU      0.06s WALL (    1728 calls)
     cegterg      :      9.42s CPU      9.97s WALL (     864 calls)

     Called by sum_band:
     sum_band:wei :      0.02s CPU      0.02s WALL (       9 calls)
     sum_band:loo :      0.90s CPU      0.95s WALL (       9 calls)
     sum_band:buf :      0.01s CPU      0.01s WALL (     864 calls)
     sum_band:ini :      0.03s CPU      0.03s WALL (     864 calls)
     sum_band:cal :      0.07s CPU      0.07s WALL (     864 calls)
     sum_band:bec :      0.01s CPU      0.01s WALL (     864 calls)
     addusdens    :      0.03s CPU      0.03s WALL (       9 calls)
                                        0.00s GPU  (       9 calls)
     addusd:skk   :      0.00s CPU      0.00s WALL (       9 calls)
                                        0.00s GPU  (       9 calls)

     Called by *egterg:
     cdiaghg      :      1.64s CPU      1.73s WALL (    5274 calls)
     cegterg:over :      0.26s CPU      0.28s WALL (    4506 calls)
     cegterg:upda :      0.06s CPU      0.06s WALL (    4506 calls)
     cegterg:last :      0.11s CPU      0.11s WALL (    3386 calls)
     h_psi        :      7.03s CPU      7.44s WALL (    5370 calls)
     s_psi        :      0.12s CPU      0.13s WALL (    5370 calls)
     g_psi        :      0.02s CPU      0.02s WALL (    4506 calls)

     Called by h_psi:
     h_psi:calbec :      0.33s CPU      0.34s WALL (    5370 calls)
     vloc_psi     :      6.53s CPU      6.92s WALL (    5370 calls)
     add_vuspsi   :      0.12s CPU      0.13s WALL (    5370 calls)

     General routines
     calbec       :      0.38s CPU      0.40s WALL (    6234 calls)
     fft          :      0.02s CPU      0.02s WALL (     208 calls)
     ffts         :      0.00s CPU      0.00s WALL (      18 calls)
     fftw         :      6.80s CPU      7.20s WALL (  134812 calls)
 
     Parallel routines

     PAW routines
     PAW_pot      :      0.91s CPU      1.08s WALL (      10 calls)
     PAW_symme    :      0.01s CPU      0.01s WALL (      18 calls)
 
     PWSCF        :     12.16s CPU     13.50s WALL

 
   This run was terminated on:   3:27:35  13Mar2024            

=------------------------------------------------------------------------------=
   JOB DONE.
=------------------------------------------------------------------------------=
