
     Program PWSCF v.7.2 starts on 13Mar2024 at  3:29:17 

     This program is part of the open-source Quantum ESPRESSO suite
     for quantum simulation of materials; please cite
         "P. Giannozzi et al., J. Phys.:Condens. Matter 21 395502 (2009);
         "P. Giannozzi et al., J. Phys.:Condens. Matter 29 465901 (2017);
         "P. Giannozzi et al., J. Chem. Phys. 152 154105 (2020);
          URL http://www.quantum-espresso.org", 
     in publications or presentations arising from this work. More details at
     http://www.quantum-espresso.org/quote

     Parallel version (MPI), running on    28 processors

     MPI processes distributed on     1 nodes
     150312 MiB available memory on the printing compute node when the environment starts
 
     Waiting for input...
     Reading input from standard input

     Current dimensions of program PWSCF are:
     Max number of different atomic species (ntypx) = 10
     Max number of k-points (npk) = 120000
     Max angular momentum in pseudopotentials (lmaxx) =  4
     file Zn.pbe-dnl-kjpaw_psl.1.0.0.UPF: wavefunction(s)  4S 3D renormalized
 
     K-points division:     npool     =       2
     R & G space division:  proc/nbgrp/npool/nimage =      14
     Subspace diagonalization in iterative solution of the eigenvalue problem:
     a serial algorithm will be used

 
     Parallelization info
     --------------------
     sticks:   dense  smooth     PW     G-vecs:    dense   smooth      PW
     Min          35      35     10                 1185     1185     194
     Max          36      36     11                 1194     1194     201
     Sum         499     499    151                16675    16675    2781
 
     Using Slab Decomposition
 


     bravais-lattice index     =            4
     lattice parameter (alat)  =       5.1000  a.u.
     unit-cell volume          =     210.2288 (a.u.)^3
     number of atoms/cell      =            2
     number of atomic types    =            1
     number of electrons       =        24.00
     number of Kohn-Sham states=           16
     kinetic-energy cutoff     =      70.0000  Ry
     charge density cutoff     =     280.0000  Ry
     scf convergence threshold =      4.0E-06
     mixing beta               =       0.7000
     number of iterations used =            8  plain     mixing
     Exchange-correlation= SLA  PW   PBX  PBC
                           (   1   4   3   4   0   0   0)

     celldm(1)=   5.100000  celldm(2)=   0.000000  celldm(3)=   1.830000
     celldm(4)=   0.000000  celldm(5)=   0.000000  celldm(6)=   0.000000

     crystal axes: (cart. coord. in units of alat)
               a(1) = (   1.000000   0.000000   0.000000 )  
               a(2) = (  -0.500000   0.866025   0.000000 )  
               a(3) = (   0.000000   0.000000   1.830000 )  

     reciprocal axes: (cart. coord. in units 2 pi/alat)
               b(1) = (  1.000000  0.577350  0.000000 )  
               b(2) = (  0.000000  1.154701  0.000000 )  
               b(3) = (  0.000000  0.000000  0.546448 )  


     PseudoPot. # 1 for Zn read from file:
     /truba/home/amuhaymin/ZnS/pseudo/QE/Zn.pbe-dnl-kjpaw_psl.1.0.0.UPF
     MD5 check sum: c608214d9520ac179f507641260889e3
     Pseudo is Projector augmented-wave + core cor, Zval = 12.0
     Generated using &quot;atomic&quot; code by A. Dal Corso  v.6.2.2
     Shape of augmentation charge: PSQ
     Using radial grid of 1201 points,  6 beta functions with: 
                l(1) =   0
                l(2) =   0
                l(3) =   1
                l(4) =   1
                l(5) =   2
                l(6) =   2
     Q(r) pseudized with 0 coefficients 


     atomic species   valence    mass     pseudopotential
        Zn            12.00    65.38000     Zn( 1.00)

     Starting magnetic structure 
     atomic species   magnetization
        Zn           0.000

     24 Sym. Ops., with inversion, found (12 have fractional translation)


                                    s                        frac. trans.

      isym =  1     identity                                     

 cryst.   s( 1) = (     1          0          0      )
                  (     0          1          0      )
                  (     0          0          1      )

 cart.    s( 1) = (  1.0000000  0.0000000  0.0000000 )
                  (  0.0000000  1.0000000  0.0000000 )
                  (  0.0000000  0.0000000  1.0000000 )


      isym =  2     180 deg rotation - cart. axis [0,0,1]        

 cryst.   s( 2) = (    -1          0          0      )    f =(  0.0000000 )
                  (     0         -1          0      )       (  0.0000000 )
                  (     0          0          1      )       ( -0.5000000 )

 cart.    s( 2) = ( -1.0000000  0.0000000  0.0000000 )    f =(  0.0000000 )
                  (  0.0000000 -1.0000000  0.0000000 )       (  0.0000000 )
                  (  0.0000000  0.0000000  1.0000000 )       ( -0.9150000 )


      isym =  3     180 deg rotation - cart. axis [0,1,0]        

 cryst.   s( 3) = (    -1          0          0      )    f =(  0.0000000 )
                  (     1          1          0      )       (  0.0000000 )
                  (     0          0         -1      )       ( -0.5000000 )

 cart.    s( 3) = ( -1.0000000  0.0000000  0.0000000 )    f =(  0.0000000 )
                  (  0.0000000  1.0000000  0.0000000 )       (  0.0000000 )
                  (  0.0000000  0.0000000 -1.0000000 )       ( -0.9150000 )


      isym =  4     180 deg rotation - cart. axis [1,0,0]        

 cryst.   s( 4) = (     1          0          0      )
                  (    -1         -1          0      )
                  (     0          0         -1      )

 cart.    s( 4) = (  1.0000000  0.0000000  0.0000000 )
                  (  0.0000000 -1.0000000  0.0000000 )
                  (  0.0000000  0.0000000 -1.0000000 )


      isym =  5      60 deg rotation - cryst. axis [0,0,1]       

 cryst.   s( 5) = (     1          1          0      )    f =(  0.0000000 )
                  (    -1          0          0      )       ( -0.0000000 )
                  (     0          0          1      )       ( -0.5000000 )

 cart.    s( 5) = (  0.5000000 -0.8660254  0.0000000 )    f =(  0.0000000 )
                  (  0.8660254  0.5000000  0.0000000 )       ( -0.0000000 )
                  (  0.0000000  0.0000000  1.0000000 )       ( -0.9150000 )


      isym =  6      60 deg rotation - cryst. axis [0,0,-1]      

 cryst.   s( 6) = (     0         -1          0      )    f =(  0.0000000 )
                  (     1          1          0      )       ( -0.0000000 )
                  (     0          0          1      )       ( -0.5000000 )

 cart.    s( 6) = (  0.5000000  0.8660254  0.0000000 )    f =(  0.0000000 )
                  ( -0.8660254  0.5000000  0.0000000 )       ( -0.0000000 )
                  (  0.0000000  0.0000000  1.0000000 )       ( -0.9150000 )


      isym =  7     120 deg rotation - cryst. axis [0,0,1]       

 cryst.   s( 7) = (     0          1          0      )
                  (    -1         -1          0      )
                  (     0          0          1      )

 cart.    s( 7) = ( -0.5000000 -0.8660254  0.0000000 )
                  (  0.8660254 -0.5000000  0.0000000 )
                  (  0.0000000  0.0000000  1.0000000 )


      isym =  8     120 deg rotation - cryst. axis [0,0,-1]      

 cryst.   s( 8) = (    -1         -1          0      )
                  (     1          0          0      )
                  (     0          0          1      )

 cart.    s( 8) = ( -0.5000000  0.8660254  0.0000000 )
                  ( -0.8660254 -0.5000000  0.0000000 )
                  (  0.0000000  0.0000000  1.0000000 )


      isym =  9     180 deg rotation - cryst. axis [1,-1,0]      

 cryst.   s( 9) = (     0         -1          0      )    f =(  0.0000000 )
                  (    -1          0          0      )       (  0.0000000 )
                  (     0          0         -1      )       ( -0.5000000 )

 cart.    s( 9) = (  0.5000000 -0.8660254  0.0000000 )    f =(  0.0000000 )
                  ( -0.8660254 -0.5000000  0.0000000 )       (  0.0000000 )
                  (  0.0000000  0.0000000 -1.0000000 )       ( -0.9150000 )


      isym = 10     180 deg rotation - cryst. axis [2,1,0]       

 cryst.   s(10) = (     1          1          0      )    f =(  0.0000000 )
                  (     0         -1          0      )       ( -0.0000000 )
                  (     0          0         -1      )       ( -0.5000000 )

 cart.    s(10) = (  0.5000000  0.8660254  0.0000000 )    f =(  0.0000000 )
                  (  0.8660254 -0.5000000  0.0000000 )       ( -0.0000000 )
                  (  0.0000000  0.0000000 -1.0000000 )       ( -0.9150000 )


      isym = 11     180 deg rotation - cryst. axis [0,1,0]       

 cryst.   s(11) = (    -1         -1          0      )
                  (     0          1          0      )
                  (     0          0         -1      )

 cart.    s(11) = ( -0.5000000 -0.8660254  0.0000000 )
                  ( -0.8660254  0.5000000  0.0000000 )
                  (  0.0000000  0.0000000 -1.0000000 )


      isym = 12     180 deg rotation - cryst. axis [1,1,0]       

 cryst.   s(12) = (     0          1          0      )
                  (     1          0          0      )
                  (     0          0         -1      )

 cart.    s(12) = ( -0.5000000  0.8660254  0.0000000 )
                  (  0.8660254  0.5000000  0.0000000 )
                  (  0.0000000  0.0000000 -1.0000000 )


      isym = 13     inversion                                    

 cryst.   s(13) = (    -1          0          0      )
                  (     0         -1          0      )
                  (     0          0         -1      )

 cart.    s(13) = ( -1.0000000  0.0000000  0.0000000 )
                  (  0.0000000 -1.0000000  0.0000000 )
                  (  0.0000000  0.0000000 -1.0000000 )


      isym = 14     inv. 180 deg rotation - cart. axis [0,0,1]   

 cryst.   s(14) = (     1          0          0      )    f =(  0.0000000 )
                  (     0          1          0      )       (  0.0000000 )
                  (     0          0         -1      )       ( -0.5000000 )

 cart.    s(14) = (  1.0000000  0.0000000  0.0000000 )    f =(  0.0000000 )
                  (  0.0000000  1.0000000  0.0000000 )       (  0.0000000 )
                  (  0.0000000  0.0000000 -1.0000000 )       ( -0.9150000 )


      isym = 15     inv. 180 deg rotation - cart. axis [0,1,0]   

 cryst.   s(15) = (     1          0          0      )    f =(  0.0000000 )
                  (    -1         -1          0      )       (  0.0000000 )
                  (     0          0          1      )       ( -0.5000000 )

 cart.    s(15) = (  1.0000000  0.0000000  0.0000000 )    f =(  0.0000000 )
                  (  0.0000000 -1.0000000  0.0000000 )       (  0.0000000 )
                  (  0.0000000  0.0000000  1.0000000 )       ( -0.9150000 )


      isym = 16     inv. 180 deg rotation - cart. axis [1,0,0]   

 cryst.   s(16) = (    -1          0          0      )
                  (     1          1          0      )
                  (     0          0          1      )

 cart.    s(16) = ( -1.0000000  0.0000000  0.0000000 )
                  (  0.0000000  1.0000000  0.0000000 )
                  (  0.0000000  0.0000000  1.0000000 )


      isym = 17     inv.  60 deg rotation - cryst. axis [0,0,1]  

 cryst.   s(17) = (    -1         -1          0      )    f =(  0.0000000 )
                  (     1          0          0      )       (  0.0000000 )
                  (     0          0         -1      )       ( -0.5000000 )

 cart.    s(17) = ( -0.5000000  0.8660254  0.0000000 )    f =(  0.0000000 )
                  ( -0.8660254 -0.5000000  0.0000000 )       (  0.0000000 )
                  (  0.0000000  0.0000000 -1.0000000 )       ( -0.9150000 )


      isym = 18     inv.  60 deg rotation - cryst. axis [0,0,-1] 

 cryst.   s(18) = (     0          1          0      )    f =(  0.0000000 )
                  (    -1         -1          0      )       ( -0.0000000 )
                  (     0          0         -1      )       ( -0.5000000 )

 cart.    s(18) = ( -0.5000000 -0.8660254  0.0000000 )    f =(  0.0000000 )
                  (  0.8660254 -0.5000000  0.0000000 )       ( -0.0000000 )
                  (  0.0000000  0.0000000 -1.0000000 )       ( -0.9150000 )


      isym = 19     inv. 120 deg rotation - cryst. axis [0,0,1]  

 cryst.   s(19) = (     0         -1          0      )
                  (     1          1          0      )
                  (     0          0         -1      )

 cart.    s(19) = (  0.5000000  0.8660254  0.0000000 )
                  ( -0.8660254  0.5000000  0.0000000 )
                  (  0.0000000  0.0000000 -1.0000000 )


      isym = 20     inv. 120 deg rotation - cryst. axis [0,0,-1] 

 cryst.   s(20) = (     1          1          0      )
                  (    -1          0          0      )
                  (     0          0         -1      )

 cart.    s(20) = (  0.5000000 -0.8660254  0.0000000 )
                  (  0.8660254  0.5000000  0.0000000 )
                  (  0.0000000  0.0000000 -1.0000000 )


      isym = 21     inv. 180 deg rotation - cryst. axis [1,-1,0] 

 cryst.   s(21) = (     0          1          0      )    f =(  0.0000000 )
                  (     1          0          0      )       ( -0.0000000 )
                  (     0          0          1      )       ( -0.5000000 )

 cart.    s(21) = ( -0.5000000  0.8660254  0.0000000 )    f =(  0.0000000 )
                  (  0.8660254  0.5000000  0.0000000 )       ( -0.0000000 )
                  (  0.0000000  0.0000000  1.0000000 )       ( -0.9150000 )


      isym = 22     inv. 180 deg rotation - cryst. axis [2,1,0]  

 cryst.   s(22) = (    -1         -1          0      )    f =(  0.0000000 )
                  (     0          1          0      )       ( -0.0000000 )
                  (     0          0          1      )       ( -0.5000000 )

 cart.    s(22) = ( -0.5000000 -0.8660254  0.0000000 )    f =(  0.0000000 )
                  ( -0.8660254  0.5000000  0.0000000 )       ( -0.0000000 )
                  (  0.0000000  0.0000000  1.0000000 )       ( -0.9150000 )


      isym = 23     inv. 180 deg rotation - cryst. axis [0,1,0]  

 cryst.   s(23) = (     1          1          0      )
                  (     0         -1          0      )
                  (     0          0          1      )

 cart.    s(23) = (  0.5000000  0.8660254  0.0000000 )
                  (  0.8660254 -0.5000000  0.0000000 )
                  (  0.0000000  0.0000000  1.0000000 )


      isym = 24     inv. 180 deg rotation - cryst. axis [1,1,0]  

 cryst.   s(24) = (     0         -1          0      )
                  (    -1          0          0      )
                  (     0          0          1      )

 cart.    s(24) = (  0.5000000 -0.8660254  0.0000000 )
                  ( -0.8660254 -0.5000000  0.0000000 )
                  (  0.0000000  0.0000000  1.0000000 )


     point group D_6h(6/mmm)
     there are 12 classes
     the character table:

       E     2C6   2C3   C2    3C2'  3C2'' i     2S3   2S6   s_h   3s_d  3s_v 
A_1g   1.00  1.00  1.00  1.00  1.00  1.00  1.00  1.00  1.00  1.00  1.00  1.00
A_2g   1.00  1.00  1.00  1.00 -1.00 -1.00  1.00  1.00  1.00  1.00 -1.00 -1.00
B_1g   1.00 -1.00  1.00 -1.00  1.00 -1.00  1.00 -1.00  1.00 -1.00  1.00 -1.00
B_2g   1.00 -1.00  1.00 -1.00 -1.00  1.00  1.00 -1.00  1.00 -1.00 -1.00  1.00
E_1g   2.00  1.00 -1.00 -2.00  0.00  0.00  2.00  1.00 -1.00 -2.00  0.00  0.00
E_2g   2.00 -1.00 -1.00  2.00  0.00  0.00  2.00 -1.00 -1.00  2.00  0.00  0.00
A_1u   1.00  1.00  1.00  1.00  1.00  1.00 -1.00 -1.00 -1.00 -1.00 -1.00 -1.00
A_2u   1.00  1.00  1.00  1.00 -1.00 -1.00 -1.00 -1.00 -1.00 -1.00  1.00  1.00
B_1u   1.00 -1.00  1.00 -1.00  1.00 -1.00 -1.00  1.00 -1.00  1.00 -1.00  1.00
B_2u   1.00 -1.00  1.00 -1.00 -1.00  1.00 -1.00  1.00 -1.00  1.00  1.00 -1.00
E_1u   2.00  1.00 -1.00 -2.00  0.00  0.00 -2.00 -1.00  1.00  2.00  0.00  0.00
E_2u   2.00 -1.00 -1.00  2.00  0.00  0.00 -2.00  1.00  1.00 -2.00  0.00  0.00

     the symmetry operations in each class and the name of the first element:

     E        1
          identity                                               
     2C6      5    6
           60 deg rotation - cryst. axis [0,0,1]                 
     2C3      7    8
          120 deg rotation - cryst. axis [0,0,1]                 
     C2       2
          180 deg rotation - cart. axis [0,0,1]                  
     3C2'     4   12   11
          180 deg rotation - cart. axis [1,0,0]                  
     3C2''    3    9   10
          180 deg rotation - cart. axis [0,1,0]                  
     i       13
          inversion                                              
     2S3     17   18
          inv.  60 deg rotation - cryst. axis [0,0,1]            
     2S6     19   20
          inv. 120 deg rotation - cryst. axis [0,0,1]            
     s_h     14
          inv. 180 deg rotation - cart. axis [0,0,1]             
     3s_d    16   24   23
          inv. 180 deg rotation - cart. axis [1,0,0]             
     3s_v    15   21   22
          inv. 180 deg rotation - cart. axis [0,1,0]             

   Cartesian axes

     site n.     atom                  positions (alat units)
         1           Zn  tau(   1) = (  -0.0000000   0.5773503   0.4575000  )
         2           Zn  tau(   2) = (   0.5000000   0.2886751   1.3725000  )

   Crystallographic axes

     site n.     atom                  positions (cryst. coord.)
         1           Zn  tau(   1) = (  0.3333333  0.6666667  0.2500000  )
         2           Zn  tau(   2) = (  0.6666667  0.3333333  0.7500000  )

     number of k points=    96  Marzari-Vanderbilt smearing, width (Ry)=  0.0005
                       cart. coord. in units 2pi/alat
        k(    1) = (   0.0000000   0.0000000   0.0000000), wk =   0.0007289
        k(    2) = (   0.0000000   0.0000000   0.0780640), wk =   0.0014577
        k(    3) = (   0.0000000   0.0000000   0.1561280), wk =   0.0014577
        k(    4) = (   0.0000000   0.0000000   0.2341920), wk =   0.0014577
        k(    5) = (   0.0000000   0.0824786   0.0000000), wk =   0.0043732
        k(    6) = (   0.0000000   0.0824786   0.0780640), wk =   0.0087464
        k(    7) = (   0.0000000   0.0824786   0.1561280), wk =   0.0087464
        k(    8) = (   0.0000000   0.0824786   0.2341920), wk =   0.0087464
        k(    9) = (   0.0000000   0.1649572   0.0000000), wk =   0.0043732
        k(   10) = (   0.0000000   0.1649572   0.0780640), wk =   0.0087464
        k(   11) = (   0.0000000   0.1649572   0.1561280), wk =   0.0087464
        k(   12) = (   0.0000000   0.1649572   0.2341920), wk =   0.0087464
        k(   13) = (   0.0000000   0.2474358   0.0000000), wk =   0.0043732
        k(   14) = (   0.0000000   0.2474358   0.0780640), wk =   0.0087464
        k(   15) = (   0.0000000   0.2474358   0.1561280), wk =   0.0087464
        k(   16) = (   0.0000000   0.2474358   0.2341920), wk =   0.0087464
        k(   17) = (   0.0000000   0.3299144   0.0000000), wk =   0.0043732
        k(   18) = (   0.0000000   0.3299144   0.0780640), wk =   0.0087464
        k(   19) = (   0.0000000   0.3299144   0.1561280), wk =   0.0087464
        k(   20) = (   0.0000000   0.3299144   0.2341920), wk =   0.0087464
        k(   21) = (   0.0000000   0.4123930   0.0000000), wk =   0.0043732
        k(   22) = (   0.0000000   0.4123930   0.0780640), wk =   0.0087464
        k(   23) = (   0.0000000   0.4123930   0.1561280), wk =   0.0087464
        k(   24) = (   0.0000000   0.4123930   0.2341920), wk =   0.0087464
        k(   25) = (   0.0000000   0.4948717   0.0000000), wk =   0.0043732
        k(   26) = (   0.0000000   0.4948717   0.0780640), wk =   0.0087464
        k(   27) = (   0.0000000   0.4948717   0.1561280), wk =   0.0087464
        k(   28) = (   0.0000000   0.4948717   0.2341920), wk =   0.0087464
        k(   29) = (   0.0000000  -0.5773503   0.0000000), wk =   0.0021866
        k(   30) = (   0.0000000  -0.5773503   0.0780640), wk =   0.0043732
        k(   31) = (   0.0000000  -0.5773503   0.1561280), wk =   0.0043732
        k(   32) = (   0.0000000  -0.5773503   0.2341920), wk =   0.0043732
        k(   33) = (   0.0714286   0.1237179   0.0000000), wk =   0.0043732
        k(   34) = (   0.0714286   0.1237179   0.0780640), wk =   0.0087464
        k(   35) = (   0.0714286   0.1237179   0.1561280), wk =   0.0087464
        k(   36) = (   0.0714286   0.1237179   0.2341920), wk =   0.0087464
        k(   37) = (   0.0714286   0.2061965   0.0000000), wk =   0.0087464
        k(   38) = (   0.0714286   0.2061965   0.0780640), wk =   0.0174927
        k(   39) = (   0.0714286   0.2061965   0.1561280), wk =   0.0174927
        k(   40) = (   0.0714286   0.2061965   0.2341920), wk =   0.0174927
        k(   41) = (   0.0714286   0.2886751   0.0000000), wk =   0.0087464
        k(   42) = (   0.0714286   0.2886751   0.0780640), wk =   0.0174927
        k(   43) = (   0.0714286   0.2886751   0.1561280), wk =   0.0174927
        k(   44) = (   0.0714286   0.2886751   0.2341920), wk =   0.0174927
        k(   45) = (   0.0714286   0.3711537   0.0000000), wk =   0.0087464
        k(   46) = (   0.0714286   0.3711537   0.0780640), wk =   0.0174927
        k(   47) = (   0.0714286   0.3711537   0.1561280), wk =   0.0174927
        k(   48) = (   0.0714286   0.3711537   0.2341920), wk =   0.0174927
        k(   49) = (   0.0714286   0.4536324   0.0000000), wk =   0.0087464
        k(   50) = (   0.0714286   0.4536324   0.0780640), wk =   0.0174927
        k(   51) = (   0.0714286   0.4536324   0.1561280), wk =   0.0174927
        k(   52) = (   0.0714286   0.4536324   0.2341920), wk =   0.0174927
        k(   53) = (   0.0714286   0.5361110   0.0000000), wk =   0.0087464
        k(   54) = (   0.0714286   0.5361110   0.0780640), wk =   0.0174927
        k(   55) = (   0.0714286   0.5361110   0.1561280), wk =   0.0174927
        k(   56) = (   0.0714286   0.5361110   0.2341920), wk =   0.0174927
        k(   57) = (   0.1428571   0.2474358   0.0000000), wk =   0.0043732
        k(   58) = (   0.1428571   0.2474358   0.0780640), wk =   0.0087464
        k(   59) = (   0.1428571   0.2474358   0.1561280), wk =   0.0087464
        k(   60) = (   0.1428571   0.2474358   0.2341920), wk =   0.0087464
        k(   61) = (   0.1428571   0.3299144   0.0000000), wk =   0.0087464
        k(   62) = (   0.1428571   0.3299144   0.0780640), wk =   0.0174927
        k(   63) = (   0.1428571   0.3299144   0.1561280), wk =   0.0174927
        k(   64) = (   0.1428571   0.3299144   0.2341920), wk =   0.0174927
        k(   65) = (   0.1428571   0.4123930   0.0000000), wk =   0.0087464
        k(   66) = (   0.1428571   0.4123930   0.0780640), wk =   0.0174927
        k(   67) = (   0.1428571   0.4123930   0.1561280), wk =   0.0174927
        k(   68) = (   0.1428571   0.4123930   0.2341920), wk =   0.0174927
        k(   69) = (   0.1428571   0.4948717   0.0000000), wk =   0.0087464
        k(   70) = (   0.1428571   0.4948717   0.0780640), wk =   0.0174927
        k(   71) = (   0.1428571   0.4948717   0.1561280), wk =   0.0174927
        k(   72) = (   0.1428571   0.4948717   0.2341920), wk =   0.0174927
        k(   73) = (   0.1428571   0.5773503   0.0000000), wk =   0.0043732
        k(   74) = (   0.1428571   0.5773503   0.0780640), wk =   0.0087464
        k(   75) = (   0.1428571   0.5773503   0.1561280), wk =   0.0087464
        k(   76) = (   0.1428571   0.5773503   0.2341920), wk =   0.0087464
        k(   77) = (   0.2142857   0.3711537   0.0000000), wk =   0.0043732
        k(   78) = (   0.2142857   0.3711537   0.0780640), wk =   0.0087464
        k(   79) = (   0.2142857   0.3711537   0.1561280), wk =   0.0087464
        k(   80) = (   0.2142857   0.3711537   0.2341920), wk =   0.0087464
        k(   81) = (   0.2142857   0.4536324   0.0000000), wk =   0.0087464
        k(   82) = (   0.2142857   0.4536324   0.0780640), wk =   0.0174927
        k(   83) = (   0.2142857   0.4536324   0.1561280), wk =   0.0174927
        k(   84) = (   0.2142857   0.4536324   0.2341920), wk =   0.0174927
        k(   85) = (   0.2142857   0.5361110   0.0000000), wk =   0.0087464
        k(   86) = (   0.2142857   0.5361110   0.0780640), wk =   0.0174927
        k(   87) = (   0.2142857   0.5361110   0.1561280), wk =   0.0174927
        k(   88) = (   0.2142857   0.5361110   0.2341920), wk =   0.0174927
        k(   89) = (   0.2857143   0.4948717   0.0000000), wk =   0.0043732
        k(   90) = (   0.2857143   0.4948717   0.0780640), wk =   0.0087464
        k(   91) = (   0.2857143   0.4948717   0.1561280), wk =   0.0087464
        k(   92) = (   0.2857143   0.4948717   0.2341920), wk =   0.0087464
        k(   93) = (   0.2857143   0.5773503   0.0000000), wk =   0.0043732
        k(   94) = (   0.2857143   0.5773503   0.0780640), wk =   0.0087464
        k(   95) = (   0.2857143   0.5773503   0.1561280), wk =   0.0087464
        k(   96) = (   0.2857143   0.5773503   0.2341920), wk =   0.0087464

                       cryst. coord.
        k(    1) = (   0.0000000   0.0000000   0.0000000), wk =   0.0007289
        k(    2) = (   0.0000000   0.0000000   0.1428571), wk =   0.0014577
        k(    3) = (   0.0000000   0.0000000   0.2857143), wk =   0.0014577
        k(    4) = (   0.0000000   0.0000000   0.4285714), wk =   0.0014577
        k(    5) = (   0.0000000   0.0714286   0.0000000), wk =   0.0043732
        k(    6) = (   0.0000000   0.0714286   0.1428571), wk =   0.0087464
        k(    7) = (   0.0000000   0.0714286   0.2857143), wk =   0.0087464
        k(    8) = (   0.0000000   0.0714286   0.4285714), wk =   0.0087464
        k(    9) = (   0.0000000   0.1428571   0.0000000), wk =   0.0043732
        k(   10) = (   0.0000000   0.1428571   0.1428571), wk =   0.0087464
        k(   11) = (   0.0000000   0.1428571   0.2857143), wk =   0.0087464
        k(   12) = (   0.0000000   0.1428571   0.4285714), wk =   0.0087464
        k(   13) = (   0.0000000   0.2142857   0.0000000), wk =   0.0043732
        k(   14) = (   0.0000000   0.2142857   0.1428571), wk =   0.0087464
        k(   15) = (   0.0000000   0.2142857   0.2857143), wk =   0.0087464
        k(   16) = (   0.0000000   0.2142857   0.4285714), wk =   0.0087464
        k(   17) = (   0.0000000   0.2857143   0.0000000), wk =   0.0043732
        k(   18) = (   0.0000000   0.2857143   0.1428571), wk =   0.0087464
        k(   19) = (   0.0000000   0.2857143   0.2857143), wk =   0.0087464
        k(   20) = (   0.0000000   0.2857143   0.4285714), wk =   0.0087464
        k(   21) = (   0.0000000   0.3571429   0.0000000), wk =   0.0043732
        k(   22) = (   0.0000000   0.3571429   0.1428571), wk =   0.0087464
        k(   23) = (   0.0000000   0.3571429   0.2857143), wk =   0.0087464
        k(   24) = (   0.0000000   0.3571429   0.4285714), wk =   0.0087464
        k(   25) = (   0.0000000   0.4285714   0.0000000), wk =   0.0043732
        k(   26) = (   0.0000000   0.4285714   0.1428571), wk =   0.0087464
        k(   27) = (   0.0000000   0.4285714   0.2857143), wk =   0.0087464
        k(   28) = (   0.0000000   0.4285714   0.4285714), wk =   0.0087464
        k(   29) = (   0.0000000  -0.5000000   0.0000000), wk =   0.0021866
        k(   30) = (   0.0000000  -0.5000000   0.1428571), wk =   0.0043732
        k(   31) = (   0.0000000  -0.5000000   0.2857143), wk =   0.0043732
        k(   32) = (   0.0000000  -0.5000000   0.4285714), wk =   0.0043732
        k(   33) = (   0.0714286   0.0714286   0.0000000), wk =   0.0043732
        k(   34) = (   0.0714286   0.0714286   0.1428571), wk =   0.0087464
        k(   35) = (   0.0714286   0.0714286   0.2857143), wk =   0.0087464
        k(   36) = (   0.0714286   0.0714286   0.4285714), wk =   0.0087464
        k(   37) = (   0.0714286   0.1428571   0.0000000), wk =   0.0087464
        k(   38) = (   0.0714286   0.1428571   0.1428571), wk =   0.0174927
        k(   39) = (   0.0714286   0.1428571   0.2857143), wk =   0.0174927
        k(   40) = (   0.0714286   0.1428571   0.4285714), wk =   0.0174927
        k(   41) = (   0.0714286   0.2142857   0.0000000), wk =   0.0087464
        k(   42) = (   0.0714286   0.2142857   0.1428571), wk =   0.0174927
        k(   43) = (   0.0714286   0.2142857   0.2857143), wk =   0.0174927
        k(   44) = (   0.0714286   0.2142857   0.4285714), wk =   0.0174927
        k(   45) = (   0.0714286   0.2857143   0.0000000), wk =   0.0087464
        k(   46) = (   0.0714286   0.2857143   0.1428571), wk =   0.0174927
        k(   47) = (   0.0714286   0.2857143   0.2857143), wk =   0.0174927
        k(   48) = (   0.0714286   0.2857143   0.4285714), wk =   0.0174927
        k(   49) = (   0.0714286   0.3571429   0.0000000), wk =   0.0087464
        k(   50) = (   0.0714286   0.3571429   0.1428571), wk =   0.0174927
        k(   51) = (   0.0714286   0.3571429   0.2857143), wk =   0.0174927
        k(   52) = (   0.0714286   0.3571429   0.4285714), wk =   0.0174927
        k(   53) = (   0.0714286   0.4285714   0.0000000), wk =   0.0087464
        k(   54) = (   0.0714286   0.4285714   0.1428571), wk =   0.0174927
        k(   55) = (   0.0714286   0.4285714   0.2857143), wk =   0.0174927
        k(   56) = (   0.0714286   0.4285714   0.4285714), wk =   0.0174927
        k(   57) = (   0.1428571   0.1428571   0.0000000), wk =   0.0043732
        k(   58) = (   0.1428571   0.1428571   0.1428571), wk =   0.0087464
        k(   59) = (   0.1428571   0.1428571   0.2857143), wk =   0.0087464
        k(   60) = (   0.1428571   0.1428571   0.4285714), wk =   0.0087464
        k(   61) = (   0.1428571   0.2142857   0.0000000), wk =   0.0087464
        k(   62) = (   0.1428571   0.2142857   0.1428571), wk =   0.0174927
        k(   63) = (   0.1428571   0.2142857   0.2857143), wk =   0.0174927
        k(   64) = (   0.1428571   0.2142857   0.4285714), wk =   0.0174927
        k(   65) = (   0.1428571   0.2857143   0.0000000), wk =   0.0087464
        k(   66) = (   0.1428571   0.2857143   0.1428571), wk =   0.0174927
        k(   67) = (   0.1428571   0.2857143   0.2857143), wk =   0.0174927
        k(   68) = (   0.1428571   0.2857143   0.4285714), wk =   0.0174927
        k(   69) = (   0.1428571   0.3571429   0.0000000), wk =   0.0087464
        k(   70) = (   0.1428571   0.3571429   0.1428571), wk =   0.0174927
        k(   71) = (   0.1428571   0.3571429   0.2857143), wk =   0.0174927
        k(   72) = (   0.1428571   0.3571429   0.4285714), wk =   0.0174927
        k(   73) = (   0.1428571   0.4285714   0.0000000), wk =   0.0043732
        k(   74) = (   0.1428571   0.4285714   0.1428571), wk =   0.0087464
        k(   75) = (   0.1428571   0.4285714   0.2857143), wk =   0.0087464
        k(   76) = (   0.1428571   0.4285714   0.4285714), wk =   0.0087464
        k(   77) = (   0.2142857   0.2142857   0.0000000), wk =   0.0043732
        k(   78) = (   0.2142857   0.2142857   0.1428571), wk =   0.0087464
        k(   79) = (   0.2142857   0.2142857   0.2857143), wk =   0.0087464
        k(   80) = (   0.2142857   0.2142857   0.4285714), wk =   0.0087464
        k(   81) = (   0.2142857   0.2857143   0.0000000), wk =   0.0087464
        k(   82) = (   0.2142857   0.2857143   0.1428571), wk =   0.0174927
        k(   83) = (   0.2142857   0.2857143   0.2857143), wk =   0.0174927
        k(   84) = (   0.2142857   0.2857143   0.4285714), wk =   0.0174927
        k(   85) = (   0.2142857   0.3571429   0.0000000), wk =   0.0087464
        k(   86) = (   0.2142857   0.3571429   0.1428571), wk =   0.0174927
        k(   87) = (   0.2142857   0.3571429   0.2857143), wk =   0.0174927
        k(   88) = (   0.2142857   0.3571429   0.4285714), wk =   0.0174927
        k(   89) = (   0.2857143   0.2857143   0.0000000), wk =   0.0043732
        k(   90) = (   0.2857143   0.2857143   0.1428571), wk =   0.0087464
        k(   91) = (   0.2857143   0.2857143   0.2857143), wk =   0.0087464
        k(   92) = (   0.2857143   0.2857143   0.4285714), wk =   0.0087464
        k(   93) = (   0.2857143   0.3571429   0.0000000), wk =   0.0043732
        k(   94) = (   0.2857143   0.3571429   0.1428571), wk =   0.0087464
        k(   95) = (   0.2857143   0.3571429   0.2857143), wk =   0.0087464
        k(   96) = (   0.2857143   0.3571429   0.4285714), wk =   0.0087464

     Dense  grid:    16675 G-vectors     FFT dimensions: (  27,  27,  50)

     Dynamical RAM for                 wfc:       0.04 MB

     Dynamical RAM for     wfc (w. buffer):       3.50 MB

     Dynamical RAM for           str. fact:       0.02 MB

     Dynamical RAM for           local pot:       0.00 MB

     Dynamical RAM for          nlocal pot:       0.08 MB

     Dynamical RAM for                qrad:       1.34 MB

     Dynamical RAM for          rho,v,vnew:       0.24 MB

     Dynamical RAM for               rhoin:       0.08 MB

     Dynamical RAM for            rho*nmix:       0.58 MB

     Dynamical RAM for           G-vectors:       0.08 MB

     Dynamical RAM for          h,s,v(r/c):       0.05 MB

     Dynamical RAM for          <psi|beta>:       0.01 MB

     Dynamical RAM for                 psi:       0.07 MB

     Dynamical RAM for                hpsi:       0.07 MB

     Dynamical RAM for                spsi:       0.07 MB

     Dynamical RAM for      wfcinit/wfcrot:       0.08 MB

     Dynamical RAM for           addusdens:       1.73 MB

     Estimated static dynamical RAM per process >       5.52 MB

     Estimated max dynamical RAM per process >       7.83 MB

     Estimated total dynamical RAM >     210.99 MB

     Check: negative core charge=   -0.000004
     Generating pointlists ...
     new r_m :   0.4125 (alat units)  2.1038 (a.u.) for type    1

     The initial density is read from file :
     ./out/Zn.save/charge-density


     starting charge      24.1319, renormalised to      24.0000

     negative rho (up, down):  6.065E-01 6.065E-01
     Starting wfcs from file
     Checking if some PAW data can be deallocated... 

     total cpu time spent up to now is        0.5 secs

     Self-consistent Calculation

     iteration #  1     ecut=    70.00 Ry     beta= 0.70
     Davidson diagonalization with overlap

---- Real-time Memory Report at c_bands before calling an iterative solver
            58 MiB given to the printing process from OS
             0 MiB allocation reported by mallinfo(arena+hblkhd)
        149572 MiB available memory on the node where the printing process lives
------------------
     ethr =  1.00E-05,  avg # of iterations =  8.7

     negative rho (up, down):  2.483E-02 2.483E-02

     total cpu time spent up to now is        2.4 secs

     total energy              =    -487.28456115 Ry
     estimated scf accuracy    <       0.32430016 Ry

     total magnetization       =     0.00 Bohr mag/cell
     absolute magnetization    =     0.00 Bohr mag/cell

     iteration #  2     ecut=    70.00 Ry     beta= 0.70
     Davidson diagonalization with overlap

---- Real-time Memory Report at c_bands before calling an iterative solver
            79 MiB given to the printing process from OS
             0 MiB allocation reported by mallinfo(arena+hblkhd)
        149279 MiB available memory on the node where the printing process lives
------------------
     ethr =  1.35E-03,  avg # of iterations =  2.0

     total cpu time spent up to now is        3.2 secs

     total energy              =    -487.44203746 Ry
     estimated scf accuracy    <       0.02942341 Ry

     total magnetization       =     0.00 Bohr mag/cell
     absolute magnetization    =     0.00 Bohr mag/cell

     iteration #  3     ecut=    70.00 Ry     beta= 0.70
     Davidson diagonalization with overlap

---- Real-time Memory Report at c_bands before calling an iterative solver
            80 MiB given to the printing process from OS
             0 MiB allocation reported by mallinfo(arena+hblkhd)
        149258 MiB available memory on the node where the printing process lives
------------------
     ethr =  1.23E-04,  avg # of iterations =  2.4

     total cpu time spent up to now is        4.1 secs

     total energy              =    -487.44610522 Ry
     estimated scf accuracy    <       0.00027790 Ry

     total magnetization       =     0.00 Bohr mag/cell
     absolute magnetization    =     0.00 Bohr mag/cell

     iteration #  4     ecut=    70.00 Ry     beta= 0.70
     Davidson diagonalization with overlap

---- Real-time Memory Report at c_bands before calling an iterative solver
            81 MiB given to the printing process from OS
             0 MiB allocation reported by mallinfo(arena+hblkhd)
        149252 MiB available memory on the node where the printing process lives
------------------
     ethr =  1.16E-06,  avg # of iterations =  5.2

     total cpu time spent up to now is        5.3 secs

     total energy              =    -487.44628745 Ry
     estimated scf accuracy    <       0.00009063 Ry

     total magnetization       =     0.00 Bohr mag/cell
     absolute magnetization    =     0.00 Bohr mag/cell

     iteration #  5     ecut=    70.00 Ry     beta= 0.70
     Davidson diagonalization with overlap

---- Real-time Memory Report at c_bands before calling an iterative solver
            81 MiB given to the printing process from OS
             0 MiB allocation reported by mallinfo(arena+hblkhd)
        149243 MiB available memory on the node where the printing process lives
------------------
     ethr =  3.78E-07,  avg # of iterations =  2.0

     total cpu time spent up to now is        6.2 secs

     total energy              =    -487.44631602 Ry
     estimated scf accuracy    <       0.00000681 Ry

     total magnetization       =     0.00 Bohr mag/cell
     absolute magnetization    =     0.00 Bohr mag/cell

     iteration #  6     ecut=    70.00 Ry     beta= 0.70
     Davidson diagonalization with overlap

---- Real-time Memory Report at c_bands before calling an iterative solver
            82 MiB given to the printing process from OS
             0 MiB allocation reported by mallinfo(arena+hblkhd)
        149236 MiB available memory on the node where the printing process lives
------------------
     ethr =  2.84E-08,  avg # of iterations =  2.0
 
     Magnetic moment per site  (integrated on atomic sphere of radius R)
     atom   1 (R=0.413)  charge= 10.7340  magn=  0.0000
     atom   2 (R=0.413)  charge= 10.7340  magn=  0.0000

     total cpu time spent up to now is        7.0 secs

     End of self-consistent calculation

 ------ SPIN UP ------------


          k = 0.0000 0.0000 0.0000 (  2089 PWs)   bands (ev):

     0.5180   2.3166   2.9885   3.1925   3.1925   3.2439   3.2439   3.5382
     3.5382   3.7532   3.7532   7.2814   7.8584  24.5702  27.4996  27.4996

     occupation numbers 
     1.0000   1.0000   1.0000   1.0000   1.0000   1.0000   1.0000   1.0000
     1.0000   1.0000   1.0000   1.0000   1.0000   0.0000   0.0000   0.0000

          k = 0.0000 0.0000 0.0781 (  2059 PWs)   bands (ev):

     0.6424   2.3059   2.9899   3.1903   3.1903   3.2379   3.2379   3.5536
     3.5536   3.7460   3.7460   5.8465   9.5624  22.6007  27.6222  27.6222

     occupation numbers 
     1.0000   1.0000   1.0000   1.0000   1.0000   1.0000   1.0000   1.0000
     1.0000   1.0000   1.0000   1.0000   1.0000   0.0000   0.0000   0.0000

          k = 0.0000 0.0000 0.1561 (  2083 PWs)   bands (ev):

     1.0024   2.2469   3.0089   3.1880   3.1880   3.2227   3.2227   3.5929
     3.5929   3.7243   3.7243   4.4717  11.7677  19.6973  27.9764  27.9764

     occupation numbers 
     1.0000   1.0000   1.0000   1.0000   1.0000   1.0000   1.0000   1.0000
     1.0000   1.0000   1.0000   1.0000   0.0000   0.0000   0.0000   0.0000

          k = 0.0000 0.0000 0.2342 (  2070 PWs)   bands (ev):

     1.5341   2.0257   3.1142   3.1923   3.1923   3.2052   3.2052   3.5236
     3.6421   3.6421   3.6885   3.6885  14.2100  16.8644  28.5039  28.5040

     occupation numbers 
     1.0000   1.0000   1.0000   1.0000   1.0000   1.0000   1.0000   1.0000
     1.0000   1.0000   1.0000   1.0000   0.0000   0.0000   0.0000   0.0000

          k = 0.0000 0.0825 0.0000 (  2075 PWs)   bands (ev):

     0.6651   2.3776   3.0013   3.1803   3.2260   3.2293   3.2755   3.5082
     3.5247   3.6763   3.7552   7.5114   7.9379  24.7228  25.1422  26.2846

     occupation numbers 
     1.0000   1.0000   1.0000   1.0000   1.0000   1.0000   1.0000   1.0000
     1.0000   1.0000   1.0000   1.0000   1.0000   0.0000   0.0000   0.0000

          k = 0.0000 0.0825 0.0781 (  2072 PWs)   bands (ev):

     0.7886   2.3707   3.0019   3.1755   3.2218   3.2233   3.2694   3.5282
     3.5414   3.6623   3.7474   6.0206   9.7017  22.7318  25.2856  26.4151

     occupation numbers 
     1.0000   1.0000   1.0000   1.0000   1.0000   1.0000   1.0000   1.0000
     1.0000   1.0000   1.0000   1.0000   1.0000   0.0000   0.0000   0.0000

          k = 0.0000 0.0825 0.1561 (  2070 PWs)   bands (ev):

     1.1454   2.3253   3.0151   3.1695   3.2031   3.2200   3.2539   3.5714
     3.5836   3.6153   3.7238   4.6676  11.9080  19.8305  25.6594  26.8023

     occupation numbers 
     1.0000   1.0000   1.0000   1.0000   1.0000   1.0000   1.0000   1.0000
     1.0000   1.0000   1.0000   1.0000   0.0000   0.0000   0.0000   0.0000

          k = 0.0000 0.0825 0.2342 (  2080 PWs)   bands (ev):

     1.6677   2.1331   3.0937   3.1763   3.1818   3.2237   3.2363   3.3898
     3.6359   3.6696   3.6853   3.8684  14.3484  17.0004  26.2730  27.1145

     occupation numbers 
     1.0000   1.0000   1.0000   1.0000   1.0000   1.0000   1.0000   1.0000
     1.0000   1.0000   1.0000   1.0000   0.0000   0.0000   0.0000   0.0000

          k = 0.0000 0.1650 0.0000 (  2068 PWs)   bands (ev):

     1.0964   2.5316   3.0206   3.1561   3.2197   3.3211   3.3652   3.3878
     3.4890   3.5369   3.7588   8.1440   8.1933  21.8649  24.6780  25.1208

     occupation numbers 
     1.0000   1.0000   1.0000   1.0000   1.0000   1.0000   1.0000   1.0000
     1.0000   1.0000   1.0000   1.0000   1.0000   0.0000   0.0000   0.0000

          k = 0.0000 0.1650 0.0781 (  2076 PWs)   bands (ev):

     1.2160   2.5339   3.0229   3.1432   3.2000   3.3157   3.3582   3.4053
     3.5107   3.5394   3.7493   6.4834  10.1247  21.9652  23.1638  24.8166

     occupation numbers 
     1.0000   1.0000   1.0000   1.0000   1.0000   1.0000   1.0000   1.0000
     1.0000   1.0000   1.0000   1.0000   1.0000   0.0000   0.0000   0.0000

          k = 0.0000 0.1650 0.1561 (  2081 PWs)   bands (ev):

     1.5577   2.5228   3.0276   3.1222   3.1632   3.3089   3.3418   3.3804
     3.5611   3.5951   3.7213   5.1167  12.3278  20.2069  22.4157  24.9930

     occupation numbers 
     1.0000   1.0000   1.0000   1.0000   1.0000   1.0000   1.0000   1.0000
     1.0000   1.0000   1.0000   1.0000   0.0000   0.0000   0.0000   0.0000

          k = 0.0000 0.1650 0.2342 (  2077 PWs)   bands (ev):

     2.0384   2.4110   3.0448   3.0979   3.1575   3.2591   3.3111   3.3238
     3.6207   3.6768   3.7602   4.1853  14.7601  17.4009  23.0311  23.8983

     occupation numbers 
     1.0000   1.0000   1.0000   1.0000   1.0000   1.0000   1.0000   1.0000
     1.0000   1.0000   1.0000   1.0000   0.0000   0.0000   0.0000   0.0000

          k = 0.0000 0.2474 0.0000 (  2076 PWs)   bands (ev):

     1.7577   2.6710   3.0516   3.1305   3.1807   3.3282   3.4350   3.4416
     3.4621   3.4977   3.7600   8.6709   9.0830  18.7081  23.2539  24.2903

     occupation numbers 
     1.0000   1.0000   1.0000   1.0000   1.0000   1.0000   1.0000   1.0000
     1.0000   1.0000   1.0000   1.0000   1.0000   0.0000   0.0000   0.0000

          k = 0.0000 0.2474 0.0781 (  2079 PWs)   bands (ev):

     1.8603   2.6809   3.0503   3.1053   3.1757   3.3223   3.4259   3.4810
     3.4811   3.5047   3.7490   7.1736  10.8379  18.8310  23.1850  23.3982

     occupation numbers 
     1.0000   1.0000   1.0000   1.0000   1.0000   1.0000   1.0000   1.0000
     1.0000   1.0000   1.0000   1.0000   0.0000   0.0000   0.0000   0.0000

          k = 0.0000 0.2474 0.1561 (  2076 PWs)   bands (ev):

     2.1374   2.6996   3.0284   3.0521   3.1787   3.3022   3.4195   3.4686
     3.5531   3.6327   3.7174   5.7689  13.0215  19.1672  20.9382  21.8870

     occupation numbers 
     1.0000   1.0000   1.0000   1.0000   1.0000   1.0000   1.0000   1.0000
     1.0000   1.0000   1.0000   1.0000   0.0000   0.0000   0.0000   0.0000

          k = 0.0000 0.2474 0.2342 (  2070 PWs)   bands (ev):

     2.4697   2.6688   2.9876   3.0017   3.2142   3.2636   3.4283   3.4472
     3.6122   3.6696   3.9819   4.6841  15.4294  18.0070  19.9525  20.7869

     occupation numbers 
     1.0000   1.0000   1.0000   1.0000   1.0000   1.0000   1.0000   1.0000
     1.0000   1.0000   1.0000   1.0000   0.0000   0.0000   0.0000   0.0000

          k = 0.0000 0.3299 0.0000 (  2084 PWs)   bands (ev):

     2.3789   2.6726   2.9848   3.1409   3.2562   3.3445   3.3924   3.6235
     3.6493   3.7020   3.7579   9.4264  10.2656  15.7677  21.4053  22.0852

     occupation numbers 
     1.0000   1.0000   1.0000   1.0000   1.0000   1.0000   1.0000   1.0000
     1.0000   1.0000   1.0000   1.0000   1.0000   0.0000   0.0000   0.0000

          k = 0.0000 0.3299 0.0781 (  2082 PWs)   bands (ev):

     2.4150   2.6825   2.9812   3.1046   3.2132   3.4056   3.4804   3.6261
     3.6413   3.7338   3.7487   8.1009  11.8312  15.8934  20.2977  22.2339

     occupation numbers 
     1.0000   1.0000   1.0000   1.0000   1.0000   1.0000   1.0000   1.0000
     1.0000   1.0000   1.0000   1.0000   0.0000   0.0000   0.0000   0.0000

          k = 0.0000 0.3299 0.1561 (  2076 PWs)   bands (ev):

     2.5026   2.7010   2.9597   2.9906   3.2986   3.4426   3.5425   3.6035
     3.6471   3.7253   4.0074   6.6804  13.9642  16.2639  19.0066  21.6593

     occupation numbers 
     1.0000   1.0000   1.0000   1.0000   1.0000   1.0000   1.0000   1.0000
     1.0000   1.0000   1.0000   1.0000   0.0000   0.0000   0.0000   0.0000

          k = 0.0000 0.3299 0.2342 (  2078 PWs)   bands (ev):

     2.6051   2.6855   2.9202   2.9306   3.4045   3.4924   3.4960   3.5542
     3.6692   3.6967   4.6128   5.5095  16.2356  16.8280  18.0064  19.1028

     occupation numbers 
     1.0000   1.0000   1.0000   1.0000   1.0000   1.0000   1.0000   1.0000
     1.0000   1.0000   1.0000   1.0000   0.0000   0.0000   0.0000   0.0000

          k = 0.0000 0.4124 0.0000 (  2096 PWs)   bands (ev):

     2.5423   2.6231   2.8379   3.2396   3.2668   3.3503   3.4663   3.7540
     3.7723   3.7916   4.7471  10.4553  11.6527  13.1250  18.7183  19.8751

     occupation numbers 
     1.0000   1.0000   1.0000   1.0000   1.0000   1.0000   1.0000   1.0000
     1.0000   1.0000   1.0000   1.0000   0.0000   0.0000   0.0000   0.0000

          k = 0.0000 0.4124 0.0781 (  2080 PWs)   bands (ev):

     2.5379   2.6164   2.8595   3.1172   3.3106   3.3680   3.5752   3.7243
     3.7746   3.7994   4.8411   9.2783  12.9756  13.3118  17.6766  21.0481

     occupation numbers 
     1.0000   1.0000   1.0000   1.0000   1.0000   1.0000   1.0000   1.0000
     1.0000   1.0000   1.0000   1.0000   0.0000   0.0000   0.0000   0.0000

          k = 0.0000 0.4124 0.1561 (  2082 PWs)   bands (ev):

     2.5374   2.6208   2.8714   2.9587   3.4181   3.4275   3.6601   3.6731
     3.7810   3.8026   5.1717   7.8828  13.5865  14.9300  16.6131  21.8144

     occupation numbers 
     1.0000   1.0000   1.0000   1.0000   1.0000   1.0000   1.0000   1.0000
     1.0000   1.0000   1.0000   1.0000   0.0000   0.0000   0.0000   0.0000

          k = 0.0000 0.4124 0.2342 (  2081 PWs)   bands (ev):

     2.5673   2.6106   2.8572   2.8678   3.4924   3.5644   3.5781   3.6617
     3.7897   3.7980   5.7961   6.7086  14.1966  14.9760  17.7792  20.1120

     occupation numbers 
     1.0000   1.0000   1.0000   1.0000   1.0000   1.0000   1.0000   1.0000
     1.0000   1.0000   1.0000   1.0000   0.0000   0.0000   0.0000   0.0000

          k = 0.0000 0.4949 0.0000 (  2092 PWs)   bands (ev):

     2.5135   2.5940   2.7492   3.2140   3.3122   3.3220   3.5912   3.7505
     3.8757   3.8953   6.3053  10.3126  12.2409  13.1762  16.3222  17.6914

     occupation numbers 
     1.0000   1.0000   1.0000   1.0000   1.0000   1.0000   1.0000   1.0000
     1.0000   1.0000   1.0000   1.0000   0.0000   0.0000   0.0000   0.0000

          k = 0.0000 0.4949 0.0781 (  2085 PWs)   bands (ev):

     2.5186   2.5584   2.7861   3.1024   3.3417   3.3657   3.6703   3.7266
     3.8773   3.8955   6.4110  10.1143  11.4411  14.1346  15.7362  18.8508

     occupation numbers 
     1.0000   1.0000   1.0000   1.0000   1.0000   1.0000   1.0000   1.0000
     1.0000   1.0000   1.0000   1.0000   0.0000   0.0000   0.0000   0.0000

          k = 0.0000 0.4949 0.1561 (  2087 PWs)   bands (ev):

     2.5079   2.5510   2.8131   2.9348   3.3974   3.4950   3.6624   3.7578
     3.8813   3.8945   6.7450   9.2139  11.3597  13.6332  16.9910  20.5348

     occupation numbers 
     1.0000   1.0000   1.0000   1.0000   1.0000   1.0000   1.0000   1.0000
     1.0000   1.0000   1.0000   1.0000   0.0000   0.0000   0.0000   0.0000

          k = 0.0000 0.4949 0.2342 (  2084 PWs)   bands (ev):

     2.5188   2.5488   2.8089   2.8289   3.4797   3.5741   3.6470   3.7504
     3.8863   3.8912   7.3336   8.1760  11.8609  12.6522  19.0978  20.9610

     occupation numbers 
     1.0000   1.0000   1.0000   1.0000   1.0000   1.0000   1.0000   1.0000
     1.0000   1.0000   1.0000   1.0000   0.0000   0.0000   0.0000   0.0000

          k = 0.0000-0.5774 0.0000 (  2090 PWs)   bands (ev):

     2.4947   2.5816   2.7198   3.1952   3.3121   3.3381   3.6319   3.7491
     3.9125   3.9336   7.9228   8.5187  13.3848  14.2448  14.7403  16.4019

     occupation numbers 
     1.0000   1.0000   1.0000   1.0000   1.0000   1.0000   1.0000   1.0000
     1.0000   1.0000   1.0000   1.0000   0.0000   0.0000   0.0000   0.0000

          k = 0.0000-0.5774 0.0781 (  2092 PWs)   bands (ev):

     2.5042   2.5363   2.7617   3.0933   3.3323   3.3856   3.7049   3.7256
     3.9140   3.9327   8.0341   8.5830  12.7233  12.9099  16.3418  17.2777

     occupation numbers 
     1.0000   1.0000   1.0000   1.0000   1.0000   1.0000   1.0000   1.0000
     1.0000   1.0000   1.0000   1.0000   0.0000   0.0000   0.0000   0.0000

          k = 0.0000-0.5774 0.1561 (  2080 PWs)   bands (ev):

     2.4945   2.5240   2.7928   2.9254   3.3897   3.5158   3.6613   3.7880
     3.9176   3.9301   8.3523   8.7621  11.6486  11.6779  18.3597  18.9830

     occupation numbers 
     1.0000   1.0000   1.0000   1.0000   1.0000   1.0000   1.0000   1.0000
     1.0000   1.0000   1.0000   1.0000   0.0000   0.0000   0.0000   0.0000

          k = 0.0000-0.5774 0.2342 (  2068 PWs)   bands (ev):

     2.4997   2.5260   2.7917   2.8153   3.4745   3.5712   3.6720   3.7788
     3.9220   3.9264   8.7731   8.9413  10.8661  10.8842  20.3213  20.6393

     occupation numbers 
     1.0000   1.0000   1.0000   1.0000   1.0000   1.0000   1.0000   1.0000
     1.0000   1.0000   1.0000   1.0000   0.0000   0.0000   0.0000   0.0000

          k = 0.0714 0.1237 0.0000 (  2077 PWs)   bands (ev):

     0.9549   2.4871   3.0163   3.1658   3.2001   3.2947   3.3436   3.4565
     3.4637   3.5859   3.7549   7.9410   8.1055  23.4536  23.6769  25.0059

     occupation numbers 
     1.0000   1.0000   1.0000   1.0000   1.0000   1.0000   1.0000   1.0000
     1.0000   1.0000   1.0000   1.0000   1.0000   0.0000   0.0000   0.0000

          k = 0.0714 0.1237 0.0781 (  2074 PWs)   bands (ev):

     1.0761   2.4867   3.0180   3.1525   3.1896   3.2901   3.3366   3.4629
     3.4952   3.5795   3.7464   6.3362   9.9831  22.9444  23.5830  23.8900

     occupation numbers 
     1.0000   1.0000   1.0000   1.0000   1.0000   1.0000   1.0000   1.0000
     1.0000   1.0000   1.0000   1.0000   1.0000   0.0000   0.0000   0.0000

          k = 0.0714 0.1237 0.1561 (  2069 PWs)   bands (ev):

     1.4241   2.4657   3.0249   3.1345   3.1620   3.2837   3.3206   3.4312
     3.5771   3.5868   3.7218   4.9782  12.1881  20.0890  23.9690  24.2283

     occupation numbers 
     1.0000   1.0000   1.0000   1.0000   1.0000   1.0000   1.0000   1.0000
     1.0000   1.0000   1.0000   1.0000   0.0000   0.0000   0.0000   0.0000

          k = 0.0714 0.1237 0.2342 (  2078 PWs)   bands (ev):

     1.9220   2.3287   3.0593   3.1230   3.1497   3.2632   3.3037   3.3064
     3.6288   3.6726   3.7318   4.0889  14.6237  17.2692  24.6051  24.8448

     occupation numbers 
     1.0000   1.0000   1.0000   1.0000   1.0000   1.0000   1.0000   1.0000
     1.0000   1.0000   1.0000   1.0000   0.0000   0.0000   0.0000   0.0000

          k = 0.0714 0.2062 0.0000 (  2073 PWs)   bands (ev):

     1.5090   2.6512   3.0135   3.1413   3.2151   3.2715   3.4008   3.4224
     3.4808   3.5191   3.7521   8.4741   8.7208  20.3441  22.1653  25.3194

     occupation numbers 
     1.0000   1.0000   1.0000   1.0000   1.0000   1.0000   1.0000   1.0000
     1.0000   1.0000   1.0000   1.0000   1.0000   0.0000   0.0000   0.0000

          k = 0.0714 0.2062 0.0781 (  2073 PWs)   bands (ev):

     1.6214   2.6601   3.0206   3.1188   3.1737   3.2871   3.4068   3.4481
     3.4746   3.5383   3.7438   6.9053  10.5531  20.4643  22.2724  23.5387

     occupation numbers 
     1.0000   1.0000   1.0000   1.0000   1.0000   1.0000   1.0000   1.0000
     1.0000   1.0000   1.0000   1.0000   1.0000   0.0000   0.0000   0.0000

          k = 0.0714 0.2062 0.1561 (  2078 PWs)   bands (ev):

     1.9360   2.6742   3.0348   3.0698   3.1155   3.2672   3.3931   3.4527
     3.5639   3.5973   3.7239   5.5148  12.7462  20.4302  21.0437  22.7299

     occupation numbers 
     1.0000   1.0000   1.0000   1.0000   1.0000   1.0000   1.0000   1.0000
     1.0000   1.0000   1.0000   1.0000   0.0000   0.0000   0.0000   0.0000

          k = 0.0714 0.2062 0.2342 (  2078 PWs)   bands (ev):

     2.3500   2.6243   3.0108   3.0252   3.1198   3.1929   3.4049   3.4281
     3.6210   3.6652   3.8866   4.4834  15.1667  17.7876  21.5323  22.4005

     occupation numbers 
     1.0000   1.0000   1.0000   1.0000   1.0000   1.0000   1.0000   1.0000
     1.0000   1.0000   1.0000   1.0000   0.0000   0.0000   0.0000   0.0000

          k = 0.0714 0.2887 0.0000 (  2077 PWs)   bands (ev):

     2.2026   2.7287   3.0702   3.0752   3.1302   3.3341   3.3575   3.4523
     3.5807   3.7115   3.7479   9.0981   9.7748  17.2993  20.9786  22.9246

     occupation numbers 
     1.0000   1.0000   1.0000   1.0000   1.0000   1.0000   1.0000   1.0000
     1.0000   1.0000   1.0000   1.0000   1.0000   0.0000   0.0000   0.0000

          k = 0.0714 0.2887 0.0781 (  2078 PWs)   bands (ev):

     2.2755   2.7414   3.0413   3.0848   3.1109   3.3369   3.4200   3.4553
     3.5971   3.6849   3.7684   7.7103  11.4110  17.4248  21.1061  21.8063

     occupation numbers 
     1.0000   1.0000   1.0000   1.0000   1.0000   1.0000   1.0000   1.0000
     1.0000   1.0000   1.0000   1.0000   0.0000   0.0000   0.0000   0.0000

          k = 0.0714 0.2887 0.1561 (  2082 PWs)   bands (ev):

     2.4539   2.7703   2.9854   3.0244   3.1635   3.3127   3.4464   3.5839
     3.6057   3.6764   3.8688   6.2949  13.5711  17.7900  20.5040  21.2029

     occupation numbers 
     1.0000   1.0000   1.0000   1.0000   1.0000   1.0000   1.0000   1.0000
     1.0000   1.0000   1.0000   1.0000   0.0000   0.0000   0.0000   0.0000

          k = 0.0714 0.2887 0.2342 (  2076 PWs)   bands (ev):

     2.6407   2.7599   2.9423   2.9751   3.2210   3.2724   3.4817   3.5397
     3.6597   3.6865   4.3262   5.1539  15.9437  18.1076  18.9627  19.4181

     occupation numbers 
     1.0000   1.0000   1.0000   1.0000   1.0000   1.0000   1.0000   1.0000
     1.0000   1.0000   1.0000   1.0000   0.0000   0.0000   0.0000   0.0000

          k = 0.0714 0.3712 0.0000 (  2078 PWs)   bands (ev):

     2.5788   2.6850   2.9058   3.1946   3.2728   3.3099   3.3854   3.5971
     3.7318   3.7423   4.3255  10.0187  11.0565  14.4925  20.0351  20.1466

     occupation numbers 
     1.0000   1.0000   1.0000   1.0000   1.0000   1.0000   1.0000   1.0000
     1.0000   1.0000   1.0000   1.0000   0.0000   0.0000   0.0000   0.0000

          k = 0.0714 0.3712 0.0781 (  2080 PWs)   bands (ev):

     2.5782   2.6911   2.9232   3.0993   3.2422   3.3885   3.4862   3.5937
     3.7146   3.7451   4.3980   8.7734  12.5311  14.6187  19.0422  20.1863

     occupation numbers 
     1.0000   1.0000   1.0000   1.0000   1.0000   1.0000   1.0000   1.0000
     1.0000   1.0000   1.0000   1.0000   0.0000   0.0000   0.0000   0.0000

          k = 0.0714 0.3712 0.1561 (  2082 PWs)   bands (ev):

     2.5932   2.7070   2.9264   2.9672   3.3163   3.4287   3.5487   3.6438
     3.6721   3.7644   4.6858   7.3637  14.5978  14.9954  17.7882  20.5684

     occupation numbers 
     1.0000   1.0000   1.0000   1.0000   1.0000   1.0000   1.0000   1.0000
     1.0000   1.0000   1.0000   1.0000   0.0000   0.0000   0.0000   0.0000

          k = 0.0714 0.3712 0.2342 (  2073 PWs)   bands (ev):

     2.6390   2.6953   2.8925   2.9098   3.4198   3.4766   3.5130   3.5620
     3.7434   3.7713   5.2855   6.1894  15.5907  16.1748  17.4566  19.6495

     occupation numbers 
     1.0000   1.0000   1.0000   1.0000   1.0000   1.0000   1.0000   1.0000
     1.0000   1.0000   1.0000   1.0000   0.0000   0.0000   0.0000   0.0000

          k = 0.0714 0.4536 0.0000 (  2087 PWs)   bands (ev):

     2.5759   2.6520   2.7939   3.2262   3.2840   3.3312   3.4936   3.7368
     3.7755   3.8424   5.6268  10.9986  12.2122  12.5239  17.5761  18.8281

     occupation numbers 
     1.0000   1.0000   1.0000   1.0000   1.0000   1.0000   1.0000   1.0000
     1.0000   1.0000   1.0000   0.0000   0.0000   0.0000   0.0000   0.0000

          k = 0.0714 0.4536 0.0781 (  2084 PWs)   bands (ev):

     2.5769   2.6225   2.8335   3.1045   3.3082   3.3721   3.5899   3.7109
     3.7742   3.8464   5.7305  10.0306  12.1352  13.8419  16.6221  19.5459

     occupation numbers 
     1.0000   1.0000   1.0000   1.0000   1.0000   1.0000   1.0000   1.0000
     1.0000   1.0000   1.0000   1.0000   0.0000   0.0000   0.0000   0.0000

          k = 0.0714 0.4536 0.1561 (  2084 PWs)   bands (ev):

     2.5646   2.6229   2.8604   2.9455   3.3598   3.4784   3.6440   3.6902
     3.7760   3.8531   6.0662   8.6985  12.4763  14.7263  16.4950  19.9523

     occupation numbers 
     1.0000   1.0000   1.0000   1.0000   1.0000   1.0000   1.0000   1.0000
     1.0000   1.0000   1.0000   1.0000   0.0000   0.0000   0.0000   0.0000

          k = 0.0714 0.4536 0.2342 (  2072 PWs)   bands (ev):

     2.5814   2.6185   2.8477   2.8549   3.4497   3.5503   3.5950   3.6765
     3.8142   3.8459   6.6726   7.5574  13.0744  13.8910  18.4923  20.4328

     occupation numbers 
     1.0000   1.0000   1.0000   1.0000   1.0000   1.0000   1.0000   1.0000
     1.0000   1.0000   1.0000   1.0000   0.0000   0.0000   0.0000   0.0000

          k = 0.0714 0.5361 0.0000 (  2096 PWs)   bands (ev):

     2.5385   2.6295   2.7381   3.2010   3.3009   3.3338   3.5864   3.7334
     3.8688   3.8935   7.3329   9.4179  13.0303  14.0072  15.3976  16.9022

     occupation numbers 
     1.0000   1.0000   1.0000   1.0000   1.0000   1.0000   1.0000   1.0000
     1.0000   1.0000   1.0000   1.0000   0.0000   0.0000   0.0000   0.0000

          k = 0.0714 0.5361 0.0781 (  2093 PWs)   bands (ev):

     2.5477   2.5800   2.7885   3.0977   3.2987   3.3989   3.6648   3.7086
     3.8663   3.8930   7.4398   9.4672  12.0654  13.8059  15.9977  17.9650

     occupation numbers 
     1.0000   1.0000   1.0000   1.0000   1.0000   1.0000   1.0000   1.0000
     1.0000   1.0000   1.0000   1.0000   0.0000   0.0000   0.0000   0.0000

          k = 0.0714 0.5361 0.1561 (  2079 PWs)   bands (ev):

     2.5356   2.5720   2.8228   2.9338   3.3470   3.5275   3.6401   3.7633
     3.8570   3.8894   7.7648   9.4712  11.1041  12.7085  17.8479  19.6147

     occupation numbers 
     1.0000   1.0000   1.0000   1.0000   1.0000   1.0000   1.0000   1.0000
     1.0000   1.0000   1.0000   1.0000   0.0000   0.0000   0.0000   0.0000

          k = 0.0714 0.5361 0.2342 (  2079 PWs)   bands (ev):

     2.5438   2.5740   2.8167   2.8306   3.4380   3.5434   3.6707   3.7697
     3.8586   3.8776   8.3051   8.9921  11.0638  11.7214  19.8653  20.2935

     occupation numbers 
     1.0000   1.0000   1.0000   1.0000   1.0000   1.0000   1.0000   1.0000
     1.0000   1.0000   1.0000   1.0000   0.0000   0.0000   0.0000   0.0000

          k = 0.1429 0.2474 0.0000 (  2089 PWs)   bands (ev):

     2.1306   2.7985   2.9631   3.1151   3.1320   3.2389   3.3100   3.4896
     3.5757   3.7283   3.7354   8.9943   9.6080  18.9107  19.2359  24.5994

     occupation numbers 
     1.0000   1.0000   1.0000   1.0000   1.0000   1.0000   1.0000   1.0000
     1.0000   1.0000   1.0000   1.0000   1.0000   0.0000   0.0000   0.0000

          k = 0.1429 0.2474 0.0781 (  2084 PWs)   bands (ev):

     2.2181   2.8137   2.9721   3.0667   3.1625   3.1713   3.4125   3.4645
     3.6035   3.6763   3.7797   7.5827  11.2715  19.0424  19.3538  23.3939

     occupation numbers 
     1.0000   1.0000   1.0000   1.0000   1.0000   1.0000   1.0000   1.0000
     1.0000   1.0000   1.0000   1.0000   0.0000   0.0000   0.0000   0.0000

          k = 0.1429 0.2474 0.1561 (  2071 PWs)   bands (ev):

     2.4431   2.8560   2.9937   3.0004   3.0888   3.1646   3.4455   3.5767
     3.6201   3.6453   3.8736   6.1724  13.4393  19.4351  19.6463  21.3875

     occupation numbers 
     1.0000   1.0000   1.0000   1.0000   1.0000   1.0000   1.0000   1.0000
     1.0000   1.0000   1.0000   1.0000   0.0000   0.0000   0.0000   0.0000

          k = 0.1429 0.2474 0.2342 (  2074 PWs)   bands (ev):

     2.6954   2.8685   2.9363   3.0058   3.0526   3.1173   3.4735   3.5339
     3.6760   3.6796   4.2637   5.0497  15.8301  18.3702  20.0818  20.5386

     occupation numbers 
     1.0000   1.0000   1.0000   1.0000   1.0000   1.0000   1.0000   1.0000
     1.0000   1.0000   1.0000   1.0000   0.0000   0.0000   0.0000   0.0000

          k = 0.1429 0.3299 0.0000 (  2075 PWs)   bands (ev):

     2.6861   2.8138   2.9660   3.0388   3.1620   3.2445   3.3524   3.4314
     3.7183   3.7244   4.2473   9.8051  10.7536  16.1380  18.0626  21.7910

     occupation numbers 
     1.0000   1.0000   1.0000   1.0000   1.0000   1.0000   1.0000   1.0000
     1.0000   1.0000   1.0000   1.0000   0.7500   0.0000   0.0000   0.0000

          k = 0.1429 0.3299 0.0781 (  2080 PWs)   bands (ev):

     2.6960   2.8287   2.9572   3.0357   3.1243   3.2875   3.4143   3.4344
     3.6909   3.7389   4.3057   8.5273  12.2699  16.2658  18.1905  20.6688

     occupation numbers 
     1.0000   1.0000   1.0000   1.0000   1.0000   1.0000   1.0000   1.0000
     1.0000   1.0000   1.0000   1.0000   0.0000   0.0000   0.0000   0.0000

          k = 0.1429 0.3299 0.1561 (  2079 PWs)   bands (ev):

     2.7252   2.8716   2.9025   3.0457   3.1204   3.2694   3.4218   3.6133
     3.6225   3.7650   4.5416   7.1190  14.3862  16.6437  18.5624  19.3716

     occupation numbers 
     1.0000   1.0000   1.0000   1.0000   1.0000   1.0000   1.0000   1.0000
     1.0000   1.0000   1.0000   1.0000   0.0000   0.0000   0.0000   0.0000

          k = 0.1429 0.3299 0.2342 (  2072 PWs)   bands (ev):

     2.7722   2.8329   2.9377   3.0031   3.1710   3.2254   3.4609   3.5362
     3.7378   3.7749   5.0852   5.9584  16.6481  17.2284  18.3365  18.9461

     occupation numbers 
     1.0000   1.0000   1.0000   1.0000   1.0000   1.0000   1.0000   1.0000
     1.0000   1.0000   1.0000   1.0000   0.0000   0.0000   0.0000   0.0000

          k = 0.1429 0.4124 0.0000 (  2081 PWs)   bands (ev):

     2.7260   2.7874   2.8532   3.2055   3.2396   3.3038   3.3592   3.5382
     3.7044   3.8242   5.3008  10.9067  12.1192  13.4958  17.2981  19.1192

     occupation numbers 
     1.0000   1.0000   1.0000   1.0000   1.0000   1.0000   1.0000   1.0000
     1.0000   1.0000   1.0000   0.0000   0.0000   0.0000   0.0000   0.0000

          k = 0.1429 0.4124 0.0781 (  2068 PWs)   bands (ev):

     2.7214   2.7553   2.9120   3.0737   3.2342   3.3707   3.4622   3.5325
     3.6777   3.8326   5.3994   9.7432  13.4356  13.6811  17.4290  18.0588

     occupation numbers 
     1.0000   1.0000   1.0000   1.0000   1.0000   1.0000   1.0000   1.0000
     1.0000   1.0000   1.0000   1.0000   0.0000   0.0000   0.0000   0.0000

          k = 0.1429 0.4124 0.1561 (  2077 PWs)   bands (ev):

     2.6960   2.7760   2.9223   2.9723   3.2591   3.4069   3.5036   3.6039
     3.6505   3.8456   5.7232   8.3618  13.9788  15.3849  16.9530  17.8196

     occupation numbers 
     1.0000   1.0000   1.0000   1.0000   1.0000   1.0000   1.0000   1.0000
     1.0000   1.0000   1.0000   1.0000   0.0000   0.0000   0.0000   0.0000

          k = 0.1429 0.4124 0.2342 (  2075 PWs)   bands (ev):

     2.7114   2.7621   2.8930   2.9368   3.3443   3.4254   3.4765   3.5210
     3.7752   3.8356   6.3211   7.2069  14.5970  15.3981  18.0507  18.4275

     occupation numbers 
     1.0000   1.0000   1.0000   1.0000   1.0000   1.0000   1.0000   1.0000
     1.0000   1.0000   1.0000   1.0000   0.0000   0.0000   0.0000   0.0000

          k = 0.1429 0.4949 0.0000 (  2095 PWs)   bands (ev):

     2.6635   2.7609   2.7850   3.1957   3.2918   3.3194   3.4440   3.6951
     3.7079   3.8552   6.8295  10.8086  12.6248  13.6408  16.7143  16.8353

     occupation numbers 
     1.0000   1.0000   1.0000   1.0000   1.0000   1.0000   1.0000   1.0000
     1.0000   1.0000   1.0000   0.0000   0.0000   0.0000   0.0000   0.0000

          k = 0.1429 0.4949 0.0781 (  2085 PWs)   bands (ev):

     2.6718   2.6925   2.8675   3.0929   3.2494   3.3945   3.5385   3.6674
     3.7020   3.8586   6.9401  10.6662  11.7774  14.6206  16.0807  16.9647

     occupation numbers 
     1.0000   1.0000   1.0000   1.0000   1.0000   1.0000   1.0000   1.0000
     1.0000   1.0000   1.0000   1.0000   0.0000   0.0000   0.0000   0.0000

          k = 0.1429 0.4949 0.1561 (  2081 PWs)   bands (ev):

     2.6465   2.7057   2.9123   2.9463   3.2627   3.4955   3.5870   3.6661
     3.6891   3.8601   7.2823   9.7669  11.7082  14.0684  17.3151  17.3918

     occupation numbers 
     1.0000   1.0000   1.0000   1.0000   1.0000   1.0000   1.0000   1.0000
     1.0000   1.0000   1.0000   1.0000   0.0000   0.0000   0.0000   0.0000

          k = 0.1429 0.4949 0.2342 (  2075 PWs)   bands (ev):

     2.6607   2.7056   2.8698   2.8921   3.3541   3.4728   3.5869   3.6449
     3.7749   3.8376   7.8741   8.7179  12.2421  13.0583  17.9945  18.7357

     occupation numbers 
     1.0000   1.0000   1.0000   1.0000   1.0000   1.0000   1.0000   1.0000
     1.0000   1.0000   1.0000   1.0000   0.0000   0.0000   0.0000   0.0000

          k = 0.1429 0.5774 0.0000 (  2088 PWs)   bands (ev):

     2.6404   2.7468   2.7625   3.2029   3.2569   3.3458   3.4930   3.6918
     3.8054   3.8243   8.5130   8.9099  13.8755  14.7444  15.0771  16.6725

     occupation numbers 
     1.0000   1.0000   1.0000   1.0000   1.0000   1.0000   1.0000   1.0000
     1.0000   1.0000   1.0000   1.0000   0.0000   0.0000   0.0000   0.0000

          k = 0.1429 0.5774 0.0781 (  2092 PWs)   bands (ev):

     2.6525   2.6689   2.8506   3.1032   3.2290   3.4187   3.5703   3.6638
     3.8028   3.8234   8.6322   8.9907  13.1831  13.3194  16.7443  16.8206

     occupation numbers 
     1.0000   1.0000   1.0000   1.0000   1.0000   1.0000   1.0000   1.0000
     1.0000   1.0000   1.0000   1.0000   0.0000   0.0000   0.0000   0.0000

          k = 0.1429 0.5774 0.1561 (  2088 PWs)   bands (ev):

     2.6283   2.6804   2.8965   2.9497   3.2492   3.5451   3.5803   3.6739
     3.7950   3.8146   8.9720   9.2252  12.0458  12.0672  17.2029  18.7875

     occupation numbers 
     1.0000   1.0000   1.0000   1.0000   1.0000   1.0000   1.0000   1.0000
     1.0000   1.0000   1.0000   1.0000   0.0000   0.0000   0.0000   0.0000

          k = 0.1429 0.5774 0.2342 (  2072 PWs)   bands (ev):

     2.6423   2.6844   2.8630   2.8769   3.3451   3.4678   3.6677   3.7225
     3.7820   3.7853   9.4188   9.5168  11.1964  11.2088  17.8472  18.6921

     occupation numbers 
     1.0000   1.0000   1.0000   1.0000   1.0000   1.0000   1.0000   1.0000
     1.0000   1.0000   1.0000   1.0000   0.0000   0.0000   0.0000   0.0000

          k = 0.2143 0.3712 0.0000 (  2067 PWs)   bands (ev):

     2.8600   2.8845   2.9183   3.1023   3.1852   3.2173   3.3788   3.4037
     3.6855   3.8210   5.2153  10.8249  11.9827  15.0918  15.4503  20.8707

     occupation numbers 
     1.0000   1.0000   1.0000   1.0000   1.0000   1.0000   1.0000   1.0000
     1.0000   1.0000   1.0000   0.0000   0.0000   0.0000   0.0000   0.0000

          k = 0.2143 0.3712 0.0781 (  2074 PWs)   bands (ev):

     2.8469   2.8734   2.9746   2.9846   3.2036   3.2783   3.3745   3.4640
     3.6585   3.8308   5.3109   9.6367  13.3951  15.2227  15.5776  19.6270

     occupation numbers 
     1.0000   1.0000   1.0000   1.0000   1.0000   1.0000   1.0000   1.0000
     1.0000   1.0000   1.0000   1.0000   0.0000   0.0000   0.0000   0.0000

          k = 0.2143 0.3712 0.1561 (  2072 PWs)   bands (ev):

     2.8162   2.8701   2.9259   3.0469   3.1699   3.2832   3.3798   3.5831
     3.6372   3.8457   5.6268   8.2505  15.4177  15.6141  15.9518  18.2808

     occupation numbers 
     1.0000   1.0000   1.0000   1.0000   1.0000   1.0000   1.0000   1.0000
     1.0000   1.0000   1.0000   1.0000   0.0000   0.0000   0.0000   0.0000

          k = 0.2143 0.3712 0.2342 (  2065 PWs)   bands (ev):

     2.8055   2.8207   2.9828   3.0462   3.1867   3.2437   3.4188   3.4947
     3.7722   3.8362   6.2161   7.0968  16.2584  16.5370  16.9888  17.1514

     occupation numbers 
     1.0000   1.0000   1.0000   1.0000   1.0000   1.0000   1.0000   1.0000
     1.0000   1.0000   1.0000   1.0000   0.0000   0.0000   0.0000   0.0000

          k = 0.2143 0.4536 0.0000 (  2070 PWs)   bands (ev):

     2.8314   2.8317   2.9150   3.1643   3.2474   3.3071   3.3074   3.5223
     3.6597   3.8425   6.5963  12.0031  12.8835  13.4245  14.6811  18.3784

     occupation numbers 
     1.0000   1.0000   1.0000   1.0000   1.0000   1.0000   1.0000   1.0000
     1.0000   1.0000   1.0000   0.0000   0.0000   0.0000   0.0000   0.0000

          k = 0.2143 0.4536 0.0781 (  2074 PWs)   bands (ev):

     2.8002   2.8461   2.9642   3.0559   3.2231   3.3418   3.3889   3.5424
     3.6314   3.8493   6.7084  10.9937  12.8861  14.7158  14.8167  17.3527

     occupation numbers 
     1.0000   1.0000   1.0000   1.0000   1.0000   1.0000   1.0000   1.0000
     1.0000   1.0000   1.0000   0.0000   0.0000   0.0000   0.0000   0.0000

          k = 0.2143 0.4536 0.1561 (  2079 PWs)   bands (ev):

     2.7746   2.8849   2.9219   3.0465   3.1804   3.3733   3.4294   3.5571
     3.6501   3.8567   7.0558   9.6607  13.2498  15.1979  15.6340  16.9622

     occupation numbers 
     1.0000   1.0000   1.0000   1.0000   1.0000   1.0000   1.0000   1.0000
     1.0000   1.0000   1.0000   1.0000   0.0000   0.0000   0.0000   0.0000

          k = 0.2143 0.4536 0.2342 (  2084 PWs)   bands (ev):

     2.7837   2.8323   2.9487   3.0169   3.2461   3.3442   3.4393   3.4827
     3.7683   3.8372   7.6602   8.5322  13.8701  14.7174  15.8308  16.6581

     occupation numbers 
     1.0000   1.0000   1.0000   1.0000   1.0000   1.0000   1.0000   1.0000
     1.0000   1.0000   1.0000   1.0000   0.0000   0.0000   0.0000   0.0000

          k = 0.2143 0.5361 0.0000 (  2083 PWs)   bands (ev):

     2.7985   2.8066   2.9034   3.1831   3.2355   3.3234   3.3529   3.6460
     3.6620   3.7934   8.3132  10.3283  13.8909  14.3700  14.9424  16.1638

     occupation numbers 
     1.0000   1.0000   1.0000   1.0000   1.0000   1.0000   1.0000   1.0000
     1.0000   1.0000   1.0000   1.0000   0.0000   0.0000   0.0000   0.0000

          k = 0.2143 0.5361 0.0781 (  2084 PWs)   bands (ev):

     2.7742   2.8123   2.9607   3.0953   3.1791   3.3875   3.4213   3.6165
     3.6664   3.7992   8.4290  10.4185  12.8760  14.4826  14.7298  16.7132

     occupation numbers 
     1.0000   1.0000   1.0000   1.0000   1.0000   1.0000   1.0000   1.0000
     1.0000   1.0000   1.0000   1.0000   0.0000   0.0000   0.0000   0.0000

          k = 0.2143 0.5361 0.1561 (  2079 PWs)   bands (ev):

     2.7518   2.8485   2.9640   3.0310   3.1426   3.4402   3.4959   3.5590
     3.6908   3.8066   8.7771  10.5707  11.7823  13.5453  14.8917  17.3803

     occupation numbers 
     1.0000   1.0000   1.0000   1.0000   1.0000   1.0000   1.0000   1.0000
     1.0000   1.0000   1.0000   1.0000   0.0000   0.0000   0.0000   0.0000

          k = 0.2143 0.5361 0.2342 (  2085 PWs)   bands (ev):

     2.7727   2.8369   2.9245   2.9875   3.2388   3.3665   3.5285   3.5501
     3.7463   3.7930   9.3535  10.1059  11.7550  12.5026  15.5297  16.3939

     occupation numbers 
     1.0000   1.0000   1.0000   1.0000   1.0000   1.0000   1.0000   1.0000
     1.0000   1.0000   1.0000   1.0000   0.0000   0.0000   0.0000   0.0000

          k = 0.2857 0.4949 0.0000 (  2069 PWs)   bands (ev):

     2.8319   2.9255   2.9796   3.1561   3.2107   3.2424   3.3481   3.5705
     3.6251   3.7866   8.1909  12.0139  12.3917  13.8495  14.9262  17.7741

     occupation numbers 
     1.0000   1.0000   1.0000   1.0000   1.0000   1.0000   1.0000   1.0000
     1.0000   1.0000   1.0000   0.0000   0.0000   0.0000   0.0000   0.0000

          k = 0.2857 0.4949 0.0781 (  2086 PWs)   bands (ev):

     2.8325   2.9325   3.0045   3.0641   3.2081   3.2893   3.3664   3.5945
     3.5956   3.7947   8.3092  11.9818  12.5246  12.9087  15.8750  16.6634

     occupation numbers 
     1.0000   1.0000   1.0000   1.0000   1.0000   1.0000   1.0000   1.0000
     1.0000   1.0000   1.0000   0.0000   0.0000   0.0000   0.0000   0.0000

          k = 0.2857 0.4949 0.1561 (  2081 PWs)   bands (ev):

     2.8370   2.9324   2.9947   3.0711   3.1467   3.3250   3.3931   3.5234
     3.6657   3.8062   8.6671  11.1746  12.7628  12.9170  15.3053  15.4173

     occupation numbers 
     1.0000   1.0000   1.0000   1.0000   1.0000   1.0000   1.0000   1.0000
     1.0000   1.0000   1.0000   0.0000   0.0000   0.0000   0.0000   0.0000

          k = 0.2857 0.4949 0.2342 (  2082 PWs)   bands (ev):

     2.8517   2.8849   3.0199   3.0717   3.1815   3.2794   3.4190   3.4560
     3.7464   3.7957   9.2712  10.1205  13.3173  13.5427  14.2041  14.4301

     occupation numbers 
     1.0000   1.0000   1.0000   1.0000   1.0000   1.0000   1.0000   1.0000
     1.0000   1.0000   1.0000   1.0000   0.0000   0.0000   0.0000   0.0000

          k = 0.2857 0.5774 0.0000 (  2085 PWs)   bands (ev):

     2.8353   2.9574   3.0107   3.1767   3.1778   3.1934   3.3739   3.6123
     3.6457   3.7084  10.0636  10.0646  12.0889  15.2743  16.1573  16.1793

     occupation numbers 
     1.0000   1.0000   1.0000   1.0000   1.0000   1.0000   1.0000   1.0000
     1.0000   1.0000   1.0000   1.0000   0.0000   0.0000   0.0000   0.0000

          k = 0.2857 0.5774 0.0781 (  2086 PWs)   bands (ev):

     2.8466   2.9613   3.0064   3.1050   3.1748   3.2502   3.3860   3.5821
     3.6609   3.7216  10.1692  10.1932  12.2094  14.5274  14.5745  16.4426

     occupation numbers 
     1.0000   1.0000   1.0000   1.0000   1.0000   1.0000   1.0000   1.0000
     1.0000   1.0000   1.0000   1.0000   0.0000   0.0000   0.0000   0.0000

          k = 0.2857 0.5774 0.1561 (  2080 PWs)   bands (ev):

     2.8674   2.9587   3.0165   3.0432   3.1730   3.2800   3.4061   3.5091
     3.7004   3.7476  10.4850  10.5643  12.5139  13.3207  13.3485  15.2486

     occupation numbers 
     1.0000   1.0000   1.0000   1.0000   1.0000   1.0000   1.0000   1.0000
     1.0000   1.0000   1.0000   1.0000   0.0000   0.0000   0.0000   0.0000

          k = 0.2857 0.5774 0.2342 (  2086 PWs)   bands (ev):

     2.8879   2.9221   3.0371   3.0393   3.1981   3.2571   3.4204   3.4448
     3.7418   3.7597  10.9707  11.0737  12.1624  12.3476  13.3455  14.1790

     occupation numbers 
     1.0000   1.0000   1.0000   1.0000   1.0000   1.0000   1.0000   1.0000
     1.0000   1.0000   0.0000   0.0000   0.0000   0.0000   0.0000   0.0000

 ------ SPIN DOWN ----------


          k = 0.0000 0.0000 0.0000 (  2089 PWs)   bands (ev):

     0.5180   2.3166   2.9885   3.1925   3.1925   3.2439   3.2439   3.5382
     3.5382   3.7532   3.7532   7.2814   7.8584  24.5702  27.4996  27.4996

     occupation numbers 
     1.0000   1.0000   1.0000   1.0000   1.0000   1.0000   1.0000   1.0000
     1.0000   1.0000   1.0000   1.0000   1.0000   0.0000   0.0000   0.0000

          k = 0.0000 0.0000 0.0781 (  2059 PWs)   bands (ev):

     0.6424   2.3059   2.9899   3.1903   3.1903   3.2379   3.2379   3.5536
     3.5536   3.7460   3.7460   5.8465   9.5624  22.6007  27.6222  27.6222

     occupation numbers 
     1.0000   1.0000   1.0000   1.0000   1.0000   1.0000   1.0000   1.0000
     1.0000   1.0000   1.0000   1.0000   1.0000   0.0000   0.0000   0.0000

          k = 0.0000 0.0000 0.1561 (  2083 PWs)   bands (ev):

     1.0024   2.2469   3.0089   3.1880   3.1880   3.2227   3.2227   3.5929
     3.5929   3.7243   3.7243   4.4717  11.7677  19.6973  27.9764  27.9764

     occupation numbers 
     1.0000   1.0000   1.0000   1.0000   1.0000   1.0000   1.0000   1.0000
     1.0000   1.0000   1.0000   1.0000   0.0000   0.0000   0.0000   0.0000

          k = 0.0000 0.0000 0.2342 (  2070 PWs)   bands (ev):

     1.5341   2.0257   3.1142   3.1923   3.1923   3.2052   3.2052   3.5236
     3.6421   3.6421   3.6885   3.6885  14.2100  16.8644  28.5039  28.5040

     occupation numbers 
     1.0000   1.0000   1.0000   1.0000   1.0000   1.0000   1.0000   1.0000
     1.0000   1.0000   1.0000   1.0000   0.0000   0.0000   0.0000   0.0000

          k = 0.0000 0.0825 0.0000 (  2075 PWs)   bands (ev):

     0.6651   2.3776   3.0013   3.1803   3.2260   3.2293   3.2755   3.5082
     3.5247   3.6763   3.7552   7.5114   7.9379  24.7228  25.1422  26.2846

     occupation numbers 
     1.0000   1.0000   1.0000   1.0000   1.0000   1.0000   1.0000   1.0000
     1.0000   1.0000   1.0000   1.0000   1.0000   0.0000   0.0000   0.0000

          k = 0.0000 0.0825 0.0781 (  2072 PWs)   bands (ev):

     0.7886   2.3707   3.0019   3.1755   3.2218   3.2233   3.2694   3.5282
     3.5414   3.6623   3.7474   6.0206   9.7017  22.7318  25.2856  26.4151

     occupation numbers 
     1.0000   1.0000   1.0000   1.0000   1.0000   1.0000   1.0000   1.0000
     1.0000   1.0000   1.0000   1.0000   1.0000   0.0000   0.0000   0.0000

          k = 0.0000 0.0825 0.1561 (  2070 PWs)   bands (ev):

     1.1454   2.3253   3.0151   3.1695   3.2031   3.2200   3.2539   3.5714
     3.5836   3.6153   3.7238   4.6676  11.9080  19.8305  25.6594  26.8023

     occupation numbers 
     1.0000   1.0000   1.0000   1.0000   1.0000   1.0000   1.0000   1.0000
     1.0000   1.0000   1.0000   1.0000   0.0000   0.0000   0.0000   0.0000

          k = 0.0000 0.0825 0.2342 (  2080 PWs)   bands (ev):

     1.6677   2.1331   3.0937   3.1763   3.1818   3.2237   3.2363   3.3898
     3.6359   3.6696   3.6853   3.8684  14.3484  17.0004  26.2730  27.1145

     occupation numbers 
     1.0000   1.0000   1.0000   1.0000   1.0000   1.0000   1.0000   1.0000
     1.0000   1.0000   1.0000   1.0000   0.0000   0.0000   0.0000   0.0000

          k = 0.0000 0.1650 0.0000 (  2068 PWs)   bands (ev):

     1.0964   2.5316   3.0206   3.1561   3.2197   3.3211   3.3652   3.3878
     3.4890   3.5369   3.7588   8.1440   8.1933  21.8649  24.6780  25.1208

     occupation numbers 
     1.0000   1.0000   1.0000   1.0000   1.0000   1.0000   1.0000   1.0000
     1.0000   1.0000   1.0000   1.0000   1.0000   0.0000   0.0000   0.0000

          k = 0.0000 0.1650 0.0781 (  2076 PWs)   bands (ev):

     1.2160   2.5339   3.0229   3.1432   3.2000   3.3157   3.3582   3.4053
[...]

     occupation numbers 
     1.0000   1.0000   1.0000   1.0000   1.0000   1.0000   1.0000   1.0000
     1.0000   1.0000   1.0000   1.0000   1.0000   0.0000   0.0000   0.0000

          k = 0.1429 0.2474 0.0781 (  2084 PWs)   bands (ev):

     2.2181   2.8137   2.9721   3.0667   3.1625   3.1713   3.4125   3.4645
     3.6035   3.6763   3.7797   7.5827  11.2715  19.0424  19.3538  23.3939

     occupation numbers 
     1.0000   1.0000   1.0000   1.0000   1.0000   1.0000   1.0000   1.0000
     1.0000   1.0000   1.0000   1.0000   0.0000   0.0000   0.0000   0.0000

          k = 0.1429 0.2474 0.1561 (  2071 PWs)   bands (ev):

     2.4431   2.8560   2.9937   3.0004   3.0888   3.1646   3.4455   3.5767
     3.6201   3.6453   3.8736   6.1724  13.4393  19.4351  19.6463  21.3875

     occupation numbers 
     1.0000   1.0000   1.0000   1.0000   1.0000   1.0000   1.0000   1.0000
     1.0000   1.0000   1.0000   1.0000   0.0000   0.0000   0.0000   0.0000

          k = 0.1429 0.2474 0.2342 (  2074 PWs)   bands (ev):

     2.6954   2.8685   2.9363   3.0058   3.0526   3.1173   3.4735   3.5339
     3.6760   3.6796   4.2637   5.0497  15.8301  18.3702  20.0818  20.5386

     occupation numbers 
     1.0000   1.0000   1.0000   1.0000   1.0000   1.0000   1.0000   1.0000
     1.0000   1.0000   1.0000   1.0000   0.0000   0.0000   0.0000   0.0000

          k = 0.1429 0.3299 0.0000 (  2075 PWs)   bands (ev):

     2.6861   2.8138   2.9660   3.0388   3.1620   3.2445   3.3524   3.4314
     3.7183   3.7244   4.2473   9.8051  10.7536  16.1380  18.0626  21.7910

     occupation numbers 
     1.0000   1.0000   1.0000   1.0000   1.0000   1.0000   1.0000   1.0000
     1.0000   1.0000   1.0000   1.0000   0.7500   0.0000   0.0000   0.0000

          k = 0.1429 0.3299 0.0781 (  2080 PWs)   bands (ev):

     2.6960   2.8287   2.9572   3.0357   3.1243   3.2875   3.4143   3.4344
     3.6909   3.7389   4.3057   8.5273  12.2699  16.2658  18.1905  20.6688

     occupation numbers 
     1.0000   1.0000   1.0000   1.0000   1.0000   1.0000   1.0000   1.0000
     1.0000   1.0000   1.0000   1.0000   0.0000   0.0000   0.0000   0.0000

          k = 0.1429 0.3299 0.1561 (  2079 PWs)   bands (ev):

     2.7252   2.8716   2.9025   3.0457   3.1204   3.2694   3.4218   3.6133
     3.6225   3.7650   4.5416   7.1190  14.3862  16.6437  18.5624  19.3716

     occupation numbers 
     1.0000   1.0000   1.0000   1.0000   1.0000   1.0000   1.0000   1.0000
     1.0000   1.0000   1.0000   1.0000   0.0000   0.0000   0.0000   0.0000

          k = 0.1429 0.3299 0.2342 (  2072 PWs)   bands (ev):

     2.7722   2.8329   2.9377   3.0031   3.1710   3.2254   3.4609   3.5362
     3.7378   3.7749   5.0852   5.9584  16.6481  17.2284  18.3365  18.9461

     occupation numbers 
     1.0000   1.0000   1.0000   1.0000   1.0000   1.0000   1.0000   1.0000
     1.0000   1.0000   1.0000   1.0000   0.0000   0.0000   0.0000   0.0000

          k = 0.1429 0.4124 0.0000 (  2081 PWs)   bands (ev):

     2.7260   2.7874   2.8532   3.2055   3.2396   3.3038   3.3592   3.5382
     3.7044   3.8242   5.3008  10.9067  12.1192  13.4958  17.2981  19.1192

     occupation numbers 
     1.0000   1.0000   1.0000   1.0000   1.0000   1.0000   1.0000   1.0000
     1.0000   1.0000   1.0000   0.0000   0.0000   0.0000   0.0000   0.0000

          k = 0.1429 0.4124 0.0781 (  2068 PWs)   bands (ev):

     2.7214   2.7553   2.9120   3.0737   3.2342   3.3707   3.4622   3.5325
     3.6777   3.8326   5.3994   9.7432  13.4356  13.6811  17.4290  18.0588

     occupation numbers 
     1.0000   1.0000   1.0000   1.0000   1.0000   1.0000   1.0000   1.0000
     1.0000   1.0000   1.0000   1.0000   0.0000   0.0000   0.0000   0.0000

          k = 0.1429 0.4124 0.1561 (  2077 PWs)   bands (ev):

     2.6960   2.7760   2.9223   2.9723   3.2591   3.4069   3.5036   3.6039
     3.6505   3.8456   5.7232   8.3618  13.9788  15.3849  16.9530  17.8196

     occupation numbers 
     1.0000   1.0000   1.0000   1.0000   1.0000   1.0000   1.0000   1.0000
     1.0000   1.0000   1.0000   1.0000   0.0000   0.0000   0.0000   0.0000

          k = 0.1429 0.4124 0.2342 (  2075 PWs)   bands (ev):

     2.7114   2.7621   2.8930   2.9368   3.3443   3.4254   3.4765   3.5210
     3.7752   3.8356   6.3211   7.2069  14.5970  15.3981  18.0507  18.4275

     occupation numbers 
     1.0000   1.0000   1.0000   1.0000   1.0000   1.0000   1.0000   1.0000
     1.0000   1.0000   1.0000   1.0000   0.0000   0.0000   0.0000   0.0000

          k = 0.1429 0.4949 0.0000 (  2095 PWs)   bands (ev):

     2.6635   2.7609   2.7850   3.1957   3.2918   3.3194   3.4440   3.6951
     3.7079   3.8552   6.8295  10.8086  12.6248  13.6408  16.7143  16.8353

     occupation numbers 
     1.0000   1.0000   1.0000   1.0000   1.0000   1.0000   1.0000   1.0000
     1.0000   1.0000   1.0000   0.0000   0.0000   0.0000   0.0000   0.0000

          k = 0.1429 0.4949 0.0781 (  2085 PWs)   bands (ev):

     2.6718   2.6925   2.8675   3.0929   3.2494   3.3945   3.5385   3.6674
     3.7020   3.8586   6.9401  10.6662  11.7774  14.6206  16.0807  16.9647

     occupation numbers 
     1.0000   1.0000   1.0000   1.0000   1.0000   1.0000   1.0000   1.0000
     1.0000   1.0000   1.0000   1.0000   0.0000   0.0000   0.0000   0.0000

          k = 0.1429 0.4949 0.1561 (  2081 PWs)   bands (ev):

     2.6465   2.7057   2.9123   2.9463   3.2627   3.4955   3.5870   3.6661
     3.6891   3.8601   7.2823   9.7669  11.7082  14.0684  17.3151  17.3918

     occupation numbers 
     1.0000   1.0000   1.0000   1.0000   1.0000   1.0000   1.0000   1.0000
     1.0000   1.0000   1.0000   1.0000   0.0000   0.0000   0.0000   0.0000

          k = 0.1429 0.4949 0.2342 (  2075 PWs)   bands (ev):

     2.6607   2.7056   2.8698   2.8921   3.3541   3.4728   3.5869   3.6449
     3.7749   3.8376   7.8741   8.7179  12.2421  13.0583  17.9945  18.7357

     occupation numbers 
     1.0000   1.0000   1.0000   1.0000   1.0000   1.0000   1.0000   1.0000
     1.0000   1.0000   1.0000   1.0000   0.0000   0.0000   0.0000   0.0000

          k = 0.1429 0.5774 0.0000 (  2088 PWs)   bands (ev):

     2.6404   2.7468   2.7625   3.2029   3.2569   3.3458   3.4930   3.6918
     3.8054   3.8243   8.5130   8.9099  13.8755  14.7444  15.0771  16.6725

     occupation numbers 
     1.0000   1.0000   1.0000   1.0000   1.0000   1.0000   1.0000   1.0000
     1.0000   1.0000   1.0000   1.0000   0.0000   0.0000   0.0000   0.0000

          k = 0.1429 0.5774 0.0781 (  2092 PWs)   bands (ev):

     2.6525   2.6689   2.8506   3.1032   3.2290   3.4187   3.5703   3.6638
     3.8028   3.8234   8.6322   8.9907  13.1831  13.3194  16.7443  16.8206

     occupation numbers 
     1.0000   1.0000   1.0000   1.0000   1.0000   1.0000   1.0000   1.0000
     1.0000   1.0000   1.0000   1.0000   0.0000   0.0000   0.0000   0.0000

          k = 0.1429 0.5774 0.1561 (  2088 PWs)   bands (ev):

     2.6283   2.6804   2.8965   2.9497   3.2492   3.5451   3.5803   3.6739
     3.7950   3.8146   8.9720   9.2252  12.0458  12.0672  17.2029  18.7875

     occupation numbers 
     1.0000   1.0000   1.0000   1.0000   1.0000   1.0000   1.0000   1.0000
     1.0000   1.0000   1.0000   1.0000   0.0000   0.0000   0.0000   0.0000

          k = 0.1429 0.5774 0.2342 (  2072 PWs)   bands (ev):

     2.6423   2.6844   2.8630   2.8769   3.3451   3.4678   3.6677   3.7225
     3.7820   3.7853   9.4188   9.5168  11.1964  11.2088  17.8472  18.6921

     occupation numbers 
     1.0000   1.0000   1.0000   1.0000   1.0000   1.0000   1.0000   1.0000
     1.0000   1.0000   1.0000   1.0000   0.0000   0.0000   0.0000   0.0000

          k = 0.2143 0.3712 0.0000 (  2067 PWs)   bands (ev):

     2.8600   2.8845   2.9183   3.1023   3.1852   3.2173   3.3788   3.4037
     3.6855   3.8210   5.2153  10.8249  11.9827  15.0918  15.4503  20.8707

     occupation numbers 
     1.0000   1.0000   1.0000   1.0000   1.0000   1.0000   1.0000   1.0000
     1.0000   1.0000   1.0000   0.0000   0.0000   0.0000   0.0000   0.0000

          k = 0.2143 0.3712 0.0781 (  2074 PWs)   bands (ev):

     2.8469   2.8734   2.9746   2.9846   3.2036   3.2783   3.3745   3.4640
     3.6585   3.8308   5.3109   9.6367  13.3951  15.2227  15.5776  19.6270

     occupation numbers 
     1.0000   1.0000   1.0000   1.0000   1.0000   1.0000   1.0000   1.0000
     1.0000   1.0000   1.0000   1.0000   0.0000   0.0000   0.0000   0.0000

          k = 0.2143 0.3712 0.1561 (  2072 PWs)   bands (ev):

     2.8162   2.8701   2.9259   3.0469   3.1699   3.2832   3.3798   3.5831
     3.6372   3.8457   5.6268   8.2505  15.4177  15.6142  15.9518  18.2808

     occupation numbers 
     1.0000   1.0000   1.0000   1.0000   1.0000   1.0000   1.0000   1.0000
     1.0000   1.0000   1.0000   1.0000   0.0000   0.0000   0.0000   0.0000

          k = 0.2143 0.3712 0.2342 (  2065 PWs)   bands (ev):

     2.8055   2.8207   2.9828   3.0462   3.1867   3.2437   3.4188   3.4947
     3.7722   3.8362   6.2161   7.0968  16.2584  16.5370  16.9888  17.1514

     occupation numbers 
     1.0000   1.0000   1.0000   1.0000   1.0000   1.0000   1.0000   1.0000
     1.0000   1.0000   1.0000   1.0000   0.0000   0.0000   0.0000   0.0000

          k = 0.2143 0.4536 0.0000 (  2070 PWs)   bands (ev):

     2.8314   2.8317   2.9150   3.1643   3.2474   3.3071   3.3074   3.5223
     3.6597   3.8425   6.5963  12.0031  12.8835  13.4245  14.6811  18.3784

     occupation numbers 
     1.0000   1.0000   1.0000   1.0000   1.0000   1.0000   1.0000   1.0000
     1.0000   1.0000   1.0000   0.0000   0.0000   0.0000   0.0000   0.0000

          k = 0.2143 0.4536 0.0781 (  2074 PWs)   bands (ev):

     2.8002   2.8461   2.9642   3.0559   3.2231   3.3418   3.3889   3.5424
     3.6314   3.8493   6.7084  10.9937  12.8861  14.7158  14.8167  17.3527

     occupation numbers 
     1.0000   1.0000   1.0000   1.0000   1.0000   1.0000   1.0000   1.0000
     1.0000   1.0000   1.0000   0.0000   0.0000   0.0000   0.0000   0.0000

          k = 0.2143 0.4536 0.1561 (  2079 PWs)   bands (ev):

     2.7746   2.8849   2.9219   3.0465   3.1804   3.3733   3.4294   3.5571
     3.6501   3.8567   7.0558   9.6607  13.2498  15.1979  15.6340  16.9622

     occupation numbers 
     1.0000   1.0000   1.0000   1.0000   1.0000   1.0000   1.0000   1.0000
     1.0000   1.0000   1.0000   1.0000   0.0000   0.0000   0.0000   0.0000

          k = 0.2143 0.4536 0.2342 (  2084 PWs)   bands (ev):

     2.7837   2.8323   2.9487   3.0169   3.2461   3.3442   3.4393   3.4827
     3.7683   3.8372   7.6602   8.5322  13.8701  14.7174  15.8308  16.6581

     occupation numbers 
     1.0000   1.0000   1.0000   1.0000   1.0000   1.0000   1.0000   1.0000
     1.0000   1.0000   1.0000   1.0000   0.0000   0.0000   0.0000   0.0000

          k = 0.2143 0.5361 0.0000 (  2083 PWs)   bands (ev):

     2.7985   2.8066   2.9034   3.1831   3.2355   3.3234   3.3529   3.6460
     3.6620   3.7934   8.3132  10.3283  13.8909  14.3700  14.9424  16.1638

     occupation numbers 
     1.0000   1.0000   1.0000   1.0000   1.0000   1.0000   1.0000   1.0000
     1.0000   1.0000   1.0000   1.0000   0.0000   0.0000   0.0000   0.0000

          k = 0.2143 0.5361 0.0781 (  2084 PWs)   bands (ev):

     2.7742   2.8123   2.9607   3.0953   3.1791   3.3875   3.4213   3.6165
     3.6664   3.7992   8.4290  10.4185  12.8760  14.4826  14.7298  16.7132

     occupation numbers 
     1.0000   1.0000   1.0000   1.0000   1.0000   1.0000   1.0000   1.0000
     1.0000   1.0000   1.0000   1.0000   0.0000   0.0000   0.0000   0.0000

          k = 0.2143 0.5361 0.1561 (  2079 PWs)   bands (ev):

     2.7518   2.8485   2.9640   3.0310   3.1426   3.4402   3.4959   3.5590
     3.6908   3.8066   8.7771  10.5707  11.7823  13.5453  14.8917  17.3803

     occupation numbers 
     1.0000   1.0000   1.0000   1.0000   1.0000   1.0000   1.0000   1.0000
     1.0000   1.0000   1.0000   1.0000   0.0000   0.0000   0.0000   0.0000

          k = 0.2143 0.5361 0.2342 (  2085 PWs)   bands (ev):

     2.7727   2.8369   2.9245   2.9875   3.2388   3.3665   3.5285   3.5501
     3.7463   3.7930   9.3535  10.1059  11.7550  12.5026  15.5297  16.3939

     occupation numbers 
     1.0000   1.0000   1.0000   1.0000   1.0000   1.0000   1.0000   1.0000
     1.0000   1.0000   1.0000   1.0000   0.0000   0.0000   0.0000   0.0000

          k = 0.2857 0.4949 0.0000 (  2069 PWs)   bands (ev):

     2.8319   2.9255   2.9796   3.1561   3.2107   3.2424   3.3481   3.5705
     3.6251   3.7866   8.1909  12.0139  12.3917  13.8495  14.9262  17.7741

     occupation numbers 
     1.0000   1.0000   1.0000   1.0000   1.0000   1.0000   1.0000   1.0000
     1.0000   1.0000   1.0000   0.0000   0.0000   0.0000   0.0000   0.0000

          k = 0.2857 0.4949 0.0781 (  2086 PWs)   bands (ev):

     2.8325   2.9325   3.0045   3.0641   3.2081   3.2893   3.3664   3.5945
     3.5956   3.7947   8.3092  11.9818  12.5246  12.9087  15.8750  16.6634

     occupation numbers 
     1.0000   1.0000   1.0000   1.0000   1.0000   1.0000   1.0000   1.0000
     1.0000   1.0000   1.0000   0.0000   0.0000   0.0000   0.0000   0.0000

          k = 0.2857 0.4949 0.1561 (  2081 PWs)   bands (ev):

     2.8370   2.9324   2.9947   3.0711   3.1467   3.3250   3.3931   3.5234
     3.6657   3.8062   8.6671  11.1746  12.7628  12.9170  15.3053  15.4173

     occupation numbers 
     1.0000   1.0000   1.0000   1.0000   1.0000   1.0000   1.0000   1.0000
     1.0000   1.0000   1.0000   0.0000   0.0000   0.0000   0.0000   0.0000

          k = 0.2857 0.4949 0.2342 (  2082 PWs)   bands (ev):

     2.8517   2.8849   3.0199   3.0717   3.1815   3.2794   3.4190   3.4560
     3.7464   3.7957   9.2712  10.1205  13.3173  13.5427  14.2041  14.4301

     occupation numbers 
     1.0000   1.0000   1.0000   1.0000   1.0000   1.0000   1.0000   1.0000
     1.0000   1.0000   1.0000   1.0000   0.0000   0.0000   0.0000   0.0000

          k = 0.2857 0.5774 0.0000 (  2085 PWs)   bands (ev):

     2.8353   2.9574   3.0107   3.1767   3.1778   3.1934   3.3739   3.6123
     3.6457   3.7084  10.0636  10.0646  12.0889  15.2743  16.1573  16.1793

     occupation numbers 
     1.0000   1.0000   1.0000   1.0000   1.0000   1.0000   1.0000   1.0000
     1.0000   1.0000   1.0000   1.0000   0.0000   0.0000   0.0000   0.0000

          k = 0.2857 0.5774 0.0781 (  2086 PWs)   bands (ev):

     2.8466   2.9613   3.0064   3.1050   3.1748   3.2502   3.3860   3.5821
     3.6609   3.7216  10.1692  10.1932  12.2094  14.5274  14.5745  16.4426

     occupation numbers 
     1.0000   1.0000   1.0000   1.0000   1.0000   1.0000   1.0000   1.0000
     1.0000   1.0000   1.0000   1.0000   0.0000   0.0000   0.0000   0.0000

          k = 0.2857 0.5774 0.1561 (  2080 PWs)   bands (ev):

     2.8674   2.9587   3.0165   3.0432   3.1730   3.2800   3.4061   3.5091
     3.7004   3.7476  10.4850  10.5643  12.5139  13.3207  13.3485  15.2486

     occupation numbers 
     1.0000   1.0000   1.0000   1.0000   1.0000   1.0000   1.0000   1.0000
     1.0000   1.0000   1.0000   1.0000   0.0000   0.0000   0.0000   0.0000

          k = 0.2857 0.5774 0.2342 (  2086 PWs)   bands (ev):

     2.8879   2.9221   3.0371   3.0393   3.1981   3.2571   3.4204   3.4448
     3.7418   3.7597  10.9707  11.0737  12.1624  12.3476  13.3455  14.1790

     occupation numbers 
     1.0000   1.0000   1.0000   1.0000   1.0000   1.0000   1.0000   1.0000
     1.0000   1.0000   0.0000   0.0000   0.0000   0.0000   0.0000   0.0000

     the Fermi energy is    10.7568 ev

!    total energy              =    -487.44631639 Ry
     total all-electron energy =     -7184.240362 Ry
     estimated scf accuracy    <       0.00000006 Ry
     smearing contrib. (-TS)   =      -0.00000076 Ry
     internal energy E=F+TS    =    -487.44631562 Ry

     The total energy is F=E-TS. E is the sum of the following terms:
     one-electron contribution =    -118.58410421 Ry
     hartree contribution      =      92.24325392 Ry
     xc contribution           =     -94.34517961 Ry
     ewald contribution        =    -175.89308028 Ry
     one-center paw contrib.   =    -190.86720544 Ry
      -> PAW hartree energy AE =     121.43324951 Ry
      -> PAW hartree energy PS =    -120.80749340 Ry
      -> PAW xc energy AE      =    -143.04050457 Ry
      -> PAW xc energy PS      =      46.98114573 Ry
      -> total E_H with PAW    =      92.86901003 Ry
      -> total E_XC with PAW   =    -190.40453844 Ry

     total magnetization       =     0.00 Bohr mag/cell
     absolute magnetization    =     0.00 Bohr mag/cell

     convergence has been achieved in   6 iterations

     Writing all to output data dir ./out/Zn.save/
 
     init_run     :      0.27s CPU      0.38s WALL (       1 calls)
     electrons    :      5.97s CPU      6.50s WALL (       1 calls)

     Called by init_run:
     wfcinit      :      0.13s CPU      0.20s WALL (       1 calls)
     potinit      :      0.09s CPU      0.13s WALL (       1 calls)
     hinit0       :      0.04s CPU      0.04s WALL (       1 calls)

     Called by electrons:
     c_bands      :      4.75s CPU      5.12s WALL (       6 calls)
     sum_band     :      0.64s CPU      0.67s WALL (       6 calls)
     v_of_rho     :      0.02s CPU      0.02s WALL (       7 calls)
     v_h          :      0.00s CPU      0.00s WALL (       7 calls)
     v_xc         :      0.02s CPU      0.02s WALL (       7 calls)
     newd         :      0.01s CPU      0.01s WALL (       7 calls)
     PAW_pot      :      0.63s CPU      0.77s WALL (       7 calls)
     mix_rho      :      0.00s CPU      0.00s WALL (       6 calls)

     Called by c_bands:
     init_us_2    :      0.04s CPU      0.05s WALL (    1152 calls)
     init_us_2:cp :      0.04s CPU      0.05s WALL (    1152 calls)
     cegterg      :      4.50s CPU      4.75s WALL (     576 calls)

     Called by sum_band:
     sum_band:wei :      0.01s CPU      0.01s WALL (       6 calls)
     sum_band:loo :      0.60s CPU      0.63s WALL (       6 calls)
     sum_band:buf :      0.00s CPU      0.00s WALL (     576 calls)
     sum_band:ini :      0.02s CPU      0.03s WALL (     576 calls)
     sum_band:cal :      0.05s CPU      0.05s WALL (     576 calls)
     sum_band:bec :      0.00s CPU      0.00s WALL (     576 calls)
     addusdens    :      0.02s CPU      0.02s WALL (       6 calls)
                                        0.00s GPU  (       6 calls)
     addusd:skk   :      0.00s CPU      0.00s WALL (       6 calls)
                                        0.00s GPU  (       6 calls)

     Called by *egterg:
     cdiaghg      :      0.74s CPU      0.78s WALL (    2626 calls)
     cegterg:over :      0.11s CPU      0.12s WALL (    2146 calls)
     cegterg:upda :      0.03s CPU      0.03s WALL (    2146 calls)
     cegterg:last :      0.05s CPU      0.05s WALL (    1644 calls)
     h_psi        :      3.39s CPU      3.59s WALL (    2722 calls)
     s_psi        :      0.06s CPU      0.06s WALL (    2722 calls)
     g_psi        :      0.01s CPU      0.01s WALL (    2146 calls)

     Called by h_psi:
     h_psi:calbec :      0.16s CPU      0.17s WALL (    2722 calls)
     vloc_psi     :      3.14s CPU      3.32s WALL (    2722 calls)
     add_vuspsi   :      0.07s CPU      0.07s WALL (    2722 calls)

     General routines
     calbec       :      0.20s CPU      0.21s WALL (    3298 calls)
     fft          :      0.01s CPU      0.01s WALL (     145 calls)
     ffts         :      0.00s CPU      0.00s WALL (      12 calls)
     fftw         :      3.39s CPU      3.58s WALL (   69858 calls)
 
     Parallel routines

     PAW routines
     PAW_pot      :      0.63s CPU      0.77s WALL (       7 calls)
     PAW_symme    :      0.01s CPU      0.01s WALL (      12 calls)
 
     PWSCF        :      6.50s CPU      7.51s WALL

 
   This run was terminated on:   3:29:25  13Mar2024            

=------------------------------------------------------------------------------=
   JOB DONE.
=------------------------------------------------------------------------------=
