
     Program PWSCF v.7.2 starts on 13Mar2024 at  3:30:55 

     This program is part of the open-source Quantum ESPRESSO suite
     for quantum simulation of materials; please cite
         "P. Giannozzi et al., J. Phys.:Condens. Matter 21 395502 (2009);
         "P. Giannozzi et al., J. Phys.:Condens. Matter 29 465901 (2017);
         "P. Giannozzi et al., J. Chem. Phys. 152 154105 (2020);
          URL http://www.quantum-espresso.org", 
     in publications or presentations arising from this work. More details at
     http://www.quantum-espresso.org/quote

     Parallel version (MPI), running on    28 processors

     MPI processes distributed on     1 nodes
     153469 MiB available memory on the printing compute node when the environment starts
 
     Waiting for input...
     Reading input from standard input

     Current dimensions of program PWSCF are:
     Max number of different atomic species (ntypx) = 10
     Max number of k-points (npk) = 120000
     Max angular momentum in pseudopotentials (lmaxx) =  4
     file Zn.pbe-dnl-kjpaw_psl.1.0.0.UPF: wavefunction(s)  4S 3D renormalized
 
     K-points division:     npool     =       2
     R & G space division:  proc/nbgrp/npool/nimage =      14
     Subspace diagonalization in iterative solution of the eigenvalue problem:
     a serial algorithm will be used

 
     Parallelization info
     --------------------
     sticks:   dense  smooth     PW     G-vecs:    dense   smooth      PW
     Min          36      36     11                 1194     1194     200
     Max          37      37     13                 1203     1203     203
     Sum         511     511    163                16771    16771    2829
 
     Using Slab Decomposition
 


     bravais-lattice index     =            4
     lattice parameter (alat)  =       5.2000  a.u.
     unit-cell volume          =     213.0977 (a.u.)^3
     number of atoms/cell      =            2
     number of atomic types    =            1
     number of electrons       =        24.00
     number of Kohn-Sham states=           16
     kinetic-energy cutoff     =      70.0000  Ry
     charge density cutoff     =     280.0000  Ry
     scf convergence threshold =      4.0E-06
     mixing beta               =       0.7000
     number of iterations used =            8  plain     mixing
     Exchange-correlation= SLA  PW   PBX  PBC
                           (   1   4   3   4   0   0   0)

     celldm(1)=   5.200000  celldm(2)=   0.000000  celldm(3)=   1.750000
     celldm(4)=   0.000000  celldm(5)=   0.000000  celldm(6)=   0.000000

     crystal axes: (cart. coord. in units of alat)
               a(1) = (   1.000000   0.000000   0.000000 )  
               a(2) = (  -0.500000   0.866025   0.000000 )  
               a(3) = (   0.000000   0.000000   1.750000 )  

     reciprocal axes: (cart. coord. in units 2 pi/alat)
               b(1) = (  1.000000  0.577350  0.000000 )  
               b(2) = (  0.000000  1.154701  0.000000 )  
               b(3) = (  0.000000  0.000000  0.571429 )  


     PseudoPot. # 1 for Zn read from file:
     /truba/home/amuhaymin/ZnS/pseudo/QE/Zn.pbe-dnl-kjpaw_psl.1.0.0.UPF
     MD5 check sum: c608214d9520ac179f507641260889e3
     Pseudo is Projector augmented-wave + core cor, Zval = 12.0
     Generated using &quot;atomic&quot; code by A. Dal Corso  v.6.2.2
     Shape of augmentation charge: PSQ
     Using radial grid of 1201 points,  6 beta functions with: 
                l(1) =   0
                l(2) =   0
                l(3) =   1
                l(4) =   1
                l(5) =   2
                l(6) =   2
     Q(r) pseudized with 0 coefficients 


     atomic species   valence    mass     pseudopotential
        Zn            12.00    65.38000     Zn( 1.00)

     Starting magnetic structure 
     atomic species   magnetization
        Zn           0.000

     24 Sym. Ops., with inversion, found (12 have fractional translation)


                                    s                        frac. trans.

      isym =  1     identity                                     

 cryst.   s( 1) = (     1          0          0      )
                  (     0          1          0      )
                  (     0          0          1      )

 cart.    s( 1) = (  1.0000000  0.0000000  0.0000000 )
                  (  0.0000000  1.0000000  0.0000000 )
                  (  0.0000000  0.0000000  1.0000000 )


      isym =  2     180 deg rotation - cart. axis [0,0,1]        

 cryst.   s( 2) = (    -1          0          0      )    f =(  0.0000000 )
                  (     0         -1          0      )       (  0.0000000 )
                  (     0          0          1      )       ( -0.5000000 )

 cart.    s( 2) = ( -1.0000000  0.0000000  0.0000000 )    f =(  0.0000000 )
                  (  0.0000000 -1.0000000  0.0000000 )       (  0.0000000 )
                  (  0.0000000  0.0000000  1.0000000 )       ( -0.8750000 )


      isym =  3     180 deg rotation - cart. axis [0,1,0]        

 cryst.   s( 3) = (    -1          0          0      )    f =(  0.0000000 )
                  (     1          1          0      )       (  0.0000000 )
                  (     0          0         -1      )       (  0.5000000 )

 cart.    s( 3) = ( -1.0000000  0.0000000  0.0000000 )    f =(  0.0000000 )
                  (  0.0000000  1.0000000  0.0000000 )       (  0.0000000 )
                  (  0.0000000  0.0000000 -1.0000000 )       (  0.8750000 )


      isym =  4     180 deg rotation - cart. axis [1,0,0]        

 cryst.   s( 4) = (     1          0          0      )
                  (    -1         -1          0      )
                  (     0          0         -1      )

 cart.    s( 4) = (  1.0000000  0.0000000  0.0000000 )
                  (  0.0000000 -1.0000000  0.0000000 )
                  (  0.0000000  0.0000000 -1.0000000 )


      isym =  5      60 deg rotation - cryst. axis [0,0,1]       

 cryst.   s( 5) = (     1          1          0      )    f =(  0.0000000 )
                  (    -1          0          0      )       ( -0.0000000 )
                  (     0          0          1      )       ( -0.5000000 )

 cart.    s( 5) = (  0.5000000 -0.8660254  0.0000000 )    f =(  0.0000000 )
                  (  0.8660254  0.5000000  0.0000000 )       ( -0.0000000 )
                  (  0.0000000  0.0000000  1.0000000 )       ( -0.8750000 )


      isym =  6      60 deg rotation - cryst. axis [0,0,-1]      

 cryst.   s( 6) = (     0         -1          0      )    f =(  0.0000000 )
                  (     1          1          0      )       ( -0.0000000 )
                  (     0          0          1      )       ( -0.5000000 )

 cart.    s( 6) = (  0.5000000  0.8660254  0.0000000 )    f =(  0.0000000 )
                  ( -0.8660254  0.5000000  0.0000000 )       ( -0.0000000 )
                  (  0.0000000  0.0000000  1.0000000 )       ( -0.8750000 )


      isym =  7     120 deg rotation - cryst. axis [0,0,1]       

 cryst.   s( 7) = (     0          1          0      )
                  (    -1         -1          0      )
                  (     0          0          1      )

 cart.    s( 7) = ( -0.5000000 -0.8660254  0.0000000 )
                  (  0.8660254 -0.5000000  0.0000000 )
                  (  0.0000000  0.0000000  1.0000000 )


      isym =  8     120 deg rotation - cryst. axis [0,0,-1]      

 cryst.   s( 8) = (    -1         -1          0      )
                  (     1          0          0      )
                  (     0          0          1      )

 cart.    s( 8) = ( -0.5000000  0.8660254  0.0000000 )
                  ( -0.8660254 -0.5000000  0.0000000 )
                  (  0.0000000  0.0000000  1.0000000 )


      isym =  9     180 deg rotation - cryst. axis [1,-1,0]      

 cryst.   s( 9) = (     0         -1          0      )    f =(  0.0000000 )
                  (    -1          0          0      )       (  0.0000000 )
                  (     0          0         -1      )       (  0.5000000 )

 cart.    s( 9) = (  0.5000000 -0.8660254  0.0000000 )    f =(  0.0000000 )
                  ( -0.8660254 -0.5000000  0.0000000 )       (  0.0000000 )
                  (  0.0000000  0.0000000 -1.0000000 )       (  0.8750000 )


      isym = 10     180 deg rotation - cryst. axis [2,1,0]       

 cryst.   s(10) = (     1          1          0      )    f =(  0.0000000 )
                  (     0         -1          0      )       ( -0.0000000 )
                  (     0          0         -1      )       (  0.5000000 )

 cart.    s(10) = (  0.5000000  0.8660254  0.0000000 )    f =(  0.0000000 )
                  (  0.8660254 -0.5000000  0.0000000 )       ( -0.0000000 )
                  (  0.0000000  0.0000000 -1.0000000 )       (  0.8750000 )


      isym = 11     180 deg rotation - cryst. axis [0,1,0]       

 cryst.   s(11) = (    -1         -1          0      )
                  (     0          1          0      )
                  (     0          0         -1      )

 cart.    s(11) = ( -0.5000000 -0.8660254  0.0000000 )
                  ( -0.8660254  0.5000000  0.0000000 )
                  (  0.0000000  0.0000000 -1.0000000 )


      isym = 12     180 deg rotation - cryst. axis [1,1,0]       

 cryst.   s(12) = (     0          1          0      )
                  (     1          0          0      )
                  (     0          0         -1      )

 cart.    s(12) = ( -0.5000000  0.8660254  0.0000000 )
                  (  0.8660254  0.5000000  0.0000000 )
                  (  0.0000000  0.0000000 -1.0000000 )


      isym = 13     inversion                                    

 cryst.   s(13) = (    -1          0          0      )
                  (     0         -1          0      )
                  (     0          0         -1      )

 cart.    s(13) = ( -1.0000000  0.0000000  0.0000000 )
                  (  0.0000000 -1.0000000  0.0000000 )
                  (  0.0000000  0.0000000 -1.0000000 )


      isym = 14     inv. 180 deg rotation - cart. axis [0,0,1]   

 cryst.   s(14) = (     1          0          0      )    f =(  0.0000000 )
                  (     0          1          0      )       (  0.0000000 )
                  (     0          0         -1      )       (  0.5000000 )

 cart.    s(14) = (  1.0000000  0.0000000  0.0000000 )    f =(  0.0000000 )
                  (  0.0000000  1.0000000  0.0000000 )       (  0.0000000 )
                  (  0.0000000  0.0000000 -1.0000000 )       (  0.8750000 )


      isym = 15     inv. 180 deg rotation - cart. axis [0,1,0]   

 cryst.   s(15) = (     1          0          0      )    f =(  0.0000000 )
                  (    -1         -1          0      )       (  0.0000000 )
                  (     0          0          1      )       ( -0.5000000 )

 cart.    s(15) = (  1.0000000  0.0000000  0.0000000 )    f =(  0.0000000 )
                  (  0.0000000 -1.0000000  0.0000000 )       (  0.0000000 )
                  (  0.0000000  0.0000000  1.0000000 )       ( -0.8750000 )


      isym = 16     inv. 180 deg rotation - cart. axis [1,0,0]   

 cryst.   s(16) = (    -1          0          0      )
                  (     1          1          0      )
                  (     0          0          1      )

 cart.    s(16) = ( -1.0000000  0.0000000  0.0000000 )
                  (  0.0000000  1.0000000  0.0000000 )
                  (  0.0000000  0.0000000  1.0000000 )


      isym = 17     inv.  60 deg rotation - cryst. axis [0,0,1]  

 cryst.   s(17) = (    -1         -1          0      )    f =(  0.0000000 )
                  (     1          0          0      )       (  0.0000000 )
                  (     0          0         -1      )       (  0.5000000 )

 cart.    s(17) = ( -0.5000000  0.8660254  0.0000000 )    f =(  0.0000000 )
                  ( -0.8660254 -0.5000000  0.0000000 )       (  0.0000000 )
                  (  0.0000000  0.0000000 -1.0000000 )       (  0.8750000 )


      isym = 18     inv.  60 deg rotation - cryst. axis [0,0,-1] 

 cryst.   s(18) = (     0          1          0      )    f =(  0.0000000 )
                  (    -1         -1          0      )       ( -0.0000000 )
                  (     0          0         -1      )       (  0.5000000 )

 cart.    s(18) = ( -0.5000000 -0.8660254  0.0000000 )    f =(  0.0000000 )
                  (  0.8660254 -0.5000000  0.0000000 )       ( -0.0000000 )
                  (  0.0000000  0.0000000 -1.0000000 )       (  0.8750000 )


      isym = 19     inv. 120 deg rotation - cryst. axis [0,0,1]  

 cryst.   s(19) = (     0         -1          0      )
                  (     1          1          0      )
                  (     0          0         -1      )

 cart.    s(19) = (  0.5000000  0.8660254  0.0000000 )
                  ( -0.8660254  0.5000000  0.0000000 )
                  (  0.0000000  0.0000000 -1.0000000 )


      isym = 20     inv. 120 deg rotation - cryst. axis [0,0,-1] 

 cryst.   s(20) = (     1          1          0      )
                  (    -1          0          0      )
                  (     0          0         -1      )

 cart.    s(20) = (  0.5000000 -0.8660254  0.0000000 )
                  (  0.8660254  0.5000000  0.0000000 )
                  (  0.0000000  0.0000000 -1.0000000 )


      isym = 21     inv. 180 deg rotation - cryst. axis [1,-1,0] 

 cryst.   s(21) = (     0          1          0      )    f =(  0.0000000 )
                  (     1          0          0      )       ( -0.0000000 )
                  (     0          0          1      )       ( -0.5000000 )

 cart.    s(21) = ( -0.5000000  0.8660254  0.0000000 )    f =(  0.0000000 )
                  (  0.8660254  0.5000000  0.0000000 )       ( -0.0000000 )
                  (  0.0000000  0.0000000  1.0000000 )       ( -0.8750000 )


      isym = 22     inv. 180 deg rotation - cryst. axis [2,1,0]  

 cryst.   s(22) = (    -1         -1          0      )    f =(  0.0000000 )
                  (     0          1          0      )       ( -0.0000000 )
                  (     0          0          1      )       ( -0.5000000 )

 cart.    s(22) = ( -0.5000000 -0.8660254  0.0000000 )    f =(  0.0000000 )
                  ( -0.8660254  0.5000000  0.0000000 )       ( -0.0000000 )
                  (  0.0000000  0.0000000  1.0000000 )       ( -0.8750000 )


      isym = 23     inv. 180 deg rotation - cryst. axis [0,1,0]  

 cryst.   s(23) = (     1          1          0      )
                  (     0         -1          0      )
                  (     0          0          1      )

 cart.    s(23) = (  0.5000000  0.8660254  0.0000000 )
                  (  0.8660254 -0.5000000  0.0000000 )
                  (  0.0000000  0.0000000  1.0000000 )


      isym = 24     inv. 180 deg rotation - cryst. axis [1,1,0]  

 cryst.   s(24) = (     0         -1          0      )
                  (    -1          0          0      )
                  (     0          0          1      )

 cart.    s(24) = (  0.5000000 -0.8660254  0.0000000 )
                  ( -0.8660254 -0.5000000  0.0000000 )
                  (  0.0000000  0.0000000  1.0000000 )


     point group D_6h(6/mmm)
     there are 12 classes
     the character table:

       E     2C6   2C3   C2    3C2'  3C2'' i     2S3   2S6   s_h   3s_d  3s_v 
A_1g   1.00  1.00  1.00  1.00  1.00  1.00  1.00  1.00  1.00  1.00  1.00  1.00
A_2g   1.00  1.00  1.00  1.00 -1.00 -1.00  1.00  1.00  1.00  1.00 -1.00 -1.00
B_1g   1.00 -1.00  1.00 -1.00  1.00 -1.00  1.00 -1.00  1.00 -1.00  1.00 -1.00
B_2g   1.00 -1.00  1.00 -1.00 -1.00  1.00  1.00 -1.00  1.00 -1.00 -1.00  1.00
E_1g   2.00  1.00 -1.00 -2.00  0.00  0.00  2.00  1.00 -1.00 -2.00  0.00  0.00
E_2g   2.00 -1.00 -1.00  2.00  0.00  0.00  2.00 -1.00 -1.00  2.00  0.00  0.00
A_1u   1.00  1.00  1.00  1.00  1.00  1.00 -1.00 -1.00 -1.00 -1.00 -1.00 -1.00
A_2u   1.00  1.00  1.00  1.00 -1.00 -1.00 -1.00 -1.00 -1.00 -1.00  1.00  1.00
B_1u   1.00 -1.00  1.00 -1.00  1.00 -1.00 -1.00  1.00 -1.00  1.00 -1.00  1.00
B_2u   1.00 -1.00  1.00 -1.00 -1.00  1.00 -1.00  1.00 -1.00  1.00  1.00 -1.00
E_1u   2.00  1.00 -1.00 -2.00  0.00  0.00 -2.00 -1.00  1.00  2.00  0.00  0.00
E_2u   2.00 -1.00 -1.00  2.00  0.00  0.00 -2.00  1.00  1.00 -2.00  0.00  0.00

     the symmetry operations in each class and the name of the first element:

     E        1
          identity                                               
     2C6      5    6
           60 deg rotation - cryst. axis [0,0,1]                 
     2C3      7    8
          120 deg rotation - cryst. axis [0,0,1]                 
     C2       2
          180 deg rotation - cart. axis [0,0,1]                  
     3C2'     4   12   11
          180 deg rotation - cart. axis [1,0,0]                  
     3C2''    3    9   10
          180 deg rotation - cart. axis [0,1,0]                  
     i       13
          inversion                                              
     2S3     17   18
          inv.  60 deg rotation - cryst. axis [0,0,1]            
     2S6     19   20
          inv. 120 deg rotation - cryst. axis [0,0,1]            
     s_h     14
          inv. 180 deg rotation - cart. axis [0,0,1]             
     3s_d    16   24   23
          inv. 180 deg rotation - cart. axis [1,0,0]             
     3s_v    15   21   22
          inv. 180 deg rotation - cart. axis [0,1,0]             

   Cartesian axes

     site n.     atom                  positions (alat units)
         1           Zn  tau(   1) = (  -0.0000000   0.5773503   0.4375000  )
         2           Zn  tau(   2) = (   0.5000000   0.2886751   1.3125000  )

   Crystallographic axes

     site n.     atom                  positions (cryst. coord.)
         1           Zn  tau(   1) = (  0.3333333  0.6666667  0.2500000  )
         2           Zn  tau(   2) = (  0.6666667  0.3333333  0.7500000  )

     number of k points=    96  Marzari-Vanderbilt smearing, width (Ry)=  0.0005
                       cart. coord. in units 2pi/alat
        k(    1) = (   0.0000000   0.0000000   0.0000000), wk =   0.0007289
        k(    2) = (   0.0000000   0.0000000   0.0816327), wk =   0.0014577
        k(    3) = (   0.0000000   0.0000000   0.1632653), wk =   0.0014577
        k(    4) = (   0.0000000   0.0000000   0.2448980), wk =   0.0014577
        k(    5) = (   0.0000000   0.0824786   0.0000000), wk =   0.0043732
        k(    6) = (   0.0000000   0.0824786   0.0816327), wk =   0.0087464
        k(    7) = (   0.0000000   0.0824786   0.1632653), wk =   0.0087464
        k(    8) = (   0.0000000   0.0824786   0.2448980), wk =   0.0087464
        k(    9) = (   0.0000000   0.1649572   0.0000000), wk =   0.0043732
        k(   10) = (   0.0000000   0.1649572   0.0816327), wk =   0.0087464
        k(   11) = (   0.0000000   0.1649572   0.1632653), wk =   0.0087464
        k(   12) = (   0.0000000   0.1649572   0.2448980), wk =   0.0087464
        k(   13) = (   0.0000000   0.2474358   0.0000000), wk =   0.0043732
        k(   14) = (   0.0000000   0.2474358   0.0816327), wk =   0.0087464
        k(   15) = (   0.0000000   0.2474358   0.1632653), wk =   0.0087464
        k(   16) = (   0.0000000   0.2474358   0.2448980), wk =   0.0087464
        k(   17) = (   0.0000000   0.3299144   0.0000000), wk =   0.0043732
        k(   18) = (   0.0000000   0.3299144   0.0816327), wk =   0.0087464
        k(   19) = (   0.0000000   0.3299144   0.1632653), wk =   0.0087464
        k(   20) = (   0.0000000   0.3299144   0.2448980), wk =   0.0087464
        k(   21) = (   0.0000000   0.4123930   0.0000000), wk =   0.0043732
        k(   22) = (   0.0000000   0.4123930   0.0816327), wk =   0.0087464
        k(   23) = (   0.0000000   0.4123930   0.1632653), wk =   0.0087464
        k(   24) = (   0.0000000   0.4123930   0.2448980), wk =   0.0087464
        k(   25) = (   0.0000000   0.4948717   0.0000000), wk =   0.0043732
        k(   26) = (   0.0000000   0.4948717   0.0816327), wk =   0.0087464
        k(   27) = (   0.0000000   0.4948717   0.1632653), wk =   0.0087464
        k(   28) = (   0.0000000   0.4948717   0.2448980), wk =   0.0087464
        k(   29) = (   0.0000000  -0.5773503   0.0000000), wk =   0.0021866
        k(   30) = (   0.0000000  -0.5773503   0.0816327), wk =   0.0043732
        k(   31) = (   0.0000000  -0.5773503   0.1632653), wk =   0.0043732
        k(   32) = (   0.0000000  -0.5773503   0.2448980), wk =   0.0043732
        k(   33) = (   0.0714286   0.1237179   0.0000000), wk =   0.0043732
        k(   34) = (   0.0714286   0.1237179   0.0816327), wk =   0.0087464
        k(   35) = (   0.0714286   0.1237179   0.1632653), wk =   0.0087464
        k(   36) = (   0.0714286   0.1237179   0.2448980), wk =   0.0087464
        k(   37) = (   0.0714286   0.2061965   0.0000000), wk =   0.0087464
        k(   38) = (   0.0714286   0.2061965   0.0816327), wk =   0.0174927
        k(   39) = (   0.0714286   0.2061965   0.1632653), wk =   0.0174927
        k(   40) = (   0.0714286   0.2061965   0.2448980), wk =   0.0174927
        k(   41) = (   0.0714286   0.2886751   0.0000000), wk =   0.0087464
        k(   42) = (   0.0714286   0.2886751   0.0816327), wk =   0.0174927
        k(   43) = (   0.0714286   0.2886751   0.1632653), wk =   0.0174927
        k(   44) = (   0.0714286   0.2886751   0.2448980), wk =   0.0174927
        k(   45) = (   0.0714286   0.3711537   0.0000000), wk =   0.0087464
        k(   46) = (   0.0714286   0.3711537   0.0816327), wk =   0.0174927
        k(   47) = (   0.0714286   0.3711537   0.1632653), wk =   0.0174927
        k(   48) = (   0.0714286   0.3711537   0.2448980), wk =   0.0174927
        k(   49) = (   0.0714286   0.4536324   0.0000000), wk =   0.0087464
        k(   50) = (   0.0714286   0.4536324   0.0816327), wk =   0.0174927
        k(   51) = (   0.0714286   0.4536324   0.1632653), wk =   0.0174927
        k(   52) = (   0.0714286   0.4536324   0.2448980), wk =   0.0174927
        k(   53) = (   0.0714286   0.5361110   0.0000000), wk =   0.0087464
        k(   54) = (   0.0714286   0.5361110   0.0816327), wk =   0.0174927
        k(   55) = (   0.0714286   0.5361110   0.1632653), wk =   0.0174927
        k(   56) = (   0.0714286   0.5361110   0.2448980), wk =   0.0174927
        k(   57) = (   0.1428571   0.2474358   0.0000000), wk =   0.0043732
        k(   58) = (   0.1428571   0.2474358   0.0816327), wk =   0.0087464
        k(   59) = (   0.1428571   0.2474358   0.1632653), wk =   0.0087464
        k(   60) = (   0.1428571   0.2474358   0.2448980), wk =   0.0087464
        k(   61) = (   0.1428571   0.3299144   0.0000000), wk =   0.0087464
        k(   62) = (   0.1428571   0.3299144   0.0816327), wk =   0.0174927
        k(   63) = (   0.1428571   0.3299144   0.1632653), wk =   0.0174927
        k(   64) = (   0.1428571   0.3299144   0.2448980), wk =   0.0174927
        k(   65) = (   0.1428571   0.4123930   0.0000000), wk =   0.0087464
        k(   66) = (   0.1428571   0.4123930   0.0816327), wk =   0.0174927
        k(   67) = (   0.1428571   0.4123930   0.1632653), wk =   0.0174927
        k(   68) = (   0.1428571   0.4123930   0.2448980), wk =   0.0174927
        k(   69) = (   0.1428571   0.4948717   0.0000000), wk =   0.0087464
        k(   70) = (   0.1428571   0.4948717   0.0816327), wk =   0.0174927
        k(   71) = (   0.1428571   0.4948717   0.1632653), wk =   0.0174927
        k(   72) = (   0.1428571   0.4948717   0.2448980), wk =   0.0174927
        k(   73) = (   0.1428571   0.5773503   0.0000000), wk =   0.0043732
        k(   74) = (   0.1428571   0.5773503   0.0816327), wk =   0.0087464
        k(   75) = (   0.1428571   0.5773503   0.1632653), wk =   0.0087464
        k(   76) = (   0.1428571   0.5773503   0.2448980), wk =   0.0087464
        k(   77) = (   0.2142857   0.3711537   0.0000000), wk =   0.0043732
        k(   78) = (   0.2142857   0.3711537   0.0816327), wk =   0.0087464
        k(   79) = (   0.2142857   0.3711537   0.1632653), wk =   0.0087464
        k(   80) = (   0.2142857   0.3711537   0.2448980), wk =   0.0087464
        k(   81) = (   0.2142857   0.4536324   0.0000000), wk =   0.0087464
        k(   82) = (   0.2142857   0.4536324   0.0816327), wk =   0.0174927
        k(   83) = (   0.2142857   0.4536324   0.1632653), wk =   0.0174927
        k(   84) = (   0.2142857   0.4536324   0.2448980), wk =   0.0174927
        k(   85) = (   0.2142857   0.5361110   0.0000000), wk =   0.0087464
        k(   86) = (   0.2142857   0.5361110   0.0816327), wk =   0.0174927
        k(   87) = (   0.2142857   0.5361110   0.1632653), wk =   0.0174927
        k(   88) = (   0.2142857   0.5361110   0.2448980), wk =   0.0174927
        k(   89) = (   0.2857143   0.4948717   0.0000000), wk =   0.0043732
        k(   90) = (   0.2857143   0.4948717   0.0816327), wk =   0.0087464
        k(   91) = (   0.2857143   0.4948717   0.1632653), wk =   0.0087464
        k(   92) = (   0.2857143   0.4948717   0.2448980), wk =   0.0087464
        k(   93) = (   0.2857143   0.5773503   0.0000000), wk =   0.0043732
        k(   94) = (   0.2857143   0.5773503   0.0816327), wk =   0.0087464
        k(   95) = (   0.2857143   0.5773503   0.1632653), wk =   0.0087464
        k(   96) = (   0.2857143   0.5773503   0.2448980), wk =   0.0087464

                       cryst. coord.
        k(    1) = (   0.0000000   0.0000000   0.0000000), wk =   0.0007289
        k(    2) = (   0.0000000   0.0000000   0.1428571), wk =   0.0014577
        k(    3) = (   0.0000000   0.0000000   0.2857143), wk =   0.0014577
        k(    4) = (   0.0000000   0.0000000   0.4285714), wk =   0.0014577
        k(    5) = (   0.0000000   0.0714286   0.0000000), wk =   0.0043732
        k(    6) = (   0.0000000   0.0714286   0.1428571), wk =   0.0087464
        k(    7) = (   0.0000000   0.0714286   0.2857143), wk =   0.0087464
        k(    8) = (   0.0000000   0.0714286   0.4285714), wk =   0.0087464
        k(    9) = (   0.0000000   0.1428571   0.0000000), wk =   0.0043732
        k(   10) = (   0.0000000   0.1428571   0.1428571), wk =   0.0087464
        k(   11) = (   0.0000000   0.1428571   0.2857143), wk =   0.0087464
        k(   12) = (   0.0000000   0.1428571   0.4285714), wk =   0.0087464
        k(   13) = (   0.0000000   0.2142857   0.0000000), wk =   0.0043732
        k(   14) = (   0.0000000   0.2142857   0.1428571), wk =   0.0087464
        k(   15) = (   0.0000000   0.2142857   0.2857143), wk =   0.0087464
        k(   16) = (   0.0000000   0.2142857   0.4285714), wk =   0.0087464
        k(   17) = (   0.0000000   0.2857143   0.0000000), wk =   0.0043732
        k(   18) = (   0.0000000   0.2857143   0.1428571), wk =   0.0087464
        k(   19) = (   0.0000000   0.2857143   0.2857143), wk =   0.0087464
        k(   20) = (   0.0000000   0.2857143   0.4285714), wk =   0.0087464
        k(   21) = (   0.0000000   0.3571429   0.0000000), wk =   0.0043732
        k(   22) = (   0.0000000   0.3571429   0.1428571), wk =   0.0087464
        k(   23) = (   0.0000000   0.3571429   0.2857143), wk =   0.0087464
        k(   24) = (   0.0000000   0.3571429   0.4285714), wk =   0.0087464
        k(   25) = (   0.0000000   0.4285714   0.0000000), wk =   0.0043732
        k(   26) = (   0.0000000   0.4285714   0.1428571), wk =   0.0087464
        k(   27) = (   0.0000000   0.4285714   0.2857143), wk =   0.0087464
        k(   28) = (   0.0000000   0.4285714   0.4285714), wk =   0.0087464
        k(   29) = (   0.0000000  -0.5000000   0.0000000), wk =   0.0021866
        k(   30) = (   0.0000000  -0.5000000   0.1428571), wk =   0.0043732
        k(   31) = (   0.0000000  -0.5000000   0.2857143), wk =   0.0043732
        k(   32) = (   0.0000000  -0.5000000   0.4285714), wk =   0.0043732
        k(   33) = (   0.0714286   0.0714286   0.0000000), wk =   0.0043732
        k(   34) = (   0.0714286   0.0714286   0.1428571), wk =   0.0087464
        k(   35) = (   0.0714286   0.0714286   0.2857143), wk =   0.0087464
        k(   36) = (   0.0714286   0.0714286   0.4285714), wk =   0.0087464
        k(   37) = (   0.0714286   0.1428571   0.0000000), wk =   0.0087464
        k(   38) = (   0.0714286   0.1428571   0.1428571), wk =   0.0174927
        k(   39) = (   0.0714286   0.1428571   0.2857143), wk =   0.0174927
        k(   40) = (   0.0714286   0.1428571   0.4285714), wk =   0.0174927
        k(   41) = (   0.0714286   0.2142857   0.0000000), wk =   0.0087464
        k(   42) = (   0.0714286   0.2142857   0.1428571), wk =   0.0174927
        k(   43) = (   0.0714286   0.2142857   0.2857143), wk =   0.0174927
        k(   44) = (   0.0714286   0.2142857   0.4285714), wk =   0.0174927
        k(   45) = (   0.0714286   0.2857143   0.0000000), wk =   0.0087464
        k(   46) = (   0.0714286   0.2857143   0.1428571), wk =   0.0174927
        k(   47) = (   0.0714286   0.2857143   0.2857143), wk =   0.0174927
        k(   48) = (   0.0714286   0.2857143   0.4285714), wk =   0.0174927
        k(   49) = (   0.0714286   0.3571429   0.0000000), wk =   0.0087464
        k(   50) = (   0.0714286   0.3571429   0.1428571), wk =   0.0174927
        k(   51) = (   0.0714286   0.3571429   0.2857143), wk =   0.0174927
        k(   52) = (   0.0714286   0.3571429   0.4285714), wk =   0.0174927
        k(   53) = (   0.0714286   0.4285714   0.0000000), wk =   0.0087464
        k(   54) = (   0.0714286   0.4285714   0.1428571), wk =   0.0174927
        k(   55) = (   0.0714286   0.4285714   0.2857143), wk =   0.0174927
        k(   56) = (   0.0714286   0.4285714   0.4285714), wk =   0.0174927
        k(   57) = (   0.1428571   0.1428571   0.0000000), wk =   0.0043732
        k(   58) = (   0.1428571   0.1428571   0.1428571), wk =   0.0087464
        k(   59) = (   0.1428571   0.1428571   0.2857143), wk =   0.0087464
        k(   60) = (   0.1428571   0.1428571   0.4285714), wk =   0.0087464
        k(   61) = (   0.1428571   0.2142857   0.0000000), wk =   0.0087464
        k(   62) = (   0.1428571   0.2142857   0.1428571), wk =   0.0174927
        k(   63) = (   0.1428571   0.2142857   0.2857143), wk =   0.0174927
        k(   64) = (   0.1428571   0.2142857   0.4285714), wk =   0.0174927
        k(   65) = (   0.1428571   0.2857143   0.0000000), wk =   0.0087464
        k(   66) = (   0.1428571   0.2857143   0.1428571), wk =   0.0174927
        k(   67) = (   0.1428571   0.2857143   0.2857143), wk =   0.0174927
        k(   68) = (   0.1428571   0.2857143   0.4285714), wk =   0.0174927
        k(   69) = (   0.1428571   0.3571429   0.0000000), wk =   0.0087464
        k(   70) = (   0.1428571   0.3571429   0.1428571), wk =   0.0174927
        k(   71) = (   0.1428571   0.3571429   0.2857143), wk =   0.0174927
        k(   72) = (   0.1428571   0.3571429   0.4285714), wk =   0.0174927
        k(   73) = (   0.1428571   0.4285714   0.0000000), wk =   0.0043732
        k(   74) = (   0.1428571   0.4285714   0.1428571), wk =   0.0087464
        k(   75) = (   0.1428571   0.4285714   0.2857143), wk =   0.0087464
        k(   76) = (   0.1428571   0.4285714   0.4285714), wk =   0.0087464
        k(   77) = (   0.2142857   0.2142857   0.0000000), wk =   0.0043732
        k(   78) = (   0.2142857   0.2142857   0.1428571), wk =   0.0087464
        k(   79) = (   0.2142857   0.2142857   0.2857143), wk =   0.0087464
        k(   80) = (   0.2142857   0.2142857   0.4285714), wk =   0.0087464
        k(   81) = (   0.2142857   0.2857143   0.0000000), wk =   0.0087464
        k(   82) = (   0.2142857   0.2857143   0.1428571), wk =   0.0174927
        k(   83) = (   0.2142857   0.2857143   0.2857143), wk =   0.0174927
        k(   84) = (   0.2142857   0.2857143   0.4285714), wk =   0.0174927
        k(   85) = (   0.2142857   0.3571429   0.0000000), wk =   0.0087464
        k(   86) = (   0.2142857   0.3571429   0.1428571), wk =   0.0174927
        k(   87) = (   0.2142857   0.3571429   0.2857143), wk =   0.0174927
        k(   88) = (   0.2142857   0.3571429   0.4285714), wk =   0.0174927
        k(   89) = (   0.2857143   0.2857143   0.0000000), wk =   0.0043732
        k(   90) = (   0.2857143   0.2857143   0.1428571), wk =   0.0087464
        k(   91) = (   0.2857143   0.2857143   0.2857143), wk =   0.0087464
        k(   92) = (   0.2857143   0.2857143   0.4285714), wk =   0.0087464
        k(   93) = (   0.2857143   0.3571429   0.0000000), wk =   0.0043732
        k(   94) = (   0.2857143   0.3571429   0.1428571), wk =   0.0087464
        k(   95) = (   0.2857143   0.3571429   0.2857143), wk =   0.0087464
        k(   96) = (   0.2857143   0.3571429   0.4285714), wk =   0.0087464

     Dense  grid:    16771 G-vectors     FFT dimensions: (  27,  27,  50)

     Dynamical RAM for                 wfc:       0.04 MB

     Dynamical RAM for     wfc (w. buffer):       3.55 MB

     Dynamical RAM for           str. fact:       0.02 MB

     Dynamical RAM for           local pot:       0.00 MB

     Dynamical RAM for          nlocal pot:       0.08 MB

     Dynamical RAM for                qrad:       1.34 MB

     Dynamical RAM for          rho,v,vnew:       0.24 MB

     Dynamical RAM for               rhoin:       0.08 MB

     Dynamical RAM for            rho*nmix:       0.58 MB

     Dynamical RAM for           G-vectors:       0.08 MB

     Dynamical RAM for          h,s,v(r/c):       0.05 MB

     Dynamical RAM for          <psi|beta>:       0.01 MB

     Dynamical RAM for                 psi:       0.07 MB

     Dynamical RAM for                hpsi:       0.07 MB

     Dynamical RAM for                spsi:       0.07 MB

     Dynamical RAM for      wfcinit/wfcrot:       0.08 MB

     Dynamical RAM for           addusdens:       1.74 MB

     Estimated static dynamical RAM per process >       5.57 MB

     Estimated max dynamical RAM per process >       7.89 MB

     Estimated total dynamical RAM >     212.87 MB

     Check: negative core charge=   -0.000004
     Generating pointlists ...
     new r_m :   0.4125 (alat units)  2.1450 (a.u.) for type    1

     The initial density is read from file :
     ./out/Zn.save/charge-density


     starting charge      23.7556, renormalised to      24.0000

     negative rho (up, down):  3.663E+00 3.663E+00
     Starting wfcs from file
     Checking if some PAW data can be deallocated... 

     total cpu time spent up to now is        0.5 secs

     Self-consistent Calculation

     iteration #  1     ecut=    70.00 Ry     beta= 0.70
     Davidson diagonalization with overlap

---- Real-time Memory Report at c_bands before calling an iterative solver
            56 MiB given to the printing process from OS
             0 MiB allocation reported by mallinfo(arena+hblkhd)
        152730 MiB available memory on the node where the printing process lives
------------------
     c_bands:  2 eigenvalues not converged
     c_bands:  1 eigenvalues not converged
     c_bands:  1 eigenvalues not converged
     c_bands:  1 eigenvalues not converged
     c_bands:  1 eigenvalues not converged
     c_bands:  1 eigenvalues not converged
     c_bands:  1 eigenvalues not converged
     c_bands:  1 eigenvalues not converged
     c_bands:  1 eigenvalues not converged
     c_bands:  1 eigenvalues not converged
     c_bands:  2 eigenvalues not converged
     c_bands:  1 eigenvalues not converged
     c_bands:  1 eigenvalues not converged
     c_bands:  1 eigenvalues not converged
     c_bands:  1 eigenvalues not converged
     c_bands:  1 eigenvalues not converged
     c_bands:  1 eigenvalues not converged
     ethr =  1.00E-05,  avg # of iterations = 16.7

     negative rho (up, down):  4.511E-01 4.511E-01

     total cpu time spent up to now is        4.3 secs

     total energy              =    -487.45441736 Ry
     estimated scf accuracy    <       3.86019580 Ry

     total magnetization       =    -0.00 Bohr mag/cell
     absolute magnetization    =     0.00 Bohr mag/cell

     iteration #  2     ecut=    70.00 Ry     beta= 0.70
     Davidson diagonalization with overlap

---- Real-time Memory Report at c_bands before calling an iterative solver
            80 MiB given to the printing process from OS
             0 MiB allocation reported by mallinfo(arena+hblkhd)
        152411 MiB available memory on the node where the printing process lives
------------------
     ethr =  1.00E-02,  avg # of iterations =  1.0

     total cpu time spent up to now is        5.2 secs

     total energy              =    -487.39865648 Ry
     estimated scf accuracy    <       0.31311800 Ry

     total magnetization       =     0.00 Bohr mag/cell
     absolute magnetization    =     0.00 Bohr mag/cell

     iteration #  3     ecut=    70.00 Ry     beta= 0.70
     Davidson diagonalization with overlap

---- Real-time Memory Report at c_bands before calling an iterative solver
            83 MiB given to the printing process from OS
             0 MiB allocation reported by mallinfo(arena+hblkhd)
        152392 MiB available memory on the node where the printing process lives
------------------
     ethr =  1.30E-03,  avg # of iterations =  2.5
     Minimization algorithm failed to find Fermi energy: reverting to bisection
     Possible cause: smearing is larger than the electronic band-gap.

     total cpu time spent up to now is        6.0 secs

     total energy              =    -487.42338344 Ry
     estimated scf accuracy    <       0.06227446 Ry

     total magnetization       =     0.00 Bohr mag/cell
     absolute magnetization    =     0.00 Bohr mag/cell

     iteration #  4     ecut=    70.00 Ry     beta= 0.70
     Davidson diagonalization with overlap

---- Real-time Memory Report at c_bands before calling an iterative solver
            83 MiB given to the printing process from OS
             0 MiB allocation reported by mallinfo(arena+hblkhd)
        152378 MiB available memory on the node where the printing process lives
------------------
     ethr =  2.59E-04,  avg # of iterations =  2.4
     Minimization algorithm failed to find Fermi energy: reverting to bisection
     Possible cause: smearing is larger than the electronic band-gap.

     total cpu time spent up to now is        7.0 secs

     total energy              =    -487.44362313 Ry
     estimated scf accuracy    <       0.00391310 Ry

     total magnetization       =     0.00 Bohr mag/cell
     absolute magnetization    =     0.00 Bohr mag/cell

     iteration #  5     ecut=    70.00 Ry     beta= 0.70
     Davidson diagonalization with overlap

---- Real-time Memory Report at c_bands before calling an iterative solver
            83 MiB given to the printing process from OS
             0 MiB allocation reported by mallinfo(arena+hblkhd)
        152371 MiB available memory on the node where the printing process lives
------------------
     ethr =  1.63E-05,  avg # of iterations =  5.9
     Minimization algorithm failed to find Fermi energy: reverting to bisection
     Possible cause: smearing is larger than the electronic band-gap.

     total cpu time spent up to now is        8.3 secs

     total energy              =    -487.44537932 Ry
     estimated scf accuracy    <       0.00020013 Ry

     total magnetization       =     0.00 Bohr mag/cell
     absolute magnetization    =     0.00 Bohr mag/cell

     iteration #  6     ecut=    70.00 Ry     beta= 0.70
     Davidson diagonalization with overlap

---- Real-time Memory Report at c_bands before calling an iterative solver
            84 MiB given to the printing process from OS
             0 MiB allocation reported by mallinfo(arena+hblkhd)
        152364 MiB available memory on the node where the printing process lives
------------------
     ethr =  8.34E-07,  avg # of iterations =  3.4
     Minimization algorithm failed to find Fermi energy: reverting to bisection
     Possible cause: smearing is larger than the electronic band-gap.
 
     Magnetic moment per site  (integrated on atomic sphere of radius R)
     atom   1 (R=0.413)  charge= 10.8065  magn=  0.0000
     atom   2 (R=0.413)  charge= 10.8065  magn=  0.0000

     total cpu time spent up to now is        9.2 secs

     End of self-consistent calculation

 ------ SPIN UP ------------


          k = 0.0000 0.0000 0.0000 (  2053 PWs)   bands (ev):

     0.4382   2.2636   2.9095   3.0548   3.0548   3.1158   3.1158   3.3339
     3.3339   3.5915   3.5915   7.3640   8.1805  25.7701  26.2647  26.2647

     occupation numbers 
     1.0000   1.0000   1.0000   1.0000   1.0000   1.0000   1.0000   1.0000
     1.0000   1.0000   1.0000   1.0000   1.0000   0.0000   0.0000   0.0000

          k = 0.0000 0.0000 0.0816 (  2064 PWs)   bands (ev):

     0.5717   2.2603   2.9064   3.0494   3.0494   3.1073   3.1073   3.3550
     3.3551   3.5843   3.5843   5.9292   9.8918  23.6105  26.3949  26.3952

     occupation numbers 
     1.0000   1.0000   1.0000   1.0000   1.0000   1.0000   1.0000   1.0000
     1.0000   1.0000   1.0000   1.0000   1.0000   0.0000   0.0000   0.0000

          k = 0.0000 0.0000 0.1633 (  2076 PWs)   bands (ev):

     0.9594   2.2260   2.9119   3.0424   3.0424   3.0861   3.0861   3.4064
     3.4064   3.5614   3.5614   4.4670  12.2039  20.5395  26.7711  26.7712

     occupation numbers 
     1.0000   1.0000   1.0000   1.0000   1.0000   1.0000   1.0000   1.0000
     1.0000   1.0000   1.0000   1.0000   0.0000   0.0000   0.0000   0.0000

          k = 0.0000 0.0000 0.2449 (  2094 PWs)   bands (ev):

     1.5338   2.0406   2.9996   3.0457   3.0457   3.0622   3.0622   3.4314
     3.4670   3.4670   3.5215   3.5215  14.7692  17.5589  27.3314  27.3324

     occupation numbers 
     1.0000   1.0000   1.0000   1.0000   1.0000   1.0000   1.0000   1.0000
     1.0000   1.0000   1.0000   1.0000   0.0000   0.0000   0.0000   0.0000

          k = 0.0000 0.0825 0.0000 (  2052 PWs)   bands (ev):

     0.5787   2.3156   2.9146   3.0500   3.0853   3.1039   3.1442   3.3079
     3.3202   3.5233   3.5949   7.5812   8.2613  24.0923  25.1443  25.8999

     occupation numbers 
     1.0000   1.0000   1.0000   1.0000   1.0000   1.0000   1.0000   1.0000
     1.0000   1.0000   1.0000   1.0000   1.0000   0.0000   0.0000   0.0000

          k = 0.0000 0.0825 0.0816 (  2077 PWs)   bands (ev):

     0.7113   2.3157   2.9125   3.0393   3.0789   3.0933   3.1354   3.3351
     3.3434   3.5103   3.5869   6.0996  10.0225  23.6983  24.2639  25.2821

     occupation numbers 
     1.0000   1.0000   1.0000   1.0000   1.0000   1.0000   1.0000   1.0000
     1.0000   1.0000   1.0000   1.0000   1.0000   0.0000   0.0000   0.0000

          k = 0.0000 0.0825 0.1633 (  2089 PWs)   bands (ev):

     1.0955   2.2936   2.9144   3.0258   3.0672   3.0705   3.1138   3.3977
     3.3982   3.4625   3.5619   4.6537  12.3364  20.6607  24.6335  25.6903

     occupation numbers 
     1.0000   1.0000   1.0000   1.0000   1.0000   1.0000   1.0000   1.0000
     1.0000   1.0000   1.0000   1.0000   0.0000   0.0000   0.0000   0.0000

          k = 0.0000 0.0825 0.2449 (  2102 PWs)   bands (ev):

     1.6598   2.1374   2.9680   3.0335   3.0420   3.0733   3.0897   3.2683
     3.4620   3.5022   3.5194   3.7403  14.8998  17.6862  25.2808  26.1644

     occupation numbers 
     1.0000   1.0000   1.0000   1.0000   1.0000   1.0000   1.0000   1.0000
     1.0000   1.0000   1.0000   1.0000   0.0000   0.0000   0.0000   0.0000

          k = 0.0000 0.1650 0.0000 (  2092 PWs)   bands (ev):

     0.9909   2.4462   2.9106   3.0423   3.1061   3.1722   3.2095   3.2245
     3.2843   3.3893   3.6020   8.1842   8.5183  20.9521  23.6153  25.8565

     occupation numbers 
     1.0000   1.0000   1.0000   1.0000   1.0000   1.0000   1.0000   1.0000
     1.0000   1.0000   1.0000   1.0000   1.0000   0.0000   0.0000   0.0000

          k = 0.0000 0.1650 0.0816 (  2094 PWs)   bands (ev):

     1.1192   2.4543   2.9145   3.0206   3.0741   3.1599   3.2141   3.2482
     3.3164   3.3867   3.5921   6.5615  10.4196  21.0793  23.7620  24.0713

     occupation numbers 
     1.0000   1.0000   1.0000   1.0000   1.0000   1.0000   1.0000   1.0000
     1.0000   1.0000   1.0000   1.0000   1.0000   0.0000   0.0000   0.0000

          k = 0.0000 0.1650 0.1633 (  2093 PWs)   bands (ev):

     1.4872   2.4627   2.9185   2.9836   3.0255   3.1466   3.1916   3.2517
     3.3806   3.4334   3.5626   5.1045  12.7335  20.9235  21.6155  24.2631

     occupation numbers 
     1.0000   1.0000   1.0000   1.0000   1.0000   1.0000   1.0000   1.0000
     1.0000   1.0000   1.0000   1.0000   0.0000   0.0000   0.0000   0.0000

          k = 0.0000 0.1650 0.2449 (  2107 PWs)   bands (ev):

     2.0061   2.3838   2.9089   2.9486   3.0272   3.1403   3.1490   3.1666
     3.4508   3.5141   3.6096   4.0830  15.2881  18.0578  22.1879  23.1026

     occupation numbers 
     1.0000   1.0000   1.0000   1.0000   1.0000   1.0000   1.0000   1.0000
     1.0000   1.0000   1.0000   1.0000   0.0000   0.0000   0.0000   0.0000

          k = 0.0000 0.2474 0.0000 (  2098 PWs)   bands (ev):

     1.6251   2.5629   2.9263   3.0188   3.0296   3.2219   3.2366   3.2892
     3.3007   3.3430   3.6081   8.9911   9.0878  17.9131  22.2530  23.9475

     occupation numbers 
     1.0000   1.0000   1.0000   1.0000   1.0000   1.0000   1.0000   1.0000
     1.0000   1.0000   1.0000   1.0000   1.0000   0.0000   0.0000   0.0000

          k = 0.0000 0.2474 0.0816 (  2102 PWs)   bands (ev):

     1.7358   2.5774   2.9279   2.9842   3.0289   3.2144   3.2302   3.3188
     3.3350   3.3419   3.5966   7.2556  11.0908  18.0460  22.4061  22.6739

     occupation numbers 
     1.0000   1.0000   1.0000   1.0000   1.0000   1.0000   1.0000   1.0000
     1.0000   1.0000   1.0000   1.0000   0.0000   0.0000   0.0000   0.0000

          k = 0.0000 0.2474 0.1633 (  2100 PWs)   bands (ev):

     2.0349   2.6108   2.9071   2.9155   3.0384   3.1915   3.2301   3.3044
     3.3870   3.4865   3.5634   5.7637  13.3902  18.4323  21.2794  21.6564

     occupation numbers 
     1.0000   1.0000   1.0000   1.0000   1.0000   1.0000   1.0000   1.0000
     1.0000   1.0000   1.0000   1.0000   0.0000   0.0000   0.0000   0.0000

          k = 0.0000 0.2474 0.2449 (  2103 PWs)   bands (ev):

     2.3915   2.5993   2.8423   2.8665   3.0861   3.1468   3.2461   3.2740
     3.4504   3.5124   3.8522   4.6058  15.9143  18.4822  19.3724  20.1230

     occupation numbers 
     1.0000   1.0000   1.0000   1.0000   1.0000   1.0000   1.0000   1.0000
     1.0000   1.0000   1.0000   1.0000   0.0000   0.0000   0.0000   0.0000

          k = 0.0000 0.3299 0.0000 (  2104 PWs)   bands (ev):

     2.2449   2.5616   2.8457   3.0259   3.1000   3.1875   3.2115   3.4474
     3.4789   3.5699   3.6113   9.7267  10.2307  15.0795  21.1343  21.1580

     occupation numbers 
     1.0000   1.0000   1.0000   1.0000   1.0000   1.0000   1.0000   1.0000
     1.0000   1.0000   1.0000   1.0000   1.0000   0.0000   0.0000   0.0000

          k = 0.0000 0.3299 0.0816 (  2101 PWs)   bands (ev):

     2.2853   2.5760   2.8559   2.9772   3.0608   3.2021   3.3476   3.4522
     3.4681   3.5944   3.6007   8.1779  12.0297  15.2141  19.8997  21.2925

     occupation numbers 
     1.0000   1.0000   1.0000   1.0000   1.0000   1.0000   1.0000   1.0000
     1.0000   1.0000   1.0000   1.0000   0.0000   0.0000   0.0000   0.0000

          k = 0.0000 0.3299 0.1633 (  2113 PWs)   bands (ev):

     2.3817   2.6069   2.8334   2.8618   3.1501   3.2433   3.4146   3.4261
     3.4760   3.5735   3.8609   6.6675  14.2779  15.6131  18.5250  21.7607

     occupation numbers 
     1.0000   1.0000   1.0000   1.0000   1.0000   1.0000   1.0000   1.0000
     1.0000   1.0000   1.0000   1.0000   0.0000   0.0000   0.0000   0.0000

          k = 0.0000 0.3299 0.2449 (  2115 PWs)   bands (ev):

     2.4951   2.5928   2.7800   2.8127   3.2641   3.3030   3.3592   3.3689
     3.5045   3.5389   4.4884   5.4309  16.2444  16.4923  17.6379  19.6358

     occupation numbers 
     1.0000   1.0000   1.0000   1.0000   1.0000   1.0000   1.0000   1.0000
     1.0000   1.0000   1.0000   1.0000   0.0000   0.0000   0.0000   0.0000

          k = 0.0000 0.4124 0.0000 (  2120 PWs)   bands (ev):

     2.4427   2.5173   2.7033   3.1060   3.1455   3.1482   3.2982   3.5817
     3.6071   3.6119   4.5396  10.7051  11.5714  12.5438  18.5725  19.5755

     occupation numbers 
     1.0000   1.0000   1.0000   1.0000   1.0000   1.0000   1.0000   1.0000
     1.0000   1.0000   1.0000   0.0000   0.0000   0.0000   0.0000   0.0000

          k = 0.0000 0.4124 0.0816 (  2114 PWs)   bands (ev):

     2.4286   2.5134   2.7453   2.9847   3.1586   3.1654   3.4314   3.5661
     3.5850   3.6271   4.6348   9.3297  12.6169  13.2187  17.3927  20.4618

     occupation numbers 
     1.0000   1.0000   1.0000   1.0000   1.0000   1.0000   1.0000   1.0000
     1.0000   1.0000   1.0000   1.0000   0.0000   0.0000   0.0000   0.0000

          k = 0.0000 0.4124 0.1633 (  2111 PWs)   bands (ev):

     2.4186   2.5305   2.7703   2.8167   3.2219   3.2711   3.4944   3.5357
     3.5937   3.6274   4.9775   7.8379  13.0361  15.0028  16.4172  20.9404

     occupation numbers 
     1.0000   1.0000   1.0000   1.0000   1.0000   1.0000   1.0000   1.0000
     1.0000   1.0000   1.0000   1.0000   0.0000   0.0000   0.0000   0.0000

          k = 0.0000 0.4124 0.2449 (  2111 PWs)   bands (ev):

     2.4543   2.5167   2.7305   2.7506   3.3057   3.4023   3.4146   3.5198
     3.6059   3.6186   5.6334   6.5956  13.6879  14.5515  18.1351  20.5974

     occupation numbers 
     1.0000   1.0000   1.0000   1.0000   1.0000   1.0000   1.0000   1.0000
     1.0000   1.0000   1.0000   1.0000   0.0000   0.0000   0.0000   0.0000

          k = 0.0000 0.4949 0.0000 (  2114 PWs)   bands (ev):

     2.4208   2.5029   2.6158   3.1057   3.1175   3.1662   3.4191   3.6114
     3.6744   3.7009   6.0273   9.9422  12.3082  13.0360  16.2695  17.4730

     occupation numbers 
     1.0000   1.0000   1.0000   1.0000   1.0000   1.0000   1.0000   1.0000
     1.0000   1.0000   1.0000   1.0000   0.0000   0.0000   0.0000   0.0000

          k = 0.0000 0.4949 0.0816 (  2115 PWs)   bands (ev):

     2.4219   2.4536   2.6805   2.9761   3.1397   3.2120   3.5158   3.5819
     3.6772   3.7019   6.1389   9.8740  11.1947  14.0862  15.6573  18.7878

     occupation numbers 
     1.0000   1.0000   1.0000   1.0000   1.0000   1.0000   1.0000   1.0000
     1.0000   1.0000   1.0000   1.0000   0.0000   0.0000   0.0000   0.0000

          k = 0.0000 0.4949 0.1633 (  2112 PWs)   bands (ev):

     2.3905   2.4662   2.7204   2.7945   3.2030   3.3374   3.5066   3.6130
     3.6828   3.7010   6.4925   9.0997  10.9104  13.3601  17.1739  20.4325

     occupation numbers 
     1.0000   1.0000   1.0000   1.0000   1.0000   1.0000   1.0000   1.0000
     1.0000   1.0000   1.0000   1.0000   0.0000   0.0000   0.0000   0.0000

          k = 0.0000 0.4949 0.2449 (  2105 PWs)   bands (ev):

     2.4079   2.4589   2.6960   2.7050   3.2967   3.4047   3.4952   3.6046
     3.6896   3.6963   7.1168   8.0104  11.4340  12.2865  19.4216  21.2156

     occupation numbers 
     1.0000   1.0000   1.0000   1.0000   1.0000   1.0000   1.0000   1.0000
     1.0000   1.0000   1.0000   1.0000   0.0000   0.0000   0.0000   0.0000

          k = 0.0000-0.5774 0.0000 (  2122 PWs)   bands (ev):

     2.4034   2.4957   2.5865   3.0908   3.1076   3.1879   3.4586   3.6111
     3.7073   3.7355   7.6242   8.1080  13.4846  14.0401  14.7337  16.2561

     occupation numbers 
     1.0000   1.0000   1.0000   1.0000   1.0000   1.0000   1.0000   1.0000
     1.0000   1.0000   1.0000   1.0000   0.0000   0.0000   0.0000   0.0000

          k = 0.0000-0.5774 0.0816 (  2124 PWs)   bands (ev):

     2.4161   2.4261   2.6590   2.9702   3.1306   3.2301   3.5476   3.5829
     3.7100   3.7344   7.7484   8.1833  12.6824  12.7024  16.3682  17.2592

     occupation numbers 
     1.0000   1.0000   1.0000   1.0000   1.0000   1.0000   1.0000   1.0000
     1.0000   1.0000   1.0000   1.0000   0.0000   0.0000   0.0000   0.0000

          k = 0.0000-0.5774 0.1633 (  2122 PWs)   bands (ev):

     2.3765   2.4425   2.7024   2.7867   3.1959   3.3578   3.5077   3.6409
     3.7152   3.7312   8.1036   8.4025  11.3620  11.4874  18.5074  19.1192

     occupation numbers 
     1.0000   1.0000   1.0000   1.0000   1.0000   1.0000   1.0000   1.0000
     1.0000   1.0000   1.0000   1.0000   0.0000   0.0000   0.0000   0.0000

          k = 0.0000-0.5774 0.2449 (  2092 PWs)   bands (ev):

     2.3900   2.4380   2.6842   2.6883   3.2926   3.4037   3.5198   3.6320
     3.7209   3.7264   8.5659   8.6729  10.5057  10.5620  20.6048  20.9212

     occupation numbers 
     1.0000   1.0000   1.0000   1.0000   1.0000   1.0000   1.0000   1.0000
     1.0000   1.0000   1.0000   1.0000   1.0000   1.0000   0.0000   0.0000

          k = 0.0714 0.1237 0.0000 (  2073 PWs)   bands (ev):

     0.8556   2.4086   2.9118   3.0528   3.0799   3.1480   3.2058   3.2674
     3.2684   3.4312   3.5977   7.9899   8.4304  22.4344  22.7404  26.1059

     occupation numbers 
     1.0000   1.0000   1.0000   1.0000   1.0000   1.0000   1.0000   1.0000
     1.0000   1.0000   1.0000   1.0000   1.0000   0.0000   0.0000   0.0000

          k = 0.0714 0.1237 0.0816 (  2083 PWs)   bands (ev):

     0.9856   2.4144   2.9144   3.0280   3.0649   3.1378   3.1951   3.2893
     3.3099   3.4202   3.5891   6.4137  10.2866  22.5714  22.8330  24.0323

     occupation numbers 
     1.0000   1.0000   1.0000   1.0000   1.0000   1.0000   1.0000   1.0000
     1.0000   1.0000   1.0000   1.0000   1.0000   0.0000   0.0000   0.0000

          k = 0.0714 0.1237 0.1633 (  2091 PWs)   bands (ev):

     1.3604   2.4141   2.9180   2.9948   3.0269   3.1259   3.1729   3.2925
     3.4053   3.4126   3.5633   4.9640  12.6014  20.8872  22.9796  23.3304

     occupation numbers 
     1.0000   1.0000   1.0000   1.0000   1.0000   1.0000   1.0000   1.0000
     1.0000   1.0000   1.0000   1.0000   0.0000   0.0000   0.0000   0.0000

          k = 0.0714 0.1237 0.2449 (  2092 PWs)   bands (ev):

     1.8981   2.3117   2.9247   2.9752   3.0188   3.1193   3.1497   3.1705
     3.4585   3.5085   3.5763   3.9793  15.1595  17.9366  23.6516  23.9688

     occupation numbers 
     1.0000   1.0000   1.0000   1.0000   1.0000   1.0000   1.0000   1.0000
     1.0000   1.0000   1.0000   1.0000   0.0000   0.0000   0.0000   0.0000

          k = 0.0714 0.2062 0.0000 (  2096 PWs)   bands (ev):

     1.3853   2.5467   2.8894   3.0349   3.1135   3.1138   3.2151   3.2644
     3.3307   3.3493   3.6002   8.7384   8.7969  19.4837  21.2457  25.4713

     occupation numbers 
     1.0000   1.0000   1.0000   1.0000   1.0000   1.0000   1.0000   1.0000
     1.0000   1.0000   1.0000   1.0000   1.0000   0.0000   0.0000   0.0000

          k = 0.0714 0.2062 0.0816 (  2097 PWs)   bands (ev):

     1.5060   2.5605   2.8972   3.0049   3.0477   3.1529   3.2365   3.2771
     3.3232   3.3711   3.5919   6.9857  10.8223  19.6161  21.3768  24.2018

     occupation numbers 
     1.0000   1.0000   1.0000   1.0000   1.0000   1.0000   1.0000   1.0000
     1.0000   1.0000   1.0000   1.0000   0.0000   0.0000   0.0000   0.0000

          k = 0.0714 0.2062 0.1633 (  2095 PWs)   bands (ev):

     1.8445   2.5911   2.9173   2.9370   2.9804   3.1509   3.2126   3.2911
     3.3967   3.4388   3.5726   5.5072  13.1296  19.9817  21.3265  21.9469

     occupation numbers 
     1.0000   1.0000   1.0000   1.0000   1.0000   1.0000   1.0000   1.0000
     1.0000   1.0000   1.0000   1.0000   0.0000   0.0000   0.0000   0.0000

          k = 0.0714 0.2062 0.2449 (  2098 PWs)   bands (ev):

     2.2896   2.5691   2.8690   2.8819   2.9944   3.0763   3.2292   3.2593
     3.4590   3.5067   3.7484   4.3969  15.6706  18.4061  20.7540  21.6604

     occupation numbers 
     1.0000   1.0000   1.0000   1.0000   1.0000   1.0000   1.0000   1.0000
     1.0000   1.0000   1.0000   1.0000   0.0000   0.0000   0.0000   0.0000

          k = 0.0714 0.2887 0.0000 (  2097 PWs)   bands (ev):

     2.0555   2.6110   2.9272   2.9372   3.0241   3.1609   3.2475   3.2803
     3.4090   3.5462   3.6015   9.4073   9.7560  16.5542  20.0974  22.6263

     occupation numbers 
     1.0000   1.0000   1.0000   1.0000   1.0000   1.0000   1.0000   1.0000
     1.0000   1.0000   1.0000   1.0000   1.0000   0.0000   0.0000   0.0000

          k = 0.0714 0.2887 0.0816 (  2097 PWs)   bands (ev):

     2.1354   2.6275   2.9047   2.9586   2.9822   3.2120   3.2407   3.3044
     3.4304   3.5187   3.6185   7.7901  11.6319  16.6889  20.2359  21.3493

     occupation numbers 
     1.0000   1.0000   1.0000   1.0000   1.0000   1.0000   1.0000   1.0000
     1.0000   1.0000   1.0000   1.0000   0.0000   0.0000   0.0000   0.0000

          k = 0.0714 0.2887 0.1633 (  2104 PWs)   bands (ev):

     2.3295   2.6696   2.8407   2.9133   3.0266   3.1961   3.2512   3.4288
     3.4383   3.5185   3.7168   6.2861  13.9099  17.0861  19.9523  20.6320

     occupation numbers 
     1.0000   1.0000   1.0000   1.0000   1.0000   1.0000   1.0000   1.0000
     1.0000   1.0000   1.0000   1.0000   0.0000   0.0000   0.0000   0.0000

          k = 0.0714 0.2887 0.2449 (  2111 PWs)   bands (ev):

     2.5300   2.6663   2.7994   2.8555   3.0923   3.1499   3.2922   3.3608
     3.5015   3.5327   4.1993   5.0768  16.3799  17.6760  18.8185  19.3026

     occupation numbers 
     1.0000   1.0000   1.0000   1.0000   1.0000   1.0000   1.0000   1.0000
     1.0000   1.0000   1.0000   1.0000   0.0000   0.0000   0.0000   0.0000

          k = 0.0714 0.3712 0.0000 (  2111 PWs)   bands (ev):

     2.4595   2.5692   2.7684   3.0691   3.1161   3.1492   3.2123   3.4470
     3.5485   3.6011   4.1309  10.2954  10.9954  13.8503  19.1971  19.9390

     occupation numbers 
     1.0000   1.0000   1.0000   1.0000   1.0000   1.0000   1.0000   1.0000
     1.0000   1.0000   1.0000   1.0000   0.0000   0.0000   0.0000   0.0000

          k = 0.0714 0.3712 0.0816 (  2112 PWs)   bands (ev):

     2.4537   2.5810   2.8020   2.9607   3.0906   3.1955   3.3468   3.4388
     3.5541   3.5811   4.2042   8.8361  12.6922  13.9853  18.6919  19.3536

     occupation numbers 
     1.0000   1.0000   1.0000   1.0000   1.0000   1.0000   1.0000   1.0000
     1.0000   1.0000   1.0000   1.0000   0.0000   0.0000   0.0000   0.0000

          k = 0.0714 0.3712 0.1633 (  2109 PWs)   bands (ev):

     2.4656   2.6097   2.8002   2.8435   3.1571   3.2424   3.4039   3.4891
     3.5116   3.5946   4.5036   7.3323  14.3831  14.8614  17.3787  19.7730

     occupation numbers 
     1.0000   1.0000   1.0000   1.0000   1.0000   1.0000   1.0000   1.0000
     1.0000   1.0000   1.0000   1.0000   0.0000   0.0000   0.0000   0.0000

          k = 0.0714 0.3712 0.2449 (  2112 PWs)   bands (ev):

     2.5177   2.5927   2.7578   2.7994   3.2683   3.2983   3.3618   3.3952
     3.5773   3.6056   5.1359   6.0900  15.0349  15.8275  17.7003  20.0368

     occupation numbers 
     1.0000   1.0000   1.0000   1.0000   1.0000   1.0000   1.0000   1.0000
     1.0000   1.0000   1.0000   1.0000   0.0000   0.0000   0.0000   0.0000

          k = 0.0714 0.4536 0.0000 (  2119 PWs)   bands (ev):

     2.4770   2.5485   2.6580   3.0892   3.1433   3.1519   3.3221   3.5978
     3.5997   3.6523   5.3704  10.9729  11.9124  12.4113  17.4720  18.5614

     occupation numbers 
     1.0000   1.0000   1.0000   1.0000   1.0000   1.0000   1.0000   1.0000
     1.0000   1.0000   1.0000   0.0000   0.0000   0.0000   0.0000   0.0000

          k = 0.0714 0.4536 0.0816 (  2115 PWs)   bands (ev):

     2.4691   2.5134   2.7243   2.9693   3.1279   3.2039   3.4372   3.5638
     3.6014   3.6587   5.4788  10.0389  11.6184  13.9066  16.4020  18.7346

     occupation numbers 
     1.0000   1.0000   1.0000   1.0000   1.0000   1.0000   1.0000   1.0000
     1.0000   1.0000   1.0000   1.0000   0.0000   0.0000   0.0000   0.0000

          k = 0.0714 0.4536 0.1633 (  2114 PWs)   bands (ev):

     2.4404   2.5317   2.7646   2.8026   3.1724   3.3147   3.4880   3.5468
     3.5942   3.6720   5.8323   8.6216  11.9661  14.4773  16.6291  19.1715

     occupation numbers 
     1.0000   1.0000   1.0000   1.0000   1.0000   1.0000   1.0000   1.0000
     1.0000   1.0000   1.0000   1.0000   0.0000   0.0000   0.0000   0.0000

          k = 0.0714 0.4536 0.2449 (  2109 PWs)   bands (ev):

     2.4628   2.5211   2.7195   2.7446   3.2702   3.3829   3.4373   3.5235
     3.6361   3.6689   6.4739   7.4111  12.6047  13.4867  18.8187  19.8514

     occupation numbers 
     1.0000   1.0000   1.0000   1.0000   1.0000   1.0000   1.0000   1.0000
     1.0000   1.0000   1.0000   1.0000   0.0000   0.0000   0.0000   0.0000

          k = 0.0714 0.5361 0.0000 (  2114 PWs)   bands (ev):

     2.4425   2.5370   2.6023   3.0854   3.1079   3.1851   3.4094   3.5985
     3.6787   3.7020   7.0148   9.0151  13.1249  13.8254  15.3773  16.7212

     occupation numbers 
     1.0000   1.0000   1.0000   1.0000   1.0000   1.0000   1.0000   1.0000
     1.0000   1.0000   1.0000   1.0000   0.0000   0.0000   0.0000   0.0000

          k = 0.0714 0.5361 0.0816 (  2117 PWs)   bands (ev):

     2.4516   2.4656   2.6852   2.9705   3.1060   3.2386   3.5024   3.5691
     3.6780   3.7023   7.1295   9.0897  11.9499  13.6608  16.0167  17.9225

     occupation numbers 
     1.0000   1.0000   1.0000   1.0000   1.0000   1.0000   1.0000   1.0000
     1.0000   1.0000   1.0000   1.0000   0.0000   0.0000   0.0000   0.0000

          k = 0.0714 0.5361 0.1633 (  2110 PWs)   bands (ev):

     2.4120   2.4859   2.7324   2.7924   3.1576   3.3658   3.4899   3.6083
     3.6687   3.7014   7.4778   9.1966  10.8074  12.4546  18.0037  18.8658

     occupation numbers 
     1.0000   1.0000   1.0000   1.0000   1.0000   1.0000   1.0000   1.0000
     1.0000   1.0000   1.0000   1.0000   0.0000   0.0000   0.0000   0.0000

          k = 0.0714 0.5361 0.2449 (  2107 PWs)   bands (ev):

     2.4280   2.4808   2.6982   2.7136   3.2598   3.3793   3.5139   3.6183
     3.6676   3.6900   8.0572   8.7870  10.6699  11.3818  19.5517  20.0942

     occupation numbers 
     1.0000   1.0000   1.0000   1.0000   1.0000   1.0000   1.0000   1.0000
     1.0000   1.0000   1.0000   1.0000   0.1250   0.0000   0.0000   0.0000

          k = 0.1429 0.2474 0.0000 (  2101 PWs)   bands (ev):

     1.9792   2.6687   2.8380   2.9709   3.0316   3.1342   3.1438   3.3155
     3.4047   3.5592   3.5912   9.3054   9.5947  18.0630  18.4712  24.4158

     occupation numbers 
     1.0000   1.0000   1.0000   1.0000   1.0000   1.0000   1.0000   1.0000
     1.0000   1.0000   1.0000   1.0000   1.0000   0.0000   0.0000   0.0000

          k = 0.1429 0.2474 0.0816 (  2099 PWs)   bands (ev):

     2.0734   2.6864   2.8462   2.9370   3.0521   3.0555   3.2599   3.2815
     3.4371   3.5116   3.6273   7.6622  11.4998  18.2026  18.6008  22.8371

     occupation numbers 
     1.0000   1.0000   1.0000   1.0000   1.0000   1.0000   1.0000   1.0000
     1.0000   1.0000   1.0000   1.0000   0.0000   0.0000   0.0000   0.0000

          k = 0.1429 0.2474 0.1633 (  2098 PWs)   bands (ev):

     2.3140   2.7361   2.8668   2.8747   2.9780   3.0584   3.2513   3.4267
     3.4484   3.4840   3.7195   6.1632  13.7859  18.6189  18.9668  21.4277

     occupation numbers 
     1.0000   1.0000   1.0000   1.0000   1.0000   1.0000   1.0000   1.0000
     1.0000   1.0000   1.0000   1.0000   0.0000   0.0000   0.0000   0.0000

          k = 0.1429 0.2474 0.2449 (  2104 PWs)   bands (ev):

     2.5770   2.7576   2.8095   2.8920   2.9326   3.0056   3.2841   3.3554
     3.5193   3.5268   4.1318   4.9702  16.2893  18.8039  19.3029  19.9836

     occupation numbers 
     1.0000   1.0000   1.0000   1.0000   1.0000   1.0000   1.0000   1.0000
     1.0000   1.0000   1.0000   1.0000   0.0000   0.0000   0.0000   0.0000

          k = 0.1429 0.3299 0.0000 (  2110 PWs)   bands (ev):

     2.5230   2.6849   2.8254   2.8998   3.0566   3.0794   3.2461   3.2614
     3.5436   3.5816   4.0450  10.0874  10.7024  15.4297  17.3028  21.5303

     occupation numbers 
     1.0000   1.0000   1.0000   1.0000   1.0000   1.0000   1.0000   1.0000
     1.0000   1.0000   1.0000   1.0000   0.0000   0.0000   0.0000   0.0000

          k = 0.1429 0.3299 0.0816 (  2104 PWs)   bands (ev):

     2.5368   2.6996   2.8208   2.8959   3.0140   3.1624   3.2402   3.2957
     3.5475   3.5629   4.1057   8.5922  12.4456  15.5666  17.4400  20.2508

     occupation numbers 
     1.0000   1.0000   1.0000   1.0000   1.0000   1.0000   1.0000   1.0000
     1.0000   1.0000   1.0000   1.0000   0.0000   0.0000   0.0000   0.0000

          k = 0.1429 0.3299 0.1633 (  2110 PWs)   bands (ev):

     2.5732   2.7428   2.7686   2.9375   2.9936   3.1556   3.2349   3.4594
     3.4722   3.5948   4.3545   7.0904  14.6781  15.9728  17.8413  18.8687

     occupation numbers 
     1.0000   1.0000   1.0000   1.0000   1.0000   1.0000   1.0000   1.0000
     1.0000   1.0000   1.0000   1.0000   0.0000   0.0000   0.0000   0.0000

          k = 0.1429 0.3299 0.2449 (  2116 PWs)   bands (ev):

     2.6268   2.6920   2.8228   2.8983   3.0453   3.1062   3.2779   3.3658
     3.5813   3.6115   4.9337   5.8605  16.6177  16.9042  17.8890  18.4527

     occupation numbers 
     1.0000   1.0000   1.0000   1.0000   1.0000   1.0000   1.0000   1.0000
     1.0000   1.0000   1.0000   1.0000   0.0000   0.0000   0.0000   0.0000

          k = 0.1429 0.4124 0.0000 (  2114 PWs)   bands (ev):

     2.6111   2.6562   2.7119   3.0502   3.1012   3.1477   3.1949   3.4049
     3.5736   3.6408   5.0468  11.1342  12.0220  12.8957  16.5616  18.9614

     occupation numbers 
     1.0000   1.0000   1.0000   1.0000   1.0000   1.0000   1.0000   1.0000
     1.0000   1.0000   1.0000   0.0000   0.0000   0.0000   0.0000   0.0000

          k = 0.1429 0.4124 0.0816 (  2109 PWs)   bands (ev):

     2.5884   2.6339   2.7892   2.9273   3.0831   3.2002   3.3072   3.4005
     3.5428   3.6523   5.1501   9.7730  12.9968  13.6326  16.7008  17.7578

     occupation numbers 
     1.0000   1.0000   1.0000   1.0000   1.0000   1.0000   1.0000   1.0000
     1.0000   1.0000   1.0000   1.0000   0.0000   0.0000   0.0000   0.0000

          k = 0.1429 0.4124 0.1633 (  2115 PWs)   bands (ev):

     2.5539   2.6712   2.7722   2.8723   3.0920   3.2398   3.3619   3.4540
     3.5012   3.6723   5.4921   8.2931  13.4109  15.4491  16.7107  17.1333

     occupation numbers 
     1.0000   1.0000   1.0000   1.0000   1.0000   1.0000   1.0000   1.0000
     1.0000   1.0000   1.0000   1.0000   0.0000   0.0000   0.0000   0.0000

          k = 0.1429 0.4124 0.2449 (  2120 PWs)   bands (ev):

     2.5725   2.6374   2.7676   2.8339   3.1865   3.2700   3.3259   3.3562
     3.6159   3.6695   6.1266   7.0667  14.0716  14.9523  17.7747  18.2080

     occupation numbers 
     1.0000   1.0000   1.0000   1.0000   1.0000   1.0000   1.0000   1.0000
     1.0000   1.0000   1.0000   1.0000   0.0000   0.0000   0.0000   0.0000

          k = 0.1429 0.4949 0.0000 (  2115 PWs)   bands (ev):

     2.5539   2.6420   2.6480   3.0492   3.1301   3.1767   3.2683   3.5507
     3.5683   3.6761   6.5140  10.3879  12.6976  13.4849  16.1052  16.6612

     occupation numbers 
     1.0000   1.0000   1.0000   1.0000   1.0000   1.0000   1.0000   1.0000
     1.0000   1.0000   1.0000   1.0000   0.0000   0.0000   0.0000   0.0000

          k = 0.1429 0.4949 0.0816 (  2110 PWs)   bands (ev):

     2.5481   2.5728   2.7577   2.9514   3.0742   3.2359   3.3753   3.5349
     3.5475   3.6821   6.6314  10.3714  11.5432  14.5550  15.9717  16.2663

     occupation numbers 
     1.0000   1.0000   1.0000   1.0000   1.0000   1.0000   1.0000   1.0000
     1.0000   1.0000   1.0000   1.0000   0.0000   0.0000   0.0000   0.0000

          k = 0.1429 0.4949 0.1633 (  2111 PWs)   bands (ev):

     2.5079   2.6071   2.7932   2.8239   3.0798   3.3328   3.4434   3.4947
     3.5432   3.6902   6.9949   9.6266  11.2429  13.7771  16.6715  17.4983

     occupation numbers 
     1.0000   1.0000   1.0000   1.0000   1.0000   1.0000   1.0000   1.0000
     1.0000   1.0000   1.0000   1.0000   0.0000   0.0000   0.0000   0.0000

          k = 0.1429 0.4949 0.2449 (  2113 PWs)   bands (ev):

     2.5275   2.5942   2.7378   2.7893   3.1833   3.3166   3.4247   3.4811
     3.6158   3.6737   7.6242   8.5215  11.8024  12.6786  17.3571  18.2324

     occupation numbers 
     1.0000   1.0000   1.0000   1.0000   1.0000   1.0000   1.0000   1.0000
     1.0000   1.0000   1.0000   1.0000   0.0000   0.0000   0.0000   0.0000

          k = 0.1429 0.5774 0.0000 (  2129 PWs)   bands (ev):

     2.5329   2.6185   2.6390   3.0687   3.0872   3.1993   3.3123   3.5663
     3.6340   3.6544   8.1760   8.4704  13.9548  14.5227  15.0617  15.9630

     occupation numbers 
     1.0000   1.0000   1.0000   1.0000   1.0000   1.0000   1.0000   1.0000
     1.0000   1.0000   1.0000   1.0000   0.0000   0.0000   0.0000   0.0000

          k = 0.1429 0.5774 0.0816 (  2109 PWs)   bands (ev):

     2.5330   2.5481   2.7442   2.9697   3.0463   3.2600   3.4014   3.5343
     3.6318   3.6570   8.3076   8.5608  13.0869  13.1410  16.0970  16.7741

     occupation numbers 
     1.0000   1.0000   1.0000   1.0000   1.0000   1.0000   1.0000   1.0000
     1.0000   1.0000   1.0000   1.0000   0.0000   0.0000   0.0000   0.0000

          k = 0.1429 0.5774 0.1633 (  2110 PWs)   bands (ev):

     2.4906   2.5841   2.8027   2.8057   3.0648   3.3809   3.4378   3.5053
     3.6257   3.6574   8.6833   8.8294  11.7264  11.8942  16.5247  18.9184

     occupation numbers 
     1.0000   1.0000   1.0000   1.0000   1.0000   1.0000   1.0000   1.0000
     1.0000   1.0000   1.0000   1.0000   0.0000   0.0000   0.0000   0.0000

          k = 0.1429 0.5774 0.2449 (  2104 PWs)   bands (ev):

     2.5113   2.5774   2.7292   2.7738   3.1745   3.3128   3.4994   3.5439
     3.6198   3.6366   9.1745   9.2034  10.8111  10.9044  17.2131  18.1267

     occupation numbers 
     1.0000   1.0000   1.0000   1.0000   1.0000   1.0000   1.0000   1.0000
     1.0000   1.0000   1.0000   1.0000   0.0000   0.0000   0.0000   0.0000

          k = 0.2143 0.3712 0.0000 (  2109 PWs)   bands (ev):

     2.7124   2.7399   2.7742   2.9482   3.0278   3.1100   3.2151   3.2927
     3.5590   3.6395   4.9598  11.0609  11.8904  14.3842  14.8265  20.6487

     occupation numbers 
     1.0000   1.0000   1.0000   1.0000   1.0000   1.0000   1.0000   1.0000
     1.0000   1.0000   1.0000   0.0000   0.0000   0.0000   0.0000   0.0000

          k = 0.2143 0.3712 0.0816 (  2106 PWs)   bands (ev):

     2.7019   2.7210   2.8362   2.8368   3.0932   3.1439   3.2073   3.3326
     3.5274   3.6523   5.0603   9.6678  13.5146  14.5231  14.9632  19.2032

     occupation numbers 
     1.0000   1.0000   1.0000   1.0000   1.0000   1.0000   1.0000   1.0000
     1.0000   1.0000   1.0000   1.0000   0.0000   0.0000   0.0000   0.0000

          k = 0.2143 0.3712 0.1633 (  2114 PWs)   bands (ev):

     2.6714   2.7008   2.8062   2.9265   3.0445   3.1650   3.2089   3.4347
     3.4917   3.6738   5.3947   8.1831  14.9377  15.3663  15.6300  17.7687

     occupation numbers 
     1.0000   1.0000   1.0000   1.0000   1.0000   1.0000   1.0000   1.0000
     1.0000   1.0000   1.0000   1.0000   0.0000   0.0000   0.0000   0.0000

          k = 0.2143 0.3712 0.2449 (  2121 PWs)   bands (ev):

     2.6577   2.6649   2.8650   2.9379   3.0538   3.1227   3.2482   3.3339
     3.6161   3.6719   6.0215   6.9573  15.6219  16.0059  16.5715  16.7106

     occupation numbers 
     1.0000   1.0000   1.0000   1.0000   1.0000   1.0000   1.0000   1.0000
     1.0000   1.0000   1.0000   1.0000   0.0000   0.0000   0.0000   0.0000

          k = 0.2143 0.4536 0.0000 (  2116 PWs)   bands (ev):

     2.6805   2.6998   2.7726   3.0122   3.0868   3.1520   3.1780   3.3977
     3.5414   3.6689   6.2804  11.9094  12.5690  13.2808  14.0477  18.2497

     occupation numbers 
     1.0000   1.0000   1.0000   1.0000   1.0000   1.0000   1.0000   1.0000
     1.0000   1.0000   1.0000   0.0000   0.0000   0.0000   0.0000   0.0000

          k = 0.2143 0.4536 0.0816 (  2114 PWs)   bands (ev):

     2.6505   2.7156   2.8210   2.9073   3.0796   3.1941   3.2372   3.4120
     3.5085   3.6781   6.3992  10.9628  12.3274  14.1863  14.7577  17.0803

     occupation numbers 
     1.0000   1.0000   1.0000   1.0000   1.0000   1.0000   1.0000   1.0000
     1.0000   1.0000   1.0000   0.0000   0.0000   0.0000   0.0000   0.0000

          k = 0.2143 0.4536 0.1633 (  2113 PWs)   bands (ev):

     2.6252   2.7533   2.7754   2.9365   3.0181   3.2252   3.2878   3.4176
     3.5051   3.6907   6.7677   9.5378  12.7058  14.6014  15.3340  16.8546

     occupation numbers 
     1.0000   1.0000   1.0000   1.0000   1.0000   1.0000   1.0000   1.0000
     1.0000   1.0000   1.0000   1.0000   0.0000   0.0000   0.0000   0.0000

          k = 0.2143 0.4536 0.2449 (  2117 PWs)   bands (ev):

     2.6345   2.6825   2.8293   2.9064   3.0915   3.2035   3.2886   3.3310
     3.6142   3.6771   7.4100   8.3370  13.3671  14.2769  15.2758  16.1724

     occupation numbers 
     1.0000   1.0000   1.0000   1.0000   1.0000   1.0000   1.0000   1.0000
     1.0000   1.0000   1.0000   1.0000   0.0000   0.0000   0.0000   0.0000

          k = 0.2143 0.5361 0.0000 (  2107 PWs)   bands (ev):

     2.6506   2.6722   2.7666   3.0290   3.0912   3.1561   3.2153   3.5188
     3.5319   3.6334   7.9315   9.8694  13.7212  13.9850  14.7302  16.1192

     occupation numbers 
     1.0000   1.0000   1.0000   1.0000   1.0000   1.0000   1.0000   1.0000
     1.0000   1.0000   1.0000   1.0000   0.0000   0.0000   0.0000   0.0000

          k = 0.2143 0.5361 0.0816 (  2113 PWs)   bands (ev):

     2.6214   2.6882   2.8237   2.9506   3.0239   3.2361   3.2670   3.4978
     3.5228   3.6407   8.0549   9.9774  12.7456  13.8794  14.5393  16.6820

     occupation numbers 
     1.0000   1.0000   1.0000   1.0000   1.0000   1.0000   1.0000   1.0000
     1.0000   1.0000   1.0000   1.0000   0.0000   0.0000   0.0000   0.0000

          k = 0.2143 0.5361 0.1633 (  2112 PWs)   bands (ev):

     2.6004   2.7325   2.8108   2.9284   2.9670   3.2892   3.3423   3.4209
     3.5452   3.6514   8.4262  10.2173  11.4878  13.2655  14.2999  16.9901

     occupation numbers 
     1.0000   1.0000   1.0000   1.0000   1.0000   1.0000   1.0000   1.0000
     1.0000   1.0000   1.0000   1.0000   0.0000   0.0000   0.0000   0.0000

          k = 0.2143 0.5361 0.2449 (  2106 PWs)   bands (ev):

     2.6238   2.6960   2.7995   2.8742   3.0813   3.2207   3.3737   3.3946
     3.5966   3.6406   9.0422   9.8440  11.3392  12.1424  14.9811  15.9039

     occupation numbers 
     1.0000   1.0000   1.0000   1.0000   1.0000   1.0000   1.0000   1.0000
     1.0000   1.0000   1.0000   1.0000   0.0000   0.0000   0.0000   0.0000

          k = 0.2857 0.4949 0.0000 (  2109 PWs)   bands (ev):

     2.6684   2.7795   2.8252   3.0079   3.0500   3.0958   3.2300   3.4416
     3.5168   3.6286   7.8069  11.4722  11.8858  13.8933  14.7237  17.6759

     occupation numbers 
     1.0000   1.0000   1.0000   1.0000   1.0000   1.0000   1.0000   1.0000
     1.0000   1.0000   1.0000   0.0000   0.0000   0.0000   0.0000   0.0000

          k = 0.2857 0.4949 0.0816 (  2113 PWs)   bands (ev):

     2.6732   2.7817   2.8463   2.9178   3.0707   3.1388   3.2397   3.4601
     3.4825   3.6376   7.9326  11.5307  12.0288  12.6846  15.7781  16.3413

     occupation numbers 
     1.0000   1.0000   1.0000   1.0000   1.0000   1.0000   1.0000   1.0000
     1.0000   1.0000   1.0000   0.0000   0.0000   0.0000   0.0000   0.0000

          k = 0.2857 0.4949 0.1633 (  2116 PWs)   bands (ev):

     2.6834   2.7642   2.8704   2.9049   3.0253   3.1860   3.2566   3.3958
     3.5219   3.6510   8.3131  10.9678  12.2170  12.4510  14.8962  15.1389

     occupation numbers 
     1.0000   1.0000   1.0000   1.0000   1.0000   1.0000   1.0000   1.0000
     1.0000   1.0000   1.0000   0.0000   0.0000   0.0000   0.0000   0.0000

          k = 0.2857 0.4949 0.2449 (  2110 PWs)   bands (ev):

     2.6972   2.7234   2.8927   2.9298   3.0483   3.1447   3.2774   3.3159
     3.5963   3.6427   8.9556   9.8590  12.7949  13.1280  13.7200  14.0624

     occupation numbers 
     1.0000   1.0000   1.0000   1.0000   1.0000   1.0000   1.0000   1.0000
     1.0000   1.0000   1.0000   1.0000   0.0000   0.0000   0.0000   0.0000

          k = 0.2857 0.5774 0.0000 (  2093 PWs)   bands (ev):

     2.6659   2.8079   2.8467   3.0255   3.0262   3.0548   3.2547   3.5078
     3.5079   3.5638   9.5650   9.6430  11.5644  15.2964  15.9111  16.1040

     occupation numbers 
     1.0000   1.0000   1.0000   1.0000   1.0000   1.0000   1.0000   1.0000
     1.0000   1.0000   1.0000   1.0000   0.0000   0.0000   0.0000   0.0000

          k = 0.2857 0.5774 0.0816 (  2105 PWs)   bands (ev):

     2.6810   2.8089   2.8364   2.9632   3.0370   3.1063   3.2608   3.4725
     3.5207   3.5761   9.6789   9.7812  11.6985  14.3074  14.4167  16.1865

     occupation numbers 
     1.0000   1.0000   1.0000   1.0000   1.0000   1.0000   1.0000   1.0000
     1.0000   1.0000   1.0000   1.0000   0.0000   0.0000   0.0000   0.0000

          k = 0.2857 0.5774 0.1633 (  2115 PWs)   bands (ev):

     2.7075   2.7959   2.8453   2.9147   3.0499   3.1394   3.2729   3.3867
     3.5551   3.6001  10.0215  10.1813  12.0664  12.9323  13.1184  14.9159

     occupation numbers 
     1.0000   1.0000   1.0000   1.0000   1.0000   1.0000   1.0000   1.0000
     1.0000   1.0000   1.0000   1.0000   0.0000   0.0000   0.0000   0.0000

          k = 0.2857 0.5774 0.2449 (  2114 PWs)   bands (ev):

     2.7264   2.7573   2.8900   2.9082   3.0704   3.1212   3.2838   3.3103
     3.5931   3.6107  10.5641  10.7359  11.7713  12.0213  12.8727  13.7735

     occupation numbers 
     1.0000   1.0000   1.0000   1.0000   1.0000   1.0000   1.0000   1.0000
     1.0000   1.0000   1.0000   0.0000   0.0000   0.0000   0.0000   0.0000

 ------ SPIN DOWN ----------


          k = 0.0000 0.0000 0.0000 (  2053 PWs)   bands (ev):

     0.4382   2.2636   2.9095   3.0548   3.0548   3.1158   3.1158   3.3339
     3.3339   3.5915   3.5915   7.3640   8.1805  25.7701  26.2647  26.2647

     occupation numbers 
     1.0000   1.0000   1.0000   1.0000   1.0000   1.0000   1.0000   1.0000
     1.0000   1.0000   1.0000   1.0000   1.0000   0.0000   0.0000   0.0000

          k = 0.0000 0.0000 0.0816 (  2064 PWs)   bands (ev):

     0.5717   2.2603   2.9064   3.0494   3.0494   3.1073   3.1073   3.3550
     3.3551   3.5843   3.5843   5.9292   9.8918  23.6105  26.3949  26.3952

     occupation numbers 
     1.0000   1.0000   1.0000   1.0000   1.0000   1.0000   1.0000   1.0000
     1.0000   1.0000   1.0000   1.0000   1.0000   0.0000   0.0000   0.0000

          k = 0.0000 0.0000 0.1633 (  2076 PWs)   bands (ev):

     0.9594   2.2260   2.9119   3.0424   3.0424   3.0861   3.0861   3.4064
     3.4064   3.5614   3.5614   4.4670  12.2039  20.5395  26.7711  26.7712

     occupation numbers 
     1.0000   1.0000   1.0000   1.0000   1.0000   1.0000   1.0000   1.0000
     1.0000   1.0000   1.0000   1.0000   0.0000   0.0000   0.0000   0.0000

          k = 0.0000 0.0000 0.2449 (  2094 PWs)   bands (ev):

     1.5338   2.0406   2.9996   3.0457   3.0457   3.0622   3.0622   3.4314
     3.4670   3.4670   3.5215   3.5215  14.7692  17.5589  27.3314  27.3324

     occupation numbers 
     1.0000   1.0000   1.0000   1.0000   1.0000   1.0000   1.0000   1.0000
     1.0000   1.0000   1.0000   1.0000   0.0000   0.0000   0.0000   0.0000

          k = 0.0000 0.0825 0.0000 (  2052 PWs)   bands (ev):

     0.5787   2.3156   2.9146   3.0500   3.0853   3.1039   3.1442   3.3079
     3.3202   3.5233   3.5949   7.5812   8.2613  24.0923  25.1443  25.8999

     occupation numbers 
     1.0000   1.0000   1.0000   1.0000   1.0000   1.0000   1.0000   1.0000
     1.0000   1.0000   1.0000   1.0000   1.0000   0.0000   0.0000   0.0000

          k = 0.0000 0.0825 0.0816 (  2077 PWs)   bands (ev):

     0.7113   2.3157   2.9125   3.0393   3.0789   3.0933   3.1354   3.3351
     3.3434   3.5103   3.5869   6.0996  10.0225  23.6983  24.2639  25.2821

     occupation numbers 
     1.0000   1.0000   1.0000   1.0000   1.0000   1.0000   1.0000   1.0000
     1.0000   1.0000   1.0000   1.0000   1.0000   0.0000   0.0000   0.0000

[...]

     occupation numbers 
     1.0000   1.0000   1.0000   1.0000   1.0000   1.0000   1.0000   1.0000
     1.0000   1.0000   1.0000   1.0000   1.0000   0.0000   0.0000   0.0000

          k = 0.1429 0.2474 0.0816 (  2099 PWs)   bands (ev):

     2.0734   2.6864   2.8462   2.9370   3.0521   3.0555   3.2599   3.2815
     3.4371   3.5116   3.6273   7.6622  11.4998  18.2026  18.6008  22.8371

     occupation numbers 
     1.0000   1.0000   1.0000   1.0000   1.0000   1.0000   1.0000   1.0000
     1.0000   1.0000   1.0000   1.0000   0.0000   0.0000   0.0000   0.0000

          k = 0.1429 0.2474 0.1633 (  2098 PWs)   bands (ev):

     2.3140   2.7361   2.8668   2.8747   2.9780   3.0584   3.2513   3.4267
     3.4484   3.4840   3.7195   6.1632  13.7859  18.6189  18.9668  21.4277

     occupation numbers 
     1.0000   1.0000   1.0000   1.0000   1.0000   1.0000   1.0000   1.0000
     1.0000   1.0000   1.0000   1.0000   0.0000   0.0000   0.0000   0.0000

          k = 0.1429 0.2474 0.2449 (  2104 PWs)   bands (ev):

     2.5770   2.7576   2.8095   2.8920   2.9326   3.0056   3.2841   3.3554
     3.5193   3.5268   4.1318   4.9702  16.2893  18.8039  19.3029  19.9836

     occupation numbers 
     1.0000   1.0000   1.0000   1.0000   1.0000   1.0000   1.0000   1.0000
     1.0000   1.0000   1.0000   1.0000   0.0000   0.0000   0.0000   0.0000

          k = 0.1429 0.3299 0.0000 (  2110 PWs)   bands (ev):

     2.5230   2.6849   2.8254   2.8998   3.0566   3.0794   3.2461   3.2614
     3.5436   3.5816   4.0450  10.0874  10.7024  15.4297  17.3028  21.5303

     occupation numbers 
     1.0000   1.0000   1.0000   1.0000   1.0000   1.0000   1.0000   1.0000
     1.0000   1.0000   1.0000   1.0000   0.0000   0.0000   0.0000   0.0000

          k = 0.1429 0.3299 0.0816 (  2104 PWs)   bands (ev):

     2.5368   2.6996   2.8208   2.8959   3.0140   3.1624   3.2402   3.2957
     3.5475   3.5629   4.1057   8.5922  12.4456  15.5666  17.4400  20.2508

     occupation numbers 
     1.0000   1.0000   1.0000   1.0000   1.0000   1.0000   1.0000   1.0000
     1.0000   1.0000   1.0000   1.0000   0.0000   0.0000   0.0000   0.0000

          k = 0.1429 0.3299 0.1633 (  2110 PWs)   bands (ev):

     2.5732   2.7428   2.7686   2.9375   2.9936   3.1556   3.2349   3.4594
     3.4722   3.5948   4.3545   7.0904  14.6781  15.9728  17.8413  18.8687

     occupation numbers 
     1.0000   1.0000   1.0000   1.0000   1.0000   1.0000   1.0000   1.0000
     1.0000   1.0000   1.0000   1.0000   0.0000   0.0000   0.0000   0.0000

          k = 0.1429 0.3299 0.2449 (  2116 PWs)   bands (ev):

     2.6268   2.6920   2.8228   2.8983   3.0453   3.1062   3.2779   3.3658
     3.5813   3.6115   4.9337   5.8605  16.6177  16.9042  17.8890  18.4527

     occupation numbers 
     1.0000   1.0000   1.0000   1.0000   1.0000   1.0000   1.0000   1.0000
     1.0000   1.0000   1.0000   1.0000   0.0000   0.0000   0.0000   0.0000

          k = 0.1429 0.4124 0.0000 (  2114 PWs)   bands (ev):

     2.6111   2.6562   2.7119   3.0502   3.1012   3.1477   3.1949   3.4049
     3.5736   3.6408   5.0468  11.1342  12.0220  12.8957  16.5616  18.9614

     occupation numbers 
     1.0000   1.0000   1.0000   1.0000   1.0000   1.0000   1.0000   1.0000
     1.0000   1.0000   1.0000   0.0000   0.0000   0.0000   0.0000   0.0000

          k = 0.1429 0.4124 0.0816 (  2109 PWs)   bands (ev):

     2.5884   2.6339   2.7892   2.9273   3.0831   3.2002   3.3072   3.4005
     3.5428   3.6523   5.1501   9.7730  12.9968  13.6326  16.7008  17.7578

     occupation numbers 
     1.0000   1.0000   1.0000   1.0000   1.0000   1.0000   1.0000   1.0000
     1.0000   1.0000   1.0000   1.0000   0.0000   0.0000   0.0000   0.0000

          k = 0.1429 0.4124 0.1633 (  2115 PWs)   bands (ev):

     2.5539   2.6712   2.7722   2.8723   3.0920   3.2398   3.3619   3.4540
     3.5012   3.6723   5.4921   8.2931  13.4109  15.4491  16.7107  17.1333

     occupation numbers 
     1.0000   1.0000   1.0000   1.0000   1.0000   1.0000   1.0000   1.0000
     1.0000   1.0000   1.0000   1.0000   0.0000   0.0000   0.0000   0.0000

          k = 0.1429 0.4124 0.2449 (  2120 PWs)   bands (ev):

     2.5725   2.6374   2.7676   2.8339   3.1865   3.2700   3.3259   3.3562
     3.6159   3.6695   6.1266   7.0667  14.0716  14.9523  17.7747  18.2080

     occupation numbers 
     1.0000   1.0000   1.0000   1.0000   1.0000   1.0000   1.0000   1.0000
     1.0000   1.0000   1.0000   1.0000   0.0000   0.0000   0.0000   0.0000

          k = 0.1429 0.4949 0.0000 (  2115 PWs)   bands (ev):

     2.5539   2.6420   2.6480   3.0492   3.1301   3.1767   3.2683   3.5507
     3.5683   3.6761   6.5140  10.3879  12.6976  13.4849  16.1052  16.6612

     occupation numbers 
     1.0000   1.0000   1.0000   1.0000   1.0000   1.0000   1.0000   1.0000
     1.0000   1.0000   1.0000   1.0000   0.0000   0.0000   0.0000   0.0000

          k = 0.1429 0.4949 0.0816 (  2110 PWs)   bands (ev):

     2.5481   2.5728   2.7577   2.9514   3.0742   3.2359   3.3753   3.5349
     3.5475   3.6821   6.6314  10.3714  11.5432  14.5550  15.9717  16.2663

     occupation numbers 
     1.0000   1.0000   1.0000   1.0000   1.0000   1.0000   1.0000   1.0000
     1.0000   1.0000   1.0000   1.0000   0.0000   0.0000   0.0000   0.0000

          k = 0.1429 0.4949 0.1633 (  2111 PWs)   bands (ev):

     2.5079   2.6071   2.7932   2.8239   3.0798   3.3328   3.4434   3.4947
     3.5432   3.6902   6.9949   9.6266  11.2429  13.7771  16.6715  17.4983

     occupation numbers 
     1.0000   1.0000   1.0000   1.0000   1.0000   1.0000   1.0000   1.0000
     1.0000   1.0000   1.0000   1.0000   0.0000   0.0000   0.0000   0.0000

          k = 0.1429 0.4949 0.2449 (  2113 PWs)   bands (ev):

     2.5275   2.5942   2.7378   2.7893   3.1833   3.3166   3.4247   3.4811
     3.6158   3.6737   7.6242   8.5215  11.8024  12.6786  17.3571  18.2324

     occupation numbers 
     1.0000   1.0000   1.0000   1.0000   1.0000   1.0000   1.0000   1.0000
     1.0000   1.0000   1.0000   1.0000   0.0000   0.0000   0.0000   0.0000

          k = 0.1429 0.5774 0.0000 (  2129 PWs)   bands (ev):

     2.5329   2.6185   2.6390   3.0687   3.0872   3.1993   3.3123   3.5663
     3.6340   3.6544   8.1760   8.4704  13.9548  14.5227  15.0617  15.9630

     occupation numbers 
     1.0000   1.0000   1.0000   1.0000   1.0000   1.0000   1.0000   1.0000
     1.0000   1.0000   1.0000   1.0000   0.0000   0.0000   0.0000   0.0000

          k = 0.1429 0.5774 0.0816 (  2109 PWs)   bands (ev):

     2.5330   2.5481   2.7442   2.9697   3.0463   3.2600   3.4014   3.5343
     3.6318   3.6570   8.3076   8.5608  13.0869  13.1410  16.0970  16.7741

     occupation numbers 
     1.0000   1.0000   1.0000   1.0000   1.0000   1.0000   1.0000   1.0000
     1.0000   1.0000   1.0000   1.0000   0.0000   0.0000   0.0000   0.0000

          k = 0.1429 0.5774 0.1633 (  2110 PWs)   bands (ev):

     2.4906   2.5841   2.8027   2.8057   3.0648   3.3809   3.4378   3.5053
     3.6257   3.6574   8.6833   8.8294  11.7264  11.8942  16.5247  18.9184

     occupation numbers 
     1.0000   1.0000   1.0000   1.0000   1.0000   1.0000   1.0000   1.0000
     1.0000   1.0000   1.0000   1.0000   0.0000   0.0000   0.0000   0.0000

          k = 0.1429 0.5774 0.2449 (  2104 PWs)   bands (ev):

     2.5113   2.5774   2.7292   2.7738   3.1745   3.3128   3.4994   3.5439
     3.6198   3.6366   9.1745   9.2034  10.8111  10.9044  17.2131  18.1267

     occupation numbers 
     1.0000   1.0000   1.0000   1.0000   1.0000   1.0000   1.0000   1.0000
     1.0000   1.0000   1.0000   1.0000   0.0000   0.0000   0.0000   0.0000

          k = 0.2143 0.3712 0.0000 (  2109 PWs)   bands (ev):

     2.7124   2.7399   2.7742   2.9482   3.0278   3.1100   3.2151   3.2927
     3.5590   3.6395   4.9598  11.0609  11.8904  14.3842  14.8265  20.6487

     occupation numbers 
     1.0000   1.0000   1.0000   1.0000   1.0000   1.0000   1.0000   1.0000
     1.0000   1.0000   1.0000   0.0000   0.0000   0.0000   0.0000   0.0000

          k = 0.2143 0.3712 0.0816 (  2106 PWs)   bands (ev):

     2.7019   2.7210   2.8362   2.8368   3.0932   3.1439   3.2073   3.3326
     3.5274   3.6523   5.0603   9.6678  13.5146  14.5231  14.9632  19.2032

     occupation numbers 
     1.0000   1.0000   1.0000   1.0000   1.0000   1.0000   1.0000   1.0000
     1.0000   1.0000   1.0000   1.0000   0.0000   0.0000   0.0000   0.0000

          k = 0.2143 0.3712 0.1633 (  2114 PWs)   bands (ev):

     2.6714   2.7008   2.8062   2.9265   3.0445   3.1650   3.2089   3.4347
     3.4917   3.6738   5.3947   8.1831  14.9377  15.3663  15.6300  17.7687

     occupation numbers 
     1.0000   1.0000   1.0000   1.0000   1.0000   1.0000   1.0000   1.0000
     1.0000   1.0000   1.0000   1.0000   0.0000   0.0000   0.0000   0.0000

          k = 0.2143 0.3712 0.2449 (  2121 PWs)   bands (ev):

     2.6577   2.6649   2.8650   2.9379   3.0538   3.1227   3.2482   3.3339
     3.6161   3.6719   6.0215   6.9573  15.6219  16.0059  16.5715  16.7106

     occupation numbers 
     1.0000   1.0000   1.0000   1.0000   1.0000   1.0000   1.0000   1.0000
     1.0000   1.0000   1.0000   1.0000   0.0000   0.0000   0.0000   0.0000

          k = 0.2143 0.4536 0.0000 (  2116 PWs)   bands (ev):

     2.6805   2.6998   2.7726   3.0122   3.0868   3.1520   3.1780   3.3977
     3.5414   3.6689   6.2804  11.9094  12.5690  13.2808  14.0477  18.2497

     occupation numbers 
     1.0000   1.0000   1.0000   1.0000   1.0000   1.0000   1.0000   1.0000
     1.0000   1.0000   1.0000   0.0000   0.0000   0.0000   0.0000   0.0000

          k = 0.2143 0.4536 0.0816 (  2114 PWs)   bands (ev):

     2.6505   2.7156   2.8210   2.9073   3.0796   3.1941   3.2372   3.4120
     3.5085   3.6781   6.3992  10.9628  12.3274  14.1863  14.7577  17.0803

     occupation numbers 
     1.0000   1.0000   1.0000   1.0000   1.0000   1.0000   1.0000   1.0000
     1.0000   1.0000   1.0000   0.0000   0.0000   0.0000   0.0000   0.0000

          k = 0.2143 0.4536 0.1633 (  2113 PWs)   bands (ev):

     2.6252   2.7533   2.7754   2.9365   3.0181   3.2252   3.2878   3.4176
     3.5051   3.6907   6.7677   9.5378  12.7058  14.6014  15.3340  16.8546

     occupation numbers 
     1.0000   1.0000   1.0000   1.0000   1.0000   1.0000   1.0000   1.0000
     1.0000   1.0000   1.0000   1.0000   0.0000   0.0000   0.0000   0.0000

          k = 0.2143 0.4536 0.2449 (  2117 PWs)   bands (ev):

     2.6345   2.6825   2.8293   2.9064   3.0915   3.2035   3.2886   3.3310
     3.6142   3.6771   7.4100   8.3370  13.3671  14.2769  15.2758  16.1724

     occupation numbers 
     1.0000   1.0000   1.0000   1.0000   1.0000   1.0000   1.0000   1.0000
     1.0000   1.0000   1.0000   1.0000   0.0000   0.0000   0.0000   0.0000

          k = 0.2143 0.5361 0.0000 (  2107 PWs)   bands (ev):

     2.6506   2.6722   2.7666   3.0290   3.0912   3.1561   3.2153   3.5188
     3.5319   3.6334   7.9315   9.8694  13.7212  13.9850  14.7302  16.1192

     occupation numbers 
     1.0000   1.0000   1.0000   1.0000   1.0000   1.0000   1.0000   1.0000
     1.0000   1.0000   1.0000   1.0000   0.0000   0.0000   0.0000   0.0000

          k = 0.2143 0.5361 0.0816 (  2113 PWs)   bands (ev):

     2.6214   2.6882   2.8237   2.9506   3.0239   3.2361   3.2670   3.4978
     3.5228   3.6407   8.0549   9.9774  12.7456  13.8794  14.5393  16.6820

     occupation numbers 
     1.0000   1.0000   1.0000   1.0000   1.0000   1.0000   1.0000   1.0000
     1.0000   1.0000   1.0000   1.0000   0.0000   0.0000   0.0000   0.0000

          k = 0.2143 0.5361 0.1633 (  2112 PWs)   bands (ev):

     2.6004   2.7325   2.8108   2.9284   2.9670   3.2892   3.3423   3.4209
     3.5452   3.6514   8.4262  10.2173  11.4878  13.2655  14.2999  16.9901

     occupation numbers 
     1.0000   1.0000   1.0000   1.0000   1.0000   1.0000   1.0000   1.0000
     1.0000   1.0000   1.0000   1.0000   0.0000   0.0000   0.0000   0.0000

          k = 0.2143 0.5361 0.2449 (  2106 PWs)   bands (ev):

     2.6238   2.6960   2.7995   2.8742   3.0813   3.2207   3.3737   3.3946
     3.5966   3.6406   9.0422   9.8440  11.3392  12.1424  14.9811  15.9039

     occupation numbers 
     1.0000   1.0000   1.0000   1.0000   1.0000   1.0000   1.0000   1.0000
     1.0000   1.0000   1.0000   1.0000   0.0000   0.0000   0.0000   0.0000

          k = 0.2857 0.4949 0.0000 (  2109 PWs)   bands (ev):

     2.6684   2.7795   2.8252   3.0079   3.0500   3.0958   3.2300   3.4416
     3.5168   3.6286   7.8069  11.4722  11.8858  13.8933  14.7237  17.6759

     occupation numbers 
     1.0000   1.0000   1.0000   1.0000   1.0000   1.0000   1.0000   1.0000
     1.0000   1.0000   1.0000   0.0000   0.0000   0.0000   0.0000   0.0000

          k = 0.2857 0.4949 0.0816 (  2113 PWs)   bands (ev):

     2.6732   2.7817   2.8463   2.9178   3.0707   3.1388   3.2397   3.4601
     3.4825   3.6376   7.9326  11.5307  12.0288  12.6846  15.7781  16.3413

     occupation numbers 
     1.0000   1.0000   1.0000   1.0000   1.0000   1.0000   1.0000   1.0000
     1.0000   1.0000   1.0000   0.0000   0.0000   0.0000   0.0000   0.0000

          k = 0.2857 0.4949 0.1633 (  2116 PWs)   bands (ev):

     2.6834   2.7642   2.8704   2.9049   3.0253   3.1860   3.2566   3.3958
     3.5219   3.6510   8.3131  10.9678  12.2170  12.4510  14.8962  15.1389

     occupation numbers 
     1.0000   1.0000   1.0000   1.0000   1.0000   1.0000   1.0000   1.0000
     1.0000   1.0000   1.0000   0.0000   0.0000   0.0000   0.0000   0.0000

          k = 0.2857 0.4949 0.2449 (  2110 PWs)   bands (ev):

     2.6972   2.7234   2.8927   2.9298   3.0483   3.1447   3.2774   3.3159
     3.5963   3.6427   8.9556   9.8590  12.7949  13.1280  13.7200  14.0624

     occupation numbers 
     1.0000   1.0000   1.0000   1.0000   1.0000   1.0000   1.0000   1.0000
     1.0000   1.0000   1.0000   1.0000   0.0000   0.0000   0.0000   0.0000

          k = 0.2857 0.5774 0.0000 (  2093 PWs)   bands (ev):

     2.6659   2.8079   2.8467   3.0255   3.0262   3.0548   3.2547   3.5078
     3.5079   3.5638   9.5650   9.6430  11.5644  15.2964  15.9111  16.1040

     occupation numbers 
     1.0000   1.0000   1.0000   1.0000   1.0000   1.0000   1.0000   1.0000
     1.0000   1.0000   1.0000   1.0000   0.0000   0.0000   0.0000   0.0000

          k = 0.2857 0.5774 0.0816 (  2105 PWs)   bands (ev):

     2.6810   2.8089   2.8364   2.9632   3.0370   3.1063   3.2608   3.4725
     3.5207   3.5761   9.6789   9.7812  11.6985  14.3074  14.4167  16.1865

     occupation numbers 
     1.0000   1.0000   1.0000   1.0000   1.0000   1.0000   1.0000   1.0000
     1.0000   1.0000   1.0000   1.0000   0.0000   0.0000   0.0000   0.0000

          k = 0.2857 0.5774 0.1633 (  2115 PWs)   bands (ev):

     2.7075   2.7959   2.8453   2.9147   3.0499   3.1394   3.2729   3.3867
     3.5551   3.6001  10.0215  10.1813  12.0664  12.9323  13.1184  14.9159

     occupation numbers 
     1.0000   1.0000   1.0000   1.0000   1.0000   1.0000   1.0000   1.0000
     1.0000   1.0000   1.0000   1.0000   0.0000   0.0000   0.0000   0.0000

          k = 0.2857 0.5774 0.2449 (  2114 PWs)   bands (ev):

     2.7264   2.7573   2.8900   2.9082   3.0704   3.1212   3.2838   3.3103
     3.5931   3.6107  10.5641  10.7359  11.7713  12.0213  12.8727  13.7735

     occupation numbers 
     1.0000   1.0000   1.0000   1.0000   1.0000   1.0000   1.0000   1.0000
     1.0000   1.0000   1.0000   0.0000   0.0000   0.0000   0.0000   0.0000

     the Fermi energy is    10.6663 ev

!    total energy              =    -487.44540832 Ry
     total all-electron energy =     -7184.239454 Ry
     estimated scf accuracy    <       0.00000141 Ry
     smearing contrib. (-TS)   =      -0.00000186 Ry
     internal energy E=F+TS    =    -487.44540646 Ry

     The total energy is F=E-TS. E is the sum of the following terms:
     one-electron contribution =    -119.46270262 Ry
     hartree contribution      =      92.55189095 Ry
     xc contribution           =     -94.33727235 Ry
     ewald contribution        =    -175.33261682 Ry
     one-center paw contrib.   =    -190.86470563 Ry
      -> PAW hartree energy AE =     121.15655213 Ry
      -> PAW hartree energy PS =    -120.52963382 Ry
      -> PAW xc energy AE      =    -143.02344384 Ry
      -> PAW xc energy PS      =      46.96417272 Ry
      -> total E_H with PAW    =      93.17880925 Ry
      -> total E_XC with PAW   =    -190.39654347 Ry

     total magnetization       =     0.00 Bohr mag/cell
     absolute magnetization    =     0.00 Bohr mag/cell

     convergence has been achieved in   6 iterations

     Writing all to output data dir ./out/Zn.save/
 
     init_run     :      0.27s CPU      0.38s WALL (       1 calls)
     electrons    :      8.03s CPU      8.70s WALL (       1 calls)

     Called by init_run:
     wfcinit      :      0.12s CPU      0.20s WALL (       1 calls)
     potinit      :      0.10s CPU      0.12s WALL (       1 calls)
     hinit0       :      0.04s CPU      0.04s WALL (       1 calls)

     Called by electrons:
     c_bands      :      6.74s CPU      7.23s WALL (       6 calls)
     sum_band     :      0.71s CPU      0.75s WALL (       6 calls)
     v_of_rho     :      0.02s CPU      0.02s WALL (       7 calls)
     v_h          :      0.00s CPU      0.00s WALL (       7 calls)
     v_xc         :      0.02s CPU      0.02s WALL (       7 calls)
     newd         :      0.01s CPU      0.01s WALL (       7 calls)
     PAW_pot      :      0.63s CPU      0.77s WALL (       7 calls)
     mix_rho      :      0.00s CPU      0.00s WALL (       6 calls)

     Called by c_bands:
     init_us_2    :      0.04s CPU      0.05s WALL (    1152 calls)
     init_us_2:cp :      0.04s CPU      0.04s WALL (    1152 calls)
     cegterg      :      6.42s CPU      6.77s WALL (     576 calls)

     Called by sum_band:
     sum_band:wei :      0.02s CPU      0.02s WALL (       6 calls)
     sum_band:loo :      0.66s CPU      0.70s WALL (       6 calls)
     sum_band:buf :      0.00s CPU      0.00s WALL (     576 calls)
     sum_band:ini :      0.02s CPU      0.02s WALL (     576 calls)
     sum_band:cal :      0.05s CPU      0.06s WALL (     576 calls)
     sum_band:bec :      0.00s CPU      0.00s WALL (     576 calls)
     addusdens    :      0.02s CPU      0.02s WALL (       6 calls)
                                        0.00s GPU  (       6 calls)
     addusd:skk   :      0.00s CPU      0.00s WALL (       6 calls)
                                        0.00s GPU  (       6 calls)

     Called by *egterg:
     cdiaghg      :      1.10s CPU      1.16s WALL (    3537 calls)
     cegterg:over :      0.18s CPU      0.19s WALL (    3057 calls)
     cegterg:upda :      0.04s CPU      0.05s WALL (    3057 calls)
     cegterg:last :      0.08s CPU      0.08s WALL (    2319 calls)
     h_psi        :      4.79s CPU      5.05s WALL (    3633 calls)
     s_psi        :      0.08s CPU      0.09s WALL (    3633 calls)
     g_psi        :      0.02s CPU      0.02s WALL (    3057 calls)

     Called by h_psi:
     h_psi:calbec :      0.23s CPU      0.24s WALL (    3633 calls)
     vloc_psi     :      4.45s CPU      4.69s WALL (    3633 calls)
     add_vuspsi   :      0.09s CPU      0.09s WALL (    3633 calls)

     General routines
     calbec       :      0.27s CPU      0.29s WALL (    4209 calls)
     fft          :      0.01s CPU      0.01s WALL (     145 calls)
     ffts         :      0.00s CPU      0.00s WALL (      12 calls)
     fftw         :      4.66s CPU      4.92s WALL (   90750 calls)
 
     Parallel routines

     PAW routines
     PAW_pot      :      0.63s CPU      0.77s WALL (       7 calls)
     PAW_symme    :      0.01s CPU      0.01s WALL (      12 calls)
 
     PWSCF        :      8.53s CPU      9.67s WALL

 
   This run was terminated on:   3:31: 5  13Mar2024            

=------------------------------------------------------------------------------=
   JOB DONE.
=------------------------------------------------------------------------------=
