
     Program PWSCF v.7.2 starts on 13Mar2024 at  3:28:46 

     This program is part of the open-source Quantum ESPRESSO suite
     for quantum simulation of materials; please cite
         "P. Giannozzi et al., J. Phys.:Condens. Matter 21 395502 (2009);
         "P. Giannozzi et al., J. Phys.:Condens. Matter 29 465901 (2017);
         "P. Giannozzi et al., J. Chem. Phys. 152 154105 (2020);
          URL http://www.quantum-espresso.org", 
     in publications or presentations arising from this work. More details at
     http://www.quantum-espresso.org/quote

     Parallel version (MPI), running on    28 processors

     MPI processes distributed on     1 nodes
     150323 MiB available memory on the printing compute node when the environment starts
 
     Waiting for input...
     Reading input from standard input

     Current dimensions of program PWSCF are:
     Max number of different atomic species (ntypx) = 10
     Max number of k-points (npk) = 120000
     Max angular momentum in pseudopotentials (lmaxx) =  4
     file Zn.pbe-dnl-kjpaw_psl.1.0.0.UPF: wavefunction(s)  4S 3D renormalized
 
     K-points division:     npool     =       2
     R & G space division:  proc/nbgrp/npool/nimage =      14
     Subspace diagonalization in iterative solution of the eigenvalue problem:
     a serial algorithm will be used

 
     Parallelization info
     --------------------
     sticks:   dense  smooth     PW     G-vecs:    dense   smooth      PW
     Min          35      35     10                 1155     1155     188
     Max          36      36     11                 1164     1164     195
     Sum         499     499    151                16255    16255    2709
 
     Using Slab Decomposition
 


     bravais-lattice index     =            4
     lattice parameter (alat)  =       5.1000  a.u.
     unit-cell volume          =     205.6337 (a.u.)^3
     number of atoms/cell      =            2
     number of atomic types    =            1
     number of electrons       =        24.00
     number of Kohn-Sham states=           16
     kinetic-energy cutoff     =      70.0000  Ry
     charge density cutoff     =     280.0000  Ry
     scf convergence threshold =      4.0E-06
     mixing beta               =       0.7000
     number of iterations used =            8  plain     mixing
     Exchange-correlation= SLA  PW   PBX  PBC
                           (   1   4   3   4   0   0   0)

     celldm(1)=   5.100000  celldm(2)=   0.000000  celldm(3)=   1.790000
     celldm(4)=   0.000000  celldm(5)=   0.000000  celldm(6)=   0.000000

     crystal axes: (cart. coord. in units of alat)
               a(1) = (   1.000000   0.000000   0.000000 )  
               a(2) = (  -0.500000   0.866025   0.000000 )  
               a(3) = (   0.000000   0.000000   1.790000 )  

     reciprocal axes: (cart. coord. in units 2 pi/alat)
               b(1) = (  1.000000  0.577350  0.000000 )  
               b(2) = (  0.000000  1.154701  0.000000 )  
               b(3) = (  0.000000  0.000000  0.558659 )  


     PseudoPot. # 1 for Zn read from file:
     /truba/home/amuhaymin/ZnS/pseudo/QE/Zn.pbe-dnl-kjpaw_psl.1.0.0.UPF
     MD5 check sum: c608214d9520ac179f507641260889e3
     Pseudo is Projector augmented-wave + core cor, Zval = 12.0
     Generated using &quot;atomic&quot; code by A. Dal Corso  v.6.2.2
     Shape of augmentation charge: PSQ
     Using radial grid of 1201 points,  6 beta functions with: 
                l(1) =   0
                l(2) =   0
                l(3) =   1
                l(4) =   1
                l(5) =   2
                l(6) =   2
     Q(r) pseudized with 0 coefficients 


     atomic species   valence    mass     pseudopotential
        Zn            12.00    65.38000     Zn( 1.00)

     Starting magnetic structure 
     atomic species   magnetization
        Zn           0.000

     24 Sym. Ops., with inversion, found (12 have fractional translation)


                                    s                        frac. trans.

      isym =  1     identity                                     

 cryst.   s( 1) = (     1          0          0      )
                  (     0          1          0      )
                  (     0          0          1      )

 cart.    s( 1) = (  1.0000000  0.0000000  0.0000000 )
                  (  0.0000000  1.0000000  0.0000000 )
                  (  0.0000000  0.0000000  1.0000000 )


      isym =  2     180 deg rotation - cart. axis [0,0,1]        

 cryst.   s( 2) = (    -1          0          0      )    f =(  0.0000000 )
                  (     0         -1          0      )       (  0.0000000 )
                  (     0          0          1      )       ( -0.5000000 )

 cart.    s( 2) = ( -1.0000000  0.0000000  0.0000000 )    f =(  0.0000000 )
                  (  0.0000000 -1.0000000  0.0000000 )       (  0.0000000 )
                  (  0.0000000  0.0000000  1.0000000 )       ( -0.8950000 )


      isym =  3     180 deg rotation - cart. axis [0,1,0]        

 cryst.   s( 3) = (    -1          0          0      )    f =(  0.0000000 )
                  (     1          1          0      )       (  0.0000000 )
                  (     0          0         -1      )       (  0.5000000 )

 cart.    s( 3) = ( -1.0000000  0.0000000  0.0000000 )    f =(  0.0000000 )
                  (  0.0000000  1.0000000  0.0000000 )       (  0.0000000 )
                  (  0.0000000  0.0000000 -1.0000000 )       (  0.8950000 )


      isym =  4     180 deg rotation - cart. axis [1,0,0]        

 cryst.   s( 4) = (     1          0          0      )
                  (    -1         -1          0      )
                  (     0          0         -1      )

 cart.    s( 4) = (  1.0000000  0.0000000  0.0000000 )
                  (  0.0000000 -1.0000000  0.0000000 )
                  (  0.0000000  0.0000000 -1.0000000 )


      isym =  5      60 deg rotation - cryst. axis [0,0,1]       

 cryst.   s( 5) = (     1          1          0      )    f =(  0.0000000 )
                  (    -1          0          0      )       ( -0.0000000 )
                  (     0          0          1      )       ( -0.5000000 )

 cart.    s( 5) = (  0.5000000 -0.8660254  0.0000000 )    f =(  0.0000000 )
                  (  0.8660254  0.5000000  0.0000000 )       ( -0.0000000 )
                  (  0.0000000  0.0000000  1.0000000 )       ( -0.8950000 )


      isym =  6      60 deg rotation - cryst. axis [0,0,-1]      

 cryst.   s( 6) = (     0         -1          0      )    f =(  0.0000000 )
                  (     1          1          0      )       ( -0.0000000 )
                  (     0          0          1      )       ( -0.5000000 )

 cart.    s( 6) = (  0.5000000  0.8660254  0.0000000 )    f =(  0.0000000 )
                  ( -0.8660254  0.5000000  0.0000000 )       ( -0.0000000 )
                  (  0.0000000  0.0000000  1.0000000 )       ( -0.8950000 )


      isym =  7     120 deg rotation - cryst. axis [0,0,1]       

 cryst.   s( 7) = (     0          1          0      )
                  (    -1         -1          0      )
                  (     0          0          1      )

 cart.    s( 7) = ( -0.5000000 -0.8660254  0.0000000 )
                  (  0.8660254 -0.5000000  0.0000000 )
                  (  0.0000000  0.0000000  1.0000000 )


      isym =  8     120 deg rotation - cryst. axis [0,0,-1]      

 cryst.   s( 8) = (    -1         -1          0      )
                  (     1          0          0      )
                  (     0          0          1      )

 cart.    s( 8) = ( -0.5000000  0.8660254  0.0000000 )
                  ( -0.8660254 -0.5000000  0.0000000 )
                  (  0.0000000  0.0000000  1.0000000 )


      isym =  9     180 deg rotation - cryst. axis [1,-1,0]      

 cryst.   s( 9) = (     0         -1          0      )    f =(  0.0000000 )
                  (    -1          0          0      )       (  0.0000000 )
                  (     0          0         -1      )       (  0.5000000 )

 cart.    s( 9) = (  0.5000000 -0.8660254  0.0000000 )    f =(  0.0000000 )
                  ( -0.8660254 -0.5000000  0.0000000 )       (  0.0000000 )
                  (  0.0000000  0.0000000 -1.0000000 )       (  0.8950000 )


      isym = 10     180 deg rotation - cryst. axis [2,1,0]       

 cryst.   s(10) = (     1          1          0      )    f =(  0.0000000 )
                  (     0         -1          0      )       ( -0.0000000 )
                  (     0          0         -1      )       (  0.5000000 )

 cart.    s(10) = (  0.5000000  0.8660254  0.0000000 )    f =(  0.0000000 )
                  (  0.8660254 -0.5000000  0.0000000 )       ( -0.0000000 )
                  (  0.0000000  0.0000000 -1.0000000 )       (  0.8950000 )


      isym = 11     180 deg rotation - cryst. axis [0,1,0]       

 cryst.   s(11) = (    -1         -1          0      )
                  (     0          1          0      )
                  (     0          0         -1      )

 cart.    s(11) = ( -0.5000000 -0.8660254  0.0000000 )
                  ( -0.8660254  0.5000000  0.0000000 )
                  (  0.0000000  0.0000000 -1.0000000 )


      isym = 12     180 deg rotation - cryst. axis [1,1,0]       

 cryst.   s(12) = (     0          1          0      )
                  (     1          0          0      )
                  (     0          0         -1      )

 cart.    s(12) = ( -0.5000000  0.8660254  0.0000000 )
                  (  0.8660254  0.5000000  0.0000000 )
                  (  0.0000000  0.0000000 -1.0000000 )


      isym = 13     inversion                                    

 cryst.   s(13) = (    -1          0          0      )
                  (     0         -1          0      )
                  (     0          0         -1      )

 cart.    s(13) = ( -1.0000000  0.0000000  0.0000000 )
                  (  0.0000000 -1.0000000  0.0000000 )
                  (  0.0000000  0.0000000 -1.0000000 )


      isym = 14     inv. 180 deg rotation - cart. axis [0,0,1]   

 cryst.   s(14) = (     1          0          0      )    f =(  0.0000000 )
                  (     0          1          0      )       (  0.0000000 )
                  (     0          0         -1      )       (  0.5000000 )

 cart.    s(14) = (  1.0000000  0.0000000  0.0000000 )    f =(  0.0000000 )
                  (  0.0000000  1.0000000  0.0000000 )       (  0.0000000 )
                  (  0.0000000  0.0000000 -1.0000000 )       (  0.8950000 )


      isym = 15     inv. 180 deg rotation - cart. axis [0,1,0]   

 cryst.   s(15) = (     1          0          0      )    f =(  0.0000000 )
                  (    -1         -1          0      )       (  0.0000000 )
                  (     0          0          1      )       ( -0.5000000 )

 cart.    s(15) = (  1.0000000  0.0000000  0.0000000 )    f =(  0.0000000 )
                  (  0.0000000 -1.0000000  0.0000000 )       (  0.0000000 )
                  (  0.0000000  0.0000000  1.0000000 )       ( -0.8950000 )


      isym = 16     inv. 180 deg rotation - cart. axis [1,0,0]   

 cryst.   s(16) = (    -1          0          0      )
                  (     1          1          0      )
                  (     0          0          1      )

 cart.    s(16) = ( -1.0000000  0.0000000  0.0000000 )
                  (  0.0000000  1.0000000  0.0000000 )
                  (  0.0000000  0.0000000  1.0000000 )


      isym = 17     inv.  60 deg rotation - cryst. axis [0,0,1]  

 cryst.   s(17) = (    -1         -1          0      )    f =(  0.0000000 )
                  (     1          0          0      )       (  0.0000000 )
                  (     0          0         -1      )       (  0.5000000 )

 cart.    s(17) = ( -0.5000000  0.8660254  0.0000000 )    f =(  0.0000000 )
                  ( -0.8660254 -0.5000000  0.0000000 )       (  0.0000000 )
                  (  0.0000000  0.0000000 -1.0000000 )       (  0.8950000 )


      isym = 18     inv.  60 deg rotation - cryst. axis [0,0,-1] 

 cryst.   s(18) = (     0          1          0      )    f =(  0.0000000 )
                  (    -1         -1          0      )       ( -0.0000000 )
                  (     0          0         -1      )       (  0.5000000 )

 cart.    s(18) = ( -0.5000000 -0.8660254  0.0000000 )    f =(  0.0000000 )
                  (  0.8660254 -0.5000000  0.0000000 )       ( -0.0000000 )
                  (  0.0000000  0.0000000 -1.0000000 )       (  0.8950000 )


      isym = 19     inv. 120 deg rotation - cryst. axis [0,0,1]  

 cryst.   s(19) = (     0         -1          0      )
                  (     1          1          0      )
                  (     0          0         -1      )

 cart.    s(19) = (  0.5000000  0.8660254  0.0000000 )
                  ( -0.8660254  0.5000000  0.0000000 )
                  (  0.0000000  0.0000000 -1.0000000 )


      isym = 20     inv. 120 deg rotation - cryst. axis [0,0,-1] 

 cryst.   s(20) = (     1          1          0      )
                  (    -1          0          0      )
                  (     0          0         -1      )

 cart.    s(20) = (  0.5000000 -0.8660254  0.0000000 )
                  (  0.8660254  0.5000000  0.0000000 )
                  (  0.0000000  0.0000000 -1.0000000 )


      isym = 21     inv. 180 deg rotation - cryst. axis [1,-1,0] 

 cryst.   s(21) = (     0          1          0      )    f =(  0.0000000 )
                  (     1          0          0      )       ( -0.0000000 )
                  (     0          0          1      )       ( -0.5000000 )

 cart.    s(21) = ( -0.5000000  0.8660254  0.0000000 )    f =(  0.0000000 )
                  (  0.8660254  0.5000000  0.0000000 )       ( -0.0000000 )
                  (  0.0000000  0.0000000  1.0000000 )       ( -0.8950000 )


      isym = 22     inv. 180 deg rotation - cryst. axis [2,1,0]  

 cryst.   s(22) = (    -1         -1          0      )    f =(  0.0000000 )
                  (     0          1          0      )       ( -0.0000000 )
                  (     0          0          1      )       ( -0.5000000 )

 cart.    s(22) = ( -0.5000000 -0.8660254  0.0000000 )    f =(  0.0000000 )
                  ( -0.8660254  0.5000000  0.0000000 )       ( -0.0000000 )
                  (  0.0000000  0.0000000  1.0000000 )       ( -0.8950000 )


      isym = 23     inv. 180 deg rotation - cryst. axis [0,1,0]  

 cryst.   s(23) = (     1          1          0      )
                  (     0         -1          0      )
                  (     0          0          1      )

 cart.    s(23) = (  0.5000000  0.8660254  0.0000000 )
                  (  0.8660254 -0.5000000  0.0000000 )
                  (  0.0000000  0.0000000  1.0000000 )


      isym = 24     inv. 180 deg rotation - cryst. axis [1,1,0]  

 cryst.   s(24) = (     0         -1          0      )
                  (    -1          0          0      )
                  (     0          0          1      )

 cart.    s(24) = (  0.5000000 -0.8660254  0.0000000 )
                  ( -0.8660254 -0.5000000  0.0000000 )
                  (  0.0000000  0.0000000  1.0000000 )


     point group D_6h(6/mmm)
     there are 12 classes
     the character table:

       E     2C6   2C3   C2    3C2'  3C2'' i     2S3   2S6   s_h   3s_d  3s_v 
A_1g   1.00  1.00  1.00  1.00  1.00  1.00  1.00  1.00  1.00  1.00  1.00  1.00
A_2g   1.00  1.00  1.00  1.00 -1.00 -1.00  1.00  1.00  1.00  1.00 -1.00 -1.00
B_1g   1.00 -1.00  1.00 -1.00  1.00 -1.00  1.00 -1.00  1.00 -1.00  1.00 -1.00
B_2g   1.00 -1.00  1.00 -1.00 -1.00  1.00  1.00 -1.00  1.00 -1.00 -1.00  1.00
E_1g   2.00  1.00 -1.00 -2.00  0.00  0.00  2.00  1.00 -1.00 -2.00  0.00  0.00
E_2g   2.00 -1.00 -1.00  2.00  0.00  0.00  2.00 -1.00 -1.00  2.00  0.00  0.00
A_1u   1.00  1.00  1.00  1.00  1.00  1.00 -1.00 -1.00 -1.00 -1.00 -1.00 -1.00
A_2u   1.00  1.00  1.00  1.00 -1.00 -1.00 -1.00 -1.00 -1.00 -1.00  1.00  1.00
B_1u   1.00 -1.00  1.00 -1.00  1.00 -1.00 -1.00  1.00 -1.00  1.00 -1.00  1.00
B_2u   1.00 -1.00  1.00 -1.00 -1.00  1.00 -1.00  1.00 -1.00  1.00  1.00 -1.00
E_1u   2.00  1.00 -1.00 -2.00  0.00  0.00 -2.00 -1.00  1.00  2.00  0.00  0.00
E_2u   2.00 -1.00 -1.00  2.00  0.00  0.00 -2.00  1.00  1.00 -2.00  0.00  0.00

     the symmetry operations in each class and the name of the first element:

     E        1
          identity                                               
     2C6      5    6
           60 deg rotation - cryst. axis [0,0,1]                 
     2C3      7    8
          120 deg rotation - cryst. axis [0,0,1]                 
     C2       2
          180 deg rotation - cart. axis [0,0,1]                  
     3C2'     4   12   11
          180 deg rotation - cart. axis [1,0,0]                  
     3C2''    3    9   10
          180 deg rotation - cart. axis [0,1,0]                  
     i       13
          inversion                                              
     2S3     17   18
          inv.  60 deg rotation - cryst. axis [0,0,1]            
     2S6     19   20
          inv. 120 deg rotation - cryst. axis [0,0,1]            
     s_h     14
          inv. 180 deg rotation - cart. axis [0,0,1]             
     3s_d    16   24   23
          inv. 180 deg rotation - cart. axis [1,0,0]             
     3s_v    15   21   22
          inv. 180 deg rotation - cart. axis [0,1,0]             

   Cartesian axes

     site n.     atom                  positions (alat units)
         1           Zn  tau(   1) = (  -0.0000000   0.5773503   0.4475000  )
         2           Zn  tau(   2) = (   0.5000000   0.2886751   1.3425000  )

   Crystallographic axes

     site n.     atom                  positions (cryst. coord.)
         1           Zn  tau(   1) = (  0.3333333  0.6666667  0.2500000  )
         2           Zn  tau(   2) = (  0.6666667  0.3333333  0.7500000  )

     number of k points=    96  Marzari-Vanderbilt smearing, width (Ry)=  0.0005
                       cart. coord. in units 2pi/alat
        k(    1) = (   0.0000000   0.0000000   0.0000000), wk =   0.0007289
        k(    2) = (   0.0000000   0.0000000   0.0798085), wk =   0.0014577
        k(    3) = (   0.0000000   0.0000000   0.1596169), wk =   0.0014577
        k(    4) = (   0.0000000   0.0000000   0.2394254), wk =   0.0014577
        k(    5) = (   0.0000000   0.0824786   0.0000000), wk =   0.0043732
        k(    6) = (   0.0000000   0.0824786   0.0798085), wk =   0.0087464
        k(    7) = (   0.0000000   0.0824786   0.1596169), wk =   0.0087464
        k(    8) = (   0.0000000   0.0824786   0.2394254), wk =   0.0087464
        k(    9) = (   0.0000000   0.1649572   0.0000000), wk =   0.0043732
        k(   10) = (   0.0000000   0.1649572   0.0798085), wk =   0.0087464
        k(   11) = (   0.0000000   0.1649572   0.1596169), wk =   0.0087464
        k(   12) = (   0.0000000   0.1649572   0.2394254), wk =   0.0087464
        k(   13) = (   0.0000000   0.2474358   0.0000000), wk =   0.0043732
        k(   14) = (   0.0000000   0.2474358   0.0798085), wk =   0.0087464
        k(   15) = (   0.0000000   0.2474358   0.1596169), wk =   0.0087464
        k(   16) = (   0.0000000   0.2474358   0.2394254), wk =   0.0087464
        k(   17) = (   0.0000000   0.3299144   0.0000000), wk =   0.0043732
        k(   18) = (   0.0000000   0.3299144   0.0798085), wk =   0.0087464
        k(   19) = (   0.0000000   0.3299144   0.1596169), wk =   0.0087464
        k(   20) = (   0.0000000   0.3299144   0.2394254), wk =   0.0087464
        k(   21) = (   0.0000000   0.4123930   0.0000000), wk =   0.0043732
        k(   22) = (   0.0000000   0.4123930   0.0798085), wk =   0.0087464
        k(   23) = (   0.0000000   0.4123930   0.1596169), wk =   0.0087464
        k(   24) = (   0.0000000   0.4123930   0.2394254), wk =   0.0087464
        k(   25) = (   0.0000000   0.4948717   0.0000000), wk =   0.0043732
        k(   26) = (   0.0000000   0.4948717   0.0798085), wk =   0.0087464
        k(   27) = (   0.0000000   0.4948717   0.1596169), wk =   0.0087464
        k(   28) = (   0.0000000   0.4948717   0.2394254), wk =   0.0087464
        k(   29) = (   0.0000000  -0.5773503   0.0000000), wk =   0.0021866
        k(   30) = (   0.0000000  -0.5773503   0.0798085), wk =   0.0043732
        k(   31) = (   0.0000000  -0.5773503   0.1596169), wk =   0.0043732
        k(   32) = (   0.0000000  -0.5773503   0.2394254), wk =   0.0043732
        k(   33) = (   0.0714286   0.1237179   0.0000000), wk =   0.0043732
        k(   34) = (   0.0714286   0.1237179   0.0798085), wk =   0.0087464
        k(   35) = (   0.0714286   0.1237179   0.1596169), wk =   0.0087464
        k(   36) = (   0.0714286   0.1237179   0.2394254), wk =   0.0087464
        k(   37) = (   0.0714286   0.2061965   0.0000000), wk =   0.0087464
        k(   38) = (   0.0714286   0.2061965   0.0798085), wk =   0.0174927
        k(   39) = (   0.0714286   0.2061965   0.1596169), wk =   0.0174927
        k(   40) = (   0.0714286   0.2061965   0.2394254), wk =   0.0174927
        k(   41) = (   0.0714286   0.2886751   0.0000000), wk =   0.0087464
        k(   42) = (   0.0714286   0.2886751   0.0798085), wk =   0.0174927
        k(   43) = (   0.0714286   0.2886751   0.1596169), wk =   0.0174927
        k(   44) = (   0.0714286   0.2886751   0.2394254), wk =   0.0174927
        k(   45) = (   0.0714286   0.3711537   0.0000000), wk =   0.0087464
        k(   46) = (   0.0714286   0.3711537   0.0798085), wk =   0.0174927
        k(   47) = (   0.0714286   0.3711537   0.1596169), wk =   0.0174927
        k(   48) = (   0.0714286   0.3711537   0.2394254), wk =   0.0174927
        k(   49) = (   0.0714286   0.4536324   0.0000000), wk =   0.0087464
        k(   50) = (   0.0714286   0.4536324   0.0798085), wk =   0.0174927
        k(   51) = (   0.0714286   0.4536324   0.1596169), wk =   0.0174927
        k(   52) = (   0.0714286   0.4536324   0.2394254), wk =   0.0174927
        k(   53) = (   0.0714286   0.5361110   0.0000000), wk =   0.0087464
        k(   54) = (   0.0714286   0.5361110   0.0798085), wk =   0.0174927
        k(   55) = (   0.0714286   0.5361110   0.1596169), wk =   0.0174927
        k(   56) = (   0.0714286   0.5361110   0.2394254), wk =   0.0174927
        k(   57) = (   0.1428571   0.2474358   0.0000000), wk =   0.0043732
        k(   58) = (   0.1428571   0.2474358   0.0798085), wk =   0.0087464
        k(   59) = (   0.1428571   0.2474358   0.1596169), wk =   0.0087464
        k(   60) = (   0.1428571   0.2474358   0.2394254), wk =   0.0087464
        k(   61) = (   0.1428571   0.3299144   0.0000000), wk =   0.0087464
        k(   62) = (   0.1428571   0.3299144   0.0798085), wk =   0.0174927
        k(   63) = (   0.1428571   0.3299144   0.1596169), wk =   0.0174927
        k(   64) = (   0.1428571   0.3299144   0.2394254), wk =   0.0174927
        k(   65) = (   0.1428571   0.4123930   0.0000000), wk =   0.0087464
        k(   66) = (   0.1428571   0.4123930   0.0798085), wk =   0.0174927
        k(   67) = (   0.1428571   0.4123930   0.1596169), wk =   0.0174927
        k(   68) = (   0.1428571   0.4123930   0.2394254), wk =   0.0174927
        k(   69) = (   0.1428571   0.4948717   0.0000000), wk =   0.0087464
        k(   70) = (   0.1428571   0.4948717   0.0798085), wk =   0.0174927
        k(   71) = (   0.1428571   0.4948717   0.1596169), wk =   0.0174927
        k(   72) = (   0.1428571   0.4948717   0.2394254), wk =   0.0174927
        k(   73) = (   0.1428571   0.5773503   0.0000000), wk =   0.0043732
        k(   74) = (   0.1428571   0.5773503   0.0798085), wk =   0.0087464
        k(   75) = (   0.1428571   0.5773503   0.1596169), wk =   0.0087464
        k(   76) = (   0.1428571   0.5773503   0.2394254), wk =   0.0087464
        k(   77) = (   0.2142857   0.3711537   0.0000000), wk =   0.0043732
        k(   78) = (   0.2142857   0.3711537   0.0798085), wk =   0.0087464
        k(   79) = (   0.2142857   0.3711537   0.1596169), wk =   0.0087464
        k(   80) = (   0.2142857   0.3711537   0.2394254), wk =   0.0087464
        k(   81) = (   0.2142857   0.4536324   0.0000000), wk =   0.0087464
        k(   82) = (   0.2142857   0.4536324   0.0798085), wk =   0.0174927
        k(   83) = (   0.2142857   0.4536324   0.1596169), wk =   0.0174927
        k(   84) = (   0.2142857   0.4536324   0.2394254), wk =   0.0174927
        k(   85) = (   0.2142857   0.5361110   0.0000000), wk =   0.0087464
        k(   86) = (   0.2142857   0.5361110   0.0798085), wk =   0.0174927
        k(   87) = (   0.2142857   0.5361110   0.1596169), wk =   0.0174927
        k(   88) = (   0.2142857   0.5361110   0.2394254), wk =   0.0174927
        k(   89) = (   0.2857143   0.4948717   0.0000000), wk =   0.0043732
        k(   90) = (   0.2857143   0.4948717   0.0798085), wk =   0.0087464
        k(   91) = (   0.2857143   0.4948717   0.1596169), wk =   0.0087464
        k(   92) = (   0.2857143   0.4948717   0.2394254), wk =   0.0087464
        k(   93) = (   0.2857143   0.5773503   0.0000000), wk =   0.0043732
        k(   94) = (   0.2857143   0.5773503   0.0798085), wk =   0.0087464
        k(   95) = (   0.2857143   0.5773503   0.1596169), wk =   0.0087464
        k(   96) = (   0.2857143   0.5773503   0.2394254), wk =   0.0087464

                       cryst. coord.
        k(    1) = (   0.0000000   0.0000000   0.0000000), wk =   0.0007289
        k(    2) = (   0.0000000   0.0000000   0.1428571), wk =   0.0014577
        k(    3) = (   0.0000000   0.0000000   0.2857143), wk =   0.0014577
        k(    4) = (   0.0000000   0.0000000   0.4285714), wk =   0.0014577
        k(    5) = (   0.0000000   0.0714286   0.0000000), wk =   0.0043732
        k(    6) = (   0.0000000   0.0714286   0.1428571), wk =   0.0087464
        k(    7) = (   0.0000000   0.0714286   0.2857143), wk =   0.0087464
        k(    8) = (   0.0000000   0.0714286   0.4285714), wk =   0.0087464
        k(    9) = (   0.0000000   0.1428571   0.0000000), wk =   0.0043732
        k(   10) = (   0.0000000   0.1428571   0.1428571), wk =   0.0087464
        k(   11) = (   0.0000000   0.1428571   0.2857143), wk =   0.0087464
        k(   12) = (   0.0000000   0.1428571   0.4285714), wk =   0.0087464
        k(   13) = (   0.0000000   0.2142857   0.0000000), wk =   0.0043732
        k(   14) = (   0.0000000   0.2142857   0.1428571), wk =   0.0087464
        k(   15) = (   0.0000000   0.2142857   0.2857143), wk =   0.0087464
        k(   16) = (   0.0000000   0.2142857   0.4285714), wk =   0.0087464
        k(   17) = (   0.0000000   0.2857143   0.0000000), wk =   0.0043732
        k(   18) = (   0.0000000   0.2857143   0.1428571), wk =   0.0087464
        k(   19) = (   0.0000000   0.2857143   0.2857143), wk =   0.0087464
        k(   20) = (   0.0000000   0.2857143   0.4285714), wk =   0.0087464
        k(   21) = (   0.0000000   0.3571429   0.0000000), wk =   0.0043732
        k(   22) = (   0.0000000   0.3571429   0.1428571), wk =   0.0087464
        k(   23) = (   0.0000000   0.3571429   0.2857143), wk =   0.0087464
        k(   24) = (   0.0000000   0.3571429   0.4285714), wk =   0.0087464
        k(   25) = (   0.0000000   0.4285714   0.0000000), wk =   0.0043732
        k(   26) = (   0.0000000   0.4285714   0.1428571), wk =   0.0087464
        k(   27) = (   0.0000000   0.4285714   0.2857143), wk =   0.0087464
        k(   28) = (   0.0000000   0.4285714   0.4285714), wk =   0.0087464
        k(   29) = (   0.0000000  -0.5000000   0.0000000), wk =   0.0021866
        k(   30) = (   0.0000000  -0.5000000   0.1428571), wk =   0.0043732
        k(   31) = (   0.0000000  -0.5000000   0.2857143), wk =   0.0043732
        k(   32) = (   0.0000000  -0.5000000   0.4285714), wk =   0.0043732
        k(   33) = (   0.0714286   0.0714286   0.0000000), wk =   0.0043732
        k(   34) = (   0.0714286   0.0714286   0.1428571), wk =   0.0087464
        k(   35) = (   0.0714286   0.0714286   0.2857143), wk =   0.0087464
        k(   36) = (   0.0714286   0.0714286   0.4285714), wk =   0.0087464
        k(   37) = (   0.0714286   0.1428571   0.0000000), wk =   0.0087464
        k(   38) = (   0.0714286   0.1428571   0.1428571), wk =   0.0174927
        k(   39) = (   0.0714286   0.1428571   0.2857143), wk =   0.0174927
        k(   40) = (   0.0714286   0.1428571   0.4285714), wk =   0.0174927
        k(   41) = (   0.0714286   0.2142857   0.0000000), wk =   0.0087464
        k(   42) = (   0.0714286   0.2142857   0.1428571), wk =   0.0174927
        k(   43) = (   0.0714286   0.2142857   0.2857143), wk =   0.0174927
        k(   44) = (   0.0714286   0.2142857   0.4285714), wk =   0.0174927
        k(   45) = (   0.0714286   0.2857143   0.0000000), wk =   0.0087464
        k(   46) = (   0.0714286   0.2857143   0.1428571), wk =   0.0174927
        k(   47) = (   0.0714286   0.2857143   0.2857143), wk =   0.0174927
        k(   48) = (   0.0714286   0.2857143   0.4285714), wk =   0.0174927
        k(   49) = (   0.0714286   0.3571429   0.0000000), wk =   0.0087464
        k(   50) = (   0.0714286   0.3571429   0.1428571), wk =   0.0174927
        k(   51) = (   0.0714286   0.3571429   0.2857143), wk =   0.0174927
        k(   52) = (   0.0714286   0.3571429   0.4285714), wk =   0.0174927
        k(   53) = (   0.0714286   0.4285714   0.0000000), wk =   0.0087464
        k(   54) = (   0.0714286   0.4285714   0.1428571), wk =   0.0174927
        k(   55) = (   0.0714286   0.4285714   0.2857143), wk =   0.0174927
        k(   56) = (   0.0714286   0.4285714   0.4285714), wk =   0.0174927
        k(   57) = (   0.1428571   0.1428571   0.0000000), wk =   0.0043732
        k(   58) = (   0.1428571   0.1428571   0.1428571), wk =   0.0087464
        k(   59) = (   0.1428571   0.1428571   0.2857143), wk =   0.0087464
        k(   60) = (   0.1428571   0.1428571   0.4285714), wk =   0.0087464
        k(   61) = (   0.1428571   0.2142857   0.0000000), wk =   0.0087464
        k(   62) = (   0.1428571   0.2142857   0.1428571), wk =   0.0174927
        k(   63) = (   0.1428571   0.2142857   0.2857143), wk =   0.0174927
        k(   64) = (   0.1428571   0.2142857   0.4285714), wk =   0.0174927
        k(   65) = (   0.1428571   0.2857143   0.0000000), wk =   0.0087464
        k(   66) = (   0.1428571   0.2857143   0.1428571), wk =   0.0174927
        k(   67) = (   0.1428571   0.2857143   0.2857143), wk =   0.0174927
        k(   68) = (   0.1428571   0.2857143   0.4285714), wk =   0.0174927
        k(   69) = (   0.1428571   0.3571429   0.0000000), wk =   0.0087464
        k(   70) = (   0.1428571   0.3571429   0.1428571), wk =   0.0174927
        k(   71) = (   0.1428571   0.3571429   0.2857143), wk =   0.0174927
        k(   72) = (   0.1428571   0.3571429   0.4285714), wk =   0.0174927
        k(   73) = (   0.1428571   0.4285714   0.0000000), wk =   0.0043732
        k(   74) = (   0.1428571   0.4285714   0.1428571), wk =   0.0087464
        k(   75) = (   0.1428571   0.4285714   0.2857143), wk =   0.0087464
        k(   76) = (   0.1428571   0.4285714   0.4285714), wk =   0.0087464
        k(   77) = (   0.2142857   0.2142857   0.0000000), wk =   0.0043732
        k(   78) = (   0.2142857   0.2142857   0.1428571), wk =   0.0087464
        k(   79) = (   0.2142857   0.2142857   0.2857143), wk =   0.0087464
        k(   80) = (   0.2142857   0.2142857   0.4285714), wk =   0.0087464
        k(   81) = (   0.2142857   0.2857143   0.0000000), wk =   0.0087464
        k(   82) = (   0.2142857   0.2857143   0.1428571), wk =   0.0174927
        k(   83) = (   0.2142857   0.2857143   0.2857143), wk =   0.0174927
        k(   84) = (   0.2142857   0.2857143   0.4285714), wk =   0.0174927
        k(   85) = (   0.2142857   0.3571429   0.0000000), wk =   0.0087464
        k(   86) = (   0.2142857   0.3571429   0.1428571), wk =   0.0174927
        k(   87) = (   0.2142857   0.3571429   0.2857143), wk =   0.0174927
        k(   88) = (   0.2142857   0.3571429   0.4285714), wk =   0.0174927
        k(   89) = (   0.2857143   0.2857143   0.0000000), wk =   0.0043732
        k(   90) = (   0.2857143   0.2857143   0.1428571), wk =   0.0087464
        k(   91) = (   0.2857143   0.2857143   0.2857143), wk =   0.0087464
        k(   92) = (   0.2857143   0.2857143   0.4285714), wk =   0.0087464
        k(   93) = (   0.2857143   0.3571429   0.0000000), wk =   0.0043732
        k(   94) = (   0.2857143   0.3571429   0.1428571), wk =   0.0087464
        k(   95) = (   0.2857143   0.3571429   0.2857143), wk =   0.0087464
        k(   96) = (   0.2857143   0.3571429   0.4285714), wk =   0.0087464

     Dense  grid:    16255 G-vectors     FFT dimensions: (  27,  27,  50)

     Dynamical RAM for                 wfc:       0.04 MB

     Dynamical RAM for     wfc (w. buffer):       3.43 MB

     Dynamical RAM for           str. fact:       0.02 MB

     Dynamical RAM for           local pot:       0.00 MB

     Dynamical RAM for          nlocal pot:       0.08 MB

     Dynamical RAM for                qrad:       1.34 MB

     Dynamical RAM for          rho,v,vnew:       0.24 MB

     Dynamical RAM for               rhoin:       0.08 MB

     Dynamical RAM for            rho*nmix:       0.56 MB

     Dynamical RAM for           G-vectors:       0.08 MB

     Dynamical RAM for          h,s,v(r/c):       0.05 MB

     Dynamical RAM for          <psi|beta>:       0.01 MB

     Dynamical RAM for                 psi:       0.07 MB

     Dynamical RAM for                hpsi:       0.07 MB

     Dynamical RAM for                spsi:       0.07 MB

     Dynamical RAM for      wfcinit/wfcrot:       0.08 MB

     Dynamical RAM for           addusdens:       1.68 MB

     Estimated static dynamical RAM per process >       5.44 MB

     Estimated max dynamical RAM per process >       7.69 MB

     Estimated total dynamical RAM >     207.33 MB

     Check: negative core charge=   -0.000003
     Generating pointlists ...
     new r_m :   0.4125 (alat units)  2.1038 (a.u.) for type    1

     The initial density is read from file :
     ./out/Zn.save/charge-density


     starting charge      24.1348, renormalised to      24.0000

     negative rho (up, down):  3.153E-01 3.153E-01
     Starting wfcs from file
     Checking if some PAW data can be deallocated... 

     total cpu time spent up to now is        0.6 secs

     Self-consistent Calculation

     iteration #  1     ecut=    70.00 Ry     beta= 0.70
     Davidson diagonalization with overlap

---- Real-time Memory Report at c_bands before calling an iterative solver
            59 MiB given to the printing process from OS
             0 MiB allocation reported by mallinfo(arena+hblkhd)
        149580 MiB available memory on the node where the printing process lives
------------------
     ethr =  1.00E-05,  avg # of iterations =  6.8

     negative rho (up, down):  2.821E-03 2.821E-03

     total cpu time spent up to now is        2.2 secs

     total energy              =    -487.31566266 Ry
     estimated scf accuracy    <       0.11905841 Ry

     total magnetization       =     0.00 Bohr mag/cell
     absolute magnetization    =     0.00 Bohr mag/cell

     iteration #  2     ecut=    70.00 Ry     beta= 0.70
     Davidson diagonalization with overlap

---- Real-time Memory Report at c_bands before calling an iterative solver
            82 MiB given to the printing process from OS
             0 MiB allocation reported by mallinfo(arena+hblkhd)
        149270 MiB available memory on the node where the printing process lives
------------------
     ethr =  4.96E-04,  avg # of iterations =  2.0

     total cpu time spent up to now is        3.0 secs

     total energy              =    -487.44137662 Ry
     estimated scf accuracy    <       0.01157875 Ry

     total magnetization       =     0.00 Bohr mag/cell
     absolute magnetization    =     0.00 Bohr mag/cell

     iteration #  3     ecut=    70.00 Ry     beta= 0.70
     Davidson diagonalization with overlap

---- Real-time Memory Report at c_bands before calling an iterative solver
            82 MiB given to the printing process from OS
             0 MiB allocation reported by mallinfo(arena+hblkhd)
        149251 MiB available memory on the node where the printing process lives
------------------
     ethr =  4.82E-05,  avg # of iterations =  2.1

     total cpu time spent up to now is        4.0 secs

     total energy              =    -487.44652219 Ry
     estimated scf accuracy    <       0.00044090 Ry

     total magnetization       =     0.00 Bohr mag/cell
     absolute magnetization    =     0.00 Bohr mag/cell

     iteration #  4     ecut=    70.00 Ry     beta= 0.70
     Davidson diagonalization with overlap

---- Real-time Memory Report at c_bands before calling an iterative solver
            83 MiB given to the printing process from OS
             0 MiB allocation reported by mallinfo(arena+hblkhd)
        149243 MiB available memory on the node where the printing process lives
------------------
     ethr =  1.84E-06,  avg # of iterations =  3.8

     total cpu time spent up to now is        5.0 secs

     total energy              =    -487.44671806 Ry
     estimated scf accuracy    <       0.00018564 Ry

     total magnetization       =     0.00 Bohr mag/cell
     absolute magnetization    =     0.00 Bohr mag/cell

     iteration #  5     ecut=    70.00 Ry     beta= 0.70
     Davidson diagonalization with overlap

---- Real-time Memory Report at c_bands before calling an iterative solver
            83 MiB given to the printing process from OS
             0 MiB allocation reported by mallinfo(arena+hblkhd)
        149234 MiB available memory on the node where the printing process lives
------------------
     ethr =  7.74E-07,  avg # of iterations =  1.7

     total cpu time spent up to now is        5.8 secs

     total energy              =    -487.44673600 Ry
     estimated scf accuracy    <       0.00002243 Ry

     total magnetization       =     0.00 Bohr mag/cell
     absolute magnetization    =     0.00 Bohr mag/cell

     iteration #  6     ecut=    70.00 Ry     beta= 0.70
     Davidson diagonalization with overlap

---- Real-time Memory Report at c_bands before calling an iterative solver
            84 MiB given to the printing process from OS
             0 MiB allocation reported by mallinfo(arena+hblkhd)
        149228 MiB available memory on the node where the printing process lives
------------------
     ethr =  9.35E-08,  avg # of iterations =  2.0
 
     Magnetic moment per site  (integrated on atomic sphere of radius R)
     atom   1 (R=0.413)  charge= 10.7482  magn=  0.0000
     atom   2 (R=0.413)  charge= 10.7482  magn=  0.0000

     total cpu time spent up to now is        6.7 secs

     End of self-consistent calculation

 ------ SPIN UP ------------


          k = 0.0000 0.0000 0.0000 (  2005 PWs)   bands (ev):

     0.6786   2.5946   3.2956   3.4807   3.4807   3.5402   3.5402   3.8107
     3.8107   4.0592   4.0592   7.6078   8.4684  25.8667  27.6648  27.6648

     occupation numbers 
     1.0000   1.0000   1.0000   1.0000   1.0000   1.0000   1.0000   1.0000
     1.0000   1.0000   1.0000   1.0000   1.0000   0.0000   0.0000   0.0000

          k = 0.0000 0.0000 0.0798 (  2029 PWs)   bands (ev):

     0.8103   2.5857   3.2941   3.4770   3.4770   3.5327   3.5327   3.8297
     3.8297   4.0515   4.0515   6.2091  10.1467  23.7581  27.7949  27.7949

     occupation numbers 
     1.0000   1.0000   1.0000   1.0000   1.0000   1.0000   1.0000   1.0000
     1.0000   1.0000   1.0000   1.0000   1.0000   0.0000   0.0000   0.0000

          k = 0.0000 0.0000 0.1596 (  2034 PWs)   bands (ev):

     1.1927   2.5293   3.3045   3.4724   3.4724   3.5136   3.5136   3.8771
     3.8771   4.0279   4.0279   4.7797  12.4403  20.7159  28.1708  28.1708

     occupation numbers 
     1.0000   1.0000   1.0000   1.0000   1.0000   1.0000   1.0000   1.0000
     1.0000   1.0000   1.0000   1.0000   0.0000   0.0000   0.0000   0.0000

          k = 0.0000 0.0000 0.2394 (  2052 PWs)   bands (ev):

     1.7624   2.2961   3.3956   3.4766   3.4766   3.4919   3.4919   3.7978
     3.9348   3.9348   3.9880   3.9880  14.9877  17.7577  28.7312  28.7312

     occupation numbers 
     1.0000   1.0000   1.0000   1.0000   1.0000   1.0000   1.0000   1.0000
     1.0000   1.0000   1.0000   1.0000   0.0000   0.0000   0.0000   0.0000

          k = 0.0000 0.0825 0.0000 (  2021 PWs)   bands (ev):

     0.8253   2.6541   3.3056   3.4710   3.5144   3.5260   3.5718   3.7809
     3.7963   3.9797   4.0621   7.8417   8.5480  25.3252  26.0163  26.4534

     occupation numbers 
     1.0000   1.0000   1.0000   1.0000   1.0000   1.0000   1.0000   1.0000
     1.0000   1.0000   1.0000   1.0000   1.0000   0.0000   0.0000   0.0000

          k = 0.0000 0.0825 0.0798 (  2024 PWs)   bands (ev):

     0.9561   2.6489   3.3041   3.4634   3.5099   3.5165   3.5640   3.8053
     3.8170   3.9647   4.0537   6.3919  10.2820  23.8802  25.4769  26.5909

     occupation numbers 
     1.0000   1.0000   1.0000   1.0000   1.0000   1.0000   1.0000   1.0000
     1.0000   1.0000   1.0000   1.0000   1.0000   0.0000   0.0000   0.0000

          k = 0.0000 0.0825 0.1596 (  2033 PWs)   bands (ev):

     1.3352   2.6065   3.3096   3.4537   3.4928   3.5041   3.5446   3.8593
     3.8677   3.9108   4.0280   4.9861  12.5784  20.8459  25.8639  26.9985

     occupation numbers 
     1.0000   1.0000   1.0000   1.0000   1.0000   1.0000   1.0000   1.0000
     1.0000   1.0000   1.0000   1.0000   0.0000   0.0000   0.0000   0.0000

          k = 0.0000 0.0825 0.2394 (  2040 PWs)   bands (ev):

     1.8957   2.4033   3.3720   3.4602   3.4664   3.5076   3.5228   3.6693
     3.9288   3.9647   3.9851   4.1676  15.1243  17.8917  26.5065  27.3894

     occupation numbers 
     1.0000   1.0000   1.0000   1.0000   1.0000   1.0000   1.0000   1.0000
     1.0000   1.0000   1.0000   1.0000   0.0000   0.0000   0.0000   0.0000

          k = 0.0000 0.1650 0.0000 (  2018 PWs)   bands (ev):

     1.2558   2.8041   3.3140   3.4532   3.5211   3.6101   3.6612   3.6629
     3.7584   3.8330   4.0678   8.4833   8.8033  22.0496  24.8443  26.3743

     occupation numbers 
     1.0000   1.0000   1.0000   1.0000   1.0000   1.0000   1.0000   1.0000
     1.0000   1.0000   1.0000   1.0000   1.0000   0.0000   0.0000   0.0000

          k = 0.0000 0.1650 0.0798 (  2024 PWs)   bands (ev):

     1.3825   2.8083   3.3170   3.4351   3.4939   3.6015   3.6520   3.6901
     3.7859   3.8332   4.0575   6.8750  10.6942  22.1696  24.2868  24.9904

     occupation numbers 
     1.0000   1.0000   1.0000   1.0000   1.0000   1.0000   1.0000   1.0000
     1.0000   1.0000   1.0000   1.0000   1.0000   0.0000   0.0000   0.0000

          k = 0.0000 0.1650 0.1596 (  2032 PWs)   bands (ev):

     1.7462   2.8014   3.3193   3.4051   3.4469   3.5911   3.6317   3.6720
     3.8462   3.8888   4.0270   5.4517  12.9923  21.1963  22.6441  25.3320

     occupation numbers 
     1.0000   1.0000   1.0000   1.0000   1.0000   1.0000   1.0000   1.0000
     1.0000   1.0000   1.0000   1.0000   0.0000   0.0000   0.0000   0.0000

          k = 0.0000 0.1650 0.2394 (  2037 PWs)   bands (ev):

     2.2658   2.6812   3.3196   3.3682   3.4435   3.5474   3.5935   3.6092
     3.9148   3.9779   4.0596   4.4907  15.5306  18.2848  23.2727  24.1807

     occupation numbers 
     1.0000   1.0000   1.0000   1.0000   1.0000   1.0000   1.0000   1.0000
     1.0000   1.0000   1.0000   1.0000   0.0000   0.0000   0.0000   0.0000

          k = 0.0000 0.2474 0.0000 (  2034 PWs)   bands (ev):

     1.9194   2.9409   3.3368   3.4234   3.4544   3.6369   3.7080   3.7281
     3.7519   3.7932   4.0717   9.2781   9.4325  18.8951  23.4170  24.8553

     occupation numbers 
     1.0000   1.0000   1.0000   1.0000   1.0000   1.0000   1.0000   1.0000
     1.0000   1.0000   1.0000   1.0000   1.0000   0.0000   0.0000   0.0000

          k = 0.0000 0.2474 0.0798 (  2023 PWs)   bands (ev):

     2.0296   2.9532   3.3374   3.3918   3.4487   3.6284   3.6971   3.7712
     3.7765   3.7957   4.0598   7.5871  11.3926  19.0253  23.5693  23.6069

     occupation numbers 
     1.0000   1.0000   1.0000   1.0000   1.0000   1.0000   1.0000   1.0000
     1.0000   1.0000   1.0000   1.0000   0.0000   0.0000   0.0000   0.0000

          k = 0.0000 0.2474 0.1596 (  2025 PWs)   bands (ev):

     2.3305   2.9775   3.3174   3.3214   3.4539   3.6036   3.6933   3.7575
     3.8453   3.9291   4.0255   6.1172  13.6771  19.3962  21.9160  22.2324

     occupation numbers 
     1.0000   1.0000   1.0000   1.0000   1.0000   1.0000   1.0000   1.0000
     1.0000   1.0000   1.0000   1.0000   0.0000   0.0000   0.0000   0.0000

          k = 0.0000 0.2474 0.2394 (  2031 PWs)   bands (ev):

     2.7034   2.9414   3.2546   3.2732   3.4980   3.5575   3.7060   3.7304
     3.9100   3.9732   4.2769   4.9915  16.1889  18.8404  20.2414  21.0792

     occupation numbers 
     1.0000   1.0000   1.0000   1.0000   1.0000   1.0000   1.0000   1.0000
     1.0000   1.0000   1.0000   1.0000   0.0000   0.0000   0.0000   0.0000

          k = 0.0000 0.3299 0.0000 (  2044 PWs)   bands (ev):

     2.5792   2.9428   3.2528   3.4333   3.5221   3.6401   3.6560   3.9142
     3.9444   3.9885   4.0724  10.0249  10.6242  15.9584  21.9646  22.2451

     occupation numbers 
     1.0000   1.0000   1.0000   1.0000   1.0000   1.0000   1.0000   1.0000
     1.0000   1.0000   1.0000   1.0000   1.0000   0.0000   0.0000   0.0000

          k = 0.0000 0.3299 0.0798 (  2035 PWs)   bands (ev):

     2.6238   2.9553   3.2556   3.3840   3.4885   3.6706   3.7822   3.9180
     3.9347   4.0056   4.0619   8.5292  12.3700  16.0907  20.7262  22.4023

     occupation numbers 
     1.0000   1.0000   1.0000   1.0000   1.0000   1.0000   1.0000   1.0000
     1.0000   1.0000   1.0000   1.0000   0.0000   0.0000   0.0000   0.0000

          k = 0.0000 0.3299 0.1596 (  2032 PWs)   bands (ev):

     2.7311   2.9794   3.2321   3.2654   3.5792   3.7118   3.8520   3.8925
     3.9419   4.0350   4.2632   7.0342  14.6049  16.4817  19.3646  22.6130

     occupation numbers 
     1.0000   1.0000   1.0000   1.0000   1.0000   1.0000   1.0000   1.0000
     1.0000   1.0000   1.0000   1.0000   0.0000   0.0000   0.0000   0.0000

          k = 0.0000 0.3299 0.2394 (  2038 PWs)   bands (ev):

     2.8556   2.9575   3.1847   3.2101   3.6948   3.7714   3.7924   3.8367
     3.9686   4.0014   4.8813   5.8110  16.9152  17.0924  18.3765  19.9538

     occupation numbers 
     1.0000   1.0000   1.0000   1.0000   1.0000   1.0000   1.0000   1.0000
     1.0000   1.0000   1.0000   1.0000   0.0000   0.0000   0.0000   0.0000

          k = 0.0000 0.4124 0.0000 (  2038 PWs)   bands (ev):

     2.8018   2.8904   3.1005   3.5259   3.5659   3.6115   3.7420   4.0635
     4.0707   4.0869   4.9732  11.0229  12.0179  13.3369  19.2811  20.2827

     occupation numbers 
     1.0000   1.0000   1.0000   1.0000   1.0000   1.0000   1.0000   1.0000
     1.0000   1.0000   1.0000   1.0000   0.0000   0.0000   0.0000   0.0000

          k = 0.0000 0.4124 0.0798 (  2038 PWs)   bands (ev):

     2.7917   2.8868   3.1340   3.3961   3.5928   3.6313   3.8757   4.0320
     4.0664   4.1003   5.0636   9.7068  13.3235  13.6908  18.1200  21.6038

     occupation numbers 
     1.0000   1.0000   1.0000   1.0000   1.0000   1.0000   1.0000   1.0000
     1.0000   1.0000   1.0000   1.0000   0.0000   0.0000   0.0000   0.0000

          k = 0.0000 0.4124 0.1596 (  2034 PWs)   bands (ev):

     2.7875   2.8975   3.1547   3.2248   3.6876   3.7134   3.9595   3.9873
     4.0743   4.1030   5.3969   8.2323  13.8093  15.4763  17.0651  22.0073

     occupation numbers 
     1.0000   1.0000   1.0000   1.0000   1.0000   1.0000   1.0000   1.0000
     1.0000   1.0000   1.0000   1.0000   0.0000   0.0000   0.0000   0.0000

          k = 0.0000 0.4124 0.2394 (  2036 PWs)   bands (ev):

     2.8239   2.8819   3.1294   3.1420   3.7710   3.8628   3.8673   3.9721
     4.0853   4.0962   6.0453   7.0001  14.4508  15.2838  18.5193  20.9609

     occupation numbers 
     1.0000   1.0000   1.0000   1.0000   1.0000   1.0000   1.0000   1.0000
     1.0000   1.0000   1.0000   1.0000   0.0000   0.0000   0.0000   0.0000

          k = 0.0000 0.4949 0.0000 (  2040 PWs)   bands (ev):

     2.7847   2.8664   3.0083   3.5156   3.5817   3.5969   3.8750   4.0685
     4.1669   4.1910   6.5082  10.5409  12.7790  13.5418  16.8940  18.0995

     occupation numbers 
     1.0000   1.0000   1.0000   1.0000   1.0000   1.0000   1.0000   1.0000
     1.0000   1.0000   1.0000   1.0000   0.0000   0.0000   0.0000   0.0000

          k = 0.0000 0.4949 0.0798 (  2049 PWs)   bands (ev):

     2.7867   2.8232   3.0622   3.3859   3.6038   3.6498   3.9714   4.0406
     4.1692   4.1915   6.6160  10.3903  11.7979  14.5888  16.2539  19.3861

     occupation numbers 
     1.0000   1.0000   1.0000   1.0000   1.0000   1.0000   1.0000   1.0000
     1.0000   1.0000   1.0000   1.0000   0.0000   0.0000   0.0000   0.0000

          k = 0.0000 0.4949 0.1596 (  2036 PWs)   bands (ev):

     2.7617   2.8275   3.0991   3.2013   3.6666   3.7848   3.9669   4.0728
     4.1741   4.1905   6.9598   9.5263  11.6177  13.9915  17.6352  21.1954

     occupation numbers 
     1.0000   1.0000   1.0000   1.0000   1.0000   1.0000   1.0000   1.0000
     1.0000   1.0000   1.0000   1.0000   0.0000   0.0000   0.0000   0.0000

          k = 0.0000 0.4949 0.2394 (  2042 PWs)   bands (ev):

     2.7769   2.8206   3.0883   3.0962   3.7595   3.8663   3.9503   4.0648
     4.1803   4.1864   7.5718   8.4508  12.1269  12.9547  19.8462  21.7664

     occupation numbers 
     1.0000   1.0000   1.0000   1.0000   1.0000   1.0000   1.0000   1.0000
     1.0000   1.0000   1.0000   1.0000   0.0000   0.0000   0.0000   0.0000

          k = 0.0000-0.5774 0.0000 (  2046 PWs)   bands (ev):

     2.7666   2.8569   2.9775   3.4977   3.5713   3.6224   3.9182   4.0676
     4.2037   4.2294   8.1117   8.7278  13.9260  14.5981  15.3354  16.8232

     occupation numbers 
     1.0000   1.0000   1.0000   1.0000   1.0000   1.0000   1.0000   1.0000
     1.0000   1.0000   1.0000   1.0000   0.0000   0.0000   0.0000   0.0000

          k = 0.0000-0.5774 0.0798 (  2038 PWs)   bands (ev):

     2.7780   2.7966   3.0383   3.3786   3.5941   3.6696   4.0068   4.0405
     4.2058   4.2284   8.2281   8.7934  13.1893  13.2883  16.9248  17.7839

     occupation numbers 
     1.0000   1.0000   1.0000   1.0000   1.0000   1.0000   1.0000   1.0000
     1.0000   1.0000   1.0000   1.0000   0.0000   0.0000   0.0000   0.0000

          k = 0.0000-0.5774 0.1596 (  2046 PWs)   bands (ev):

     2.7480   2.8012   3.0794   3.1927   3.6588   3.8065   3.9668   4.1036
     4.2104   4.2253   8.5613   8.9776  12.0071  12.0315  19.0324  19.6025

     occupation numbers 
     1.0000   1.0000   1.0000   1.0000   1.0000   1.0000   1.0000   1.0000
     1.0000   1.0000   1.0000   1.0000   0.0000   0.0000   0.0000   0.0000

          k = 0.0000-0.5774 0.2394 (  2024 PWs)   bands (ev):

     2.7581   2.7982   3.0719   3.0817   3.7545   3.8643   3.9767   4.0944
     4.2157   4.2209   9.0004   9.1674  11.1857  11.1893  21.0897  21.3761

     occupation numbers 
     1.0000   1.0000   1.0000   1.0000   1.0000   1.0000   1.0000   1.0000
     1.0000   1.0000   1.0000   1.0000   0.0000   0.0000   0.0000   0.0000

          k = 0.0714 0.1237 0.0000 (  2013 PWs)   bands (ev):

     1.1144   2.7606   3.3126   3.4640   3.4977   3.5834   3.6397   3.7310
     3.7366   3.8809   4.0635   8.2776   8.7157  23.6306  23.8651  26.2851

     occupation numbers 
     1.0000   1.0000   1.0000   1.0000   1.0000   1.0000   1.0000   1.0000
     1.0000   1.0000   1.0000   1.0000   1.0000   0.0000   0.0000   0.0000

          k = 0.0714 0.1237 0.0798 (  2022 PWs)   bands (ev):

     1.2428   2.7622   3.3143   3.4445   3.4840   3.5761   3.6305   3.7444
     3.7742   3.8716   4.0543   6.7218  10.5561  23.7665  23.8236  24.3495

     occupation numbers 
     1.0000   1.0000   1.0000   1.0000   1.0000   1.0000   1.0000   1.0000
     1.0000   1.0000   1.0000   1.0000   1.0000   0.0000   0.0000   0.0000

          k = 0.0714 0.1237 0.1596 (  2037 PWs)   bands (ev):

     1.6129   2.7448   3.3174   3.4185   3.4485   3.5668   3.6104   3.7210
     3.8663   3.8749   4.0275   5.3089  12.8546  21.0952  24.1719  24.4432

     occupation numbers 
     1.0000   1.0000   1.0000   1.0000   1.0000   1.0000   1.0000   1.0000
     1.0000   1.0000   1.0000   1.0000   0.0000   0.0000   0.0000   0.0000

          k = 0.0714 0.1237 0.2394 (  2039 PWs)   bands (ev):

     2.1494   2.5986   3.3347   3.3971   3.4368   3.5478   3.5892   3.5896
     3.9230   3.9722   4.0310   4.3927  15.3960  18.1560  24.8397  25.0846

     occupation numbers 
     1.0000   1.0000   1.0000   1.0000   1.0000   1.0000   1.0000   1.0000
     1.0000   1.0000   1.0000   1.0000   0.0000   0.0000   0.0000   0.0000

          k = 0.0714 0.2062 0.0000 (  2019 PWs)   bands (ev):

     1.6681   2.9205   3.2977   3.4417   3.5226   3.5477   3.6750   3.7118
     3.7763   3.8040   4.0633   9.0667   9.0828  20.5287  22.3461  26.3503

     occupation numbers 
     1.0000   1.0000   1.0000   1.0000   1.0000   1.0000   1.0000   1.0000
     1.0000   1.0000   1.0000   1.0000   1.0000   0.0000   0.0000   0.0000

          k = 0.0714 0.2062 0.0798 (  2028 PWs)   bands (ev):

     1.7877   2.9317   3.3058   3.4135   3.4649   3.5762   3.6890   3.7299
     3.7698   3.8265   4.0544   7.3115  11.1132  20.6577  22.4714  24.6428

     occupation numbers 
     1.0000   1.0000   1.0000   1.0000   1.0000   1.0000   1.0000   1.0000
     1.0000   1.0000   1.0000   1.0000   0.6635   0.0000   0.0000   0.0000

          k = 0.0714 0.2062 0.1596 (  2034 PWs)   bands (ev):

     2.1244   2.9513   3.3238   3.3492   3.3958   3.5622   3.6699   3.7406
     3.8549   3.8917   4.0322   5.8591  13.4054  20.9503  21.7147  22.9593

     occupation numbers 
     1.0000   1.0000   1.0000   1.0000   1.0000   1.0000   1.0000   1.0000
     1.0000   1.0000   1.0000   1.0000   0.0000   0.0000   0.0000   0.0000

          k = 0.0714 0.2062 0.2394 (  2038 PWs)   bands (ev):

     2.5780   2.8953   3.2829   3.2932   3.4064   3.4850   3.6839   3.7115
     3.9190   3.9677   4.1851   4.7909  15.9316  18.6604  21.7806  22.6868

     occupation numbers 
     1.0000   1.0000   1.0000   1.0000   1.0000   1.0000   1.0000   1.0000
     1.0000   1.0000   1.0000   1.0000   0.0000   0.0000   0.0000   0.0000

          k = 0.0714 0.2887 0.0000 (  2029 PWs)   bands (ev):

     2.3745   2.9977   3.3409   3.3517   3.4247   3.6117   3.6668   3.7328
     3.8712   4.0020   4.0619   9.7010  10.1302  17.4871  21.1565  23.4836

     occupation numbers 
     1.0000   1.0000   1.0000   1.0000   1.0000   1.0000   1.0000   1.0000
     1.0000   1.0000   1.0000   1.0000   1.0000   0.0000   0.0000   0.0000

          k = 0.0714 0.2887 0.0798 (  2034 PWs)   bands (ev):

     2.4564   3.0129   3.3122   3.3740   3.3884   3.6365   3.6962   3.7463
     3.8909   3.9767   4.0755   8.1340  11.9564  17.6194  21.2933  22.2296

     occupation numbers 
     1.0000   1.0000   1.0000   1.0000   1.0000   1.0000   1.0000   1.0000
     1.0000   1.0000   1.0000   1.0000   0.0000   0.0000   0.0000   0.0000

          k = 0.0714 0.2887 0.1596 (  2028 PWs)   bands (ev):

     2.6608   3.0483   3.2474   3.3145   3.4416   3.6119   3.7174   3.8847
     3.8966   3.9757   4.1556   6.6476  14.2196  18.0075  20.8545  21.6384

     occupation numbers 
     1.0000   1.0000   1.0000   1.0000   1.0000   1.0000   1.0000   1.0000
     1.0000   1.0000   1.0000   1.0000   0.0000   0.0000   0.0000   0.0000

          k = 0.0714 0.2887 0.2394 (  2037 PWs)   bands (ev):

     2.8815   3.0312   3.2067   3.2557   3.5062   3.5651   3.7578   3.8238
     3.9621   3.9930   4.6065   5.4584  16.6884  18.5134  19.6670  19.7249

     occupation numbers 
     1.0000   1.0000   1.0000   1.0000   1.0000   1.0000   1.0000   1.0000
     1.0000   1.0000   1.0000   1.0000   0.0000   0.0000   0.0000   0.0000

          k = 0.0714 0.3712 0.0000 (  2042 PWs)   bands (ev):

     2.8168   2.9520   3.1704   3.4839   3.5566   3.5753   3.6607   3.8959
     4.0244   4.0587   4.5760  10.6074  11.4196  14.6869  20.2244  20.6914

     occupation numbers 
     1.0000   1.0000   1.0000   1.0000   1.0000   1.0000   1.0000   1.0000
     1.0000   1.0000   1.0000   1.0000   0.0000   0.0000   0.0000   0.0000

          k = 0.0714 0.3712 0.0798 (  2031 PWs)   bands (ev):

     2.8165   2.9620   3.1961   3.3738   3.5206   3.6568   3.7830   3.8885
     4.0218   4.0454   4.6427   9.2047  13.0592  14.8200  19.4760  20.3690

     occupation numbers 
     1.0000   1.0000   1.0000   1.0000   1.0000   1.0000   1.0000   1.0000
     1.0000   1.0000   1.0000   1.0000   0.0000   0.0000   0.0000   0.0000

          k = 0.0714 0.3712 0.1596 (  2032 PWs)   bands (ev):

     2.8359   2.9844   3.1976   3.2435   3.5950   3.7023   3.8513   3.9467
     3.9697   4.0657   4.9250   7.7168  15.1592  15.2752  18.1624  20.7827

     occupation numbers 
     1.0000   1.0000   1.0000   1.0000   1.0000   1.0000   1.0000   1.0000
     1.0000   1.0000   1.0000   1.0000   0.0000   0.0000   0.0000   0.0000

          k = 0.0714 0.3712 0.2394 (  2031 PWs)   bands (ev):

     2.8919   2.9650   3.1593   3.1924   3.7084   3.7567   3.8091   3.8524
     4.0461   4.0758   5.5426   6.4859  15.8444  16.5542  18.1228  20.4758

     occupation numbers 
     1.0000   1.0000   1.0000   1.0000   1.0000   1.0000   1.0000   1.0000
     1.0000   1.0000   1.0000   1.0000   0.0000   0.0000   0.0000   0.0000

          k = 0.0714 0.4536 0.0000 (  2035 PWs)   bands (ev):

     2.8457   2.9197   3.0540   3.5184   3.5698   3.5994   3.7699   4.0551
     4.0722   4.1376   5.8382  11.4271  12.5553  12.8911  18.1420  19.2332

     occupation numbers 
     1.0000   1.0000   1.0000   1.0000   1.0000   1.0000   1.0000   1.0000
     1.0000   1.0000   1.0000   0.0000   0.0000   0.0000   0.0000   0.0000

          k = 0.0714 0.4536 0.0798 (  2037 PWs)   bands (ev):

     2.8398   2.8886   3.1098   3.3829   3.5793   3.6491   3.8862   4.0235
     4.0719   4.1430   5.9427  10.4385  12.3598  14.3477  17.0830  19.7282

     occupation numbers 
     1.0000   1.0000   1.0000   1.0000   1.0000   1.0000   1.0000   1.0000
     1.0000   1.0000   1.0000   1.0000   0.0000   0.0000   0.0000   0.0000

          k = 0.0714 0.4536 0.1596 (  2039 PWs)   bands (ev):

     2.8163   2.8994   3.1468   3.2109   3.6294   3.7647   3.9473   4.0022
     4.0689   4.1536   6.2866   9.0397  12.7058  15.1123  17.1070  20.1587

     occupation numbers 
     1.0000   1.0000   1.0000   1.0000   1.0000   1.0000   1.0000   1.0000
     1.0000   1.0000   1.0000   1.0000   0.0000   0.0000   0.0000   0.0000

          k = 0.0714 0.4536 0.2394 (  2033 PWs)   bands (ev):

     2.8376   2.8893   3.1186   3.1329   3.7289   3.8418   3.8919   3.9818
     4.1134   4.1482   6.9171   7.8430  13.3314  14.1914  19.2337  20.7973

     occupation numbers 
     1.0000   1.0000   1.0000   1.0000   1.0000   1.0000   1.0000   1.0000
     1.0000   1.0000   1.0000   1.0000   0.0000   0.0000   0.0000   0.0000

          k = 0.0714 0.5361 0.0000 (  2042 PWs)   bands (ev):

     2.8099   2.9035   2.9956   3.5008   3.5624   3.6186   3.8671   4.0527
     4.1653   4.1906   7.5303   9.6211  13.5826  14.3683  15.9783  17.3149

     occupation numbers 
     1.0000   1.0000   1.0000   1.0000   1.0000   1.0000   1.0000   1.0000
     1.0000   1.0000   1.0000   1.0000   0.0000   0.0000   0.0000   0.0000

          k = 0.0714 0.5361 0.0798 (  2036 PWs)   bands (ev):

     2.8195   2.8398   3.0663   3.3810   3.5626   3.6817   3.9609   4.0241
     4.1633   4.1905   7.6407   9.6763  12.4883  14.2230  16.5589  18.4904

     occupation numbers 
     1.0000   1.0000   1.0000   1.0000   1.0000   1.0000   1.0000   1.0000
     1.0000   1.0000   1.0000   1.0000   0.0000   0.0000   0.0000   0.0000

          k = 0.0714 0.5361 0.1596 (  2040 PWs)   bands (ev):

     2.7880   2.8490   3.1111   3.2000   3.6149   3.8177   3.9461   4.0733
     4.1525   4.1880   7.9774   9.7055  11.4390  13.0647  18.4981  19.8364

     occupation numbers 
     1.0000   1.0000   1.0000   1.0000   1.0000   1.0000   1.0000   1.0000
     1.0000   1.0000   1.0000   1.0000   0.0000   0.0000   0.0000   0.0000

          k = 0.0714 0.5361 0.2394 (  2038 PWs)   bands (ev):

     2.8010   2.8457   3.0964   3.0993   3.7172   3.8363   3.9731   4.0827
     4.1528   4.1754   8.5382   9.2454  11.3502  12.0283  20.4924  20.6452

     occupation numbers 
     1.0000   1.0000   1.0000   1.0000   1.0000   1.0000   1.0000   1.0000
     1.0000   1.0000   1.0000   1.0000   0.0000   0.0000   0.0000   0.0000

          k = 0.1429 0.2474 0.0000 (  2035 PWs)   bands (ev):

     2.2932   3.0631   3.2426   3.3875   3.4349   3.5517   3.5841   3.7720
     3.8661   4.0181   4.0498   9.5984   9.9621  19.0915  19.4247  25.2099

     occupation numbers 
     1.0000   1.0000   1.0000   1.0000   1.0000   1.0000   1.0000   1.0000
     1.0000   1.0000   1.0000   1.0000   1.0000   0.0000   0.0000   0.0000

          k = 0.1429 0.2474 0.0798 (  2037 PWs)   bands (ev):

     2.3885   3.0806   3.2520   3.3441   3.4598   3.4697   3.7017   3.7415
     3.8978   3.9716   4.0840   8.0042  11.8192  19.2299  19.5510  23.8145

     occupation numbers 
     1.0000   1.0000   1.0000   1.0000   1.0000   1.0000   1.0000   1.0000
     1.0000   1.0000   1.0000   1.0000   0.0000   0.0000   0.0000   0.0000

          k = 0.1429 0.2474 0.1596 (  2028 PWs)   bands (ev):

     2.6371   3.1294   3.2629   3.2824   3.3826   3.4632   3.7171   3.8792
     3.9071   3.9447   4.1657   6.5243  14.0901  19.6425  19.8935  22.3398

     occupation numbers 
     1.0000   1.0000   1.0000   1.0000   1.0000   1.0000   1.0000   1.0000
     1.0000   1.0000   1.0000   1.0000   0.0000   0.0000   0.0000   0.0000

          k = 0.1429 0.2474 0.2394 (  2041 PWs)   bands (ev):

     2.9236   3.1301   3.2090   3.2916   3.3400   3.4109   3.7491   3.8180
     3.9801   3.9863   4.5474   5.3551  16.5834  19.1837  20.3218  20.8484

     occupation numbers 
     1.0000   1.0000   1.0000   1.0000   1.0000   1.0000   1.0000   1.0000
     1.0000   1.0000   1.0000   1.0000   0.0000   0.0000   0.0000   0.0000

          k = 0.1429 0.3299 0.0000 (  2033 PWs)   bands (ev):

     2.8865   3.0820   3.2322   3.3054   3.4603   3.5203   3.6652   3.7127
     4.0179   4.0357   4.5100  10.3993  11.1154  16.3258  18.2469  22.3473

     occupation numbers 
     1.0000   1.0000   1.0000   1.0000   1.0000   1.0000   1.0000   1.0000
     1.0000   1.0000   1.0000   1.0000   0.4231   0.0000   0.0000   0.0000

          k = 0.1429 0.3299 0.0798 (  2033 PWs)   bands (ev):

     2.9054   3.0977   3.2206   3.3081   3.4202   3.5806   3.6939   3.7312
     4.0033   4.0355   4.5652   8.9581  12.8046  16.4605  18.3823  21.0938

     occupation numbers 
     1.0000   1.0000   1.0000   1.0000   1.0000   1.0000   1.0000   1.0000
     1.0000   1.0000   1.0000   1.0000   0.0000   0.0000   0.0000   0.0000

          k = 0.1429 0.3299 0.1596 (  2034 PWs)   bands (ev):

     2.9525   3.1455   3.1617   3.3362   3.4039   3.5672   3.6953   3.9126
     3.9266   4.0667   4.7942   7.4730  15.0236  16.8591  18.7785  19.7249

     occupation numbers 
     1.0000   1.0000   1.0000   1.0000   1.0000   1.0000   1.0000   1.0000
     1.0000   1.0000   1.0000   1.0000   0.0000   0.0000   0.0000   0.0000

          k = 0.1429 0.3299 0.2394 (  2024 PWs)   bands (ev):

     3.0154   3.0875   3.2181   3.2930   3.4561   3.5173   3.7393   3.8253
     4.0455   4.0813   5.3487   6.2578  17.3307  17.4884  18.6854  19.3185

     occupation numbers 
     1.0000   1.0000   1.0000   1.0000   1.0000   1.0000   1.0000   1.0000
     1.0000   1.0000   1.0000   1.0000   0.0000   0.0000   0.0000   0.0000

          k = 0.1429 0.4124 0.0000 (  2031 PWs)   bands (ev):

     2.9960   3.0432   3.1137   3.4847   3.5257   3.5694   3.6388   3.8451
     4.0242   4.1221   5.5226  11.4743  12.4867  13.7006  17.4810  19.6785

     occupation numbers 
     1.0000   1.0000   1.0000   1.0000   1.0000   1.0000   1.0000   1.0000
     1.0000   1.0000   1.0000   0.0000   0.0000   0.0000   0.0000   0.0000

          k = 0.1429 0.4124 0.0798 (  2027 PWs)   bands (ev):

     2.9763   3.0224   3.1831   3.3443   3.5133   3.6483   3.7440   3.8409
     3.9936   4.1327   5.6214  10.1721  13.7482  14.0909  17.6198  18.4963

     occupation numbers 
     1.0000   1.0000   1.0000   1.0000   1.0000   1.0000   1.0000   1.0000
     1.0000   1.0000   1.0000   1.0000   0.0000   0.0000   0.0000   0.0000

          k = 0.1429 0.4124 0.1596 (  2032 PWs)   bands (ev):

     2.9438   3.0534   3.1793   3.2639   3.5317   3.6880   3.8014   3.9070
     3.9545   4.1504   5.9516   8.7115  14.1988  15.9355  17.3925  18.0310

     occupation numbers 
     1.0000   1.0000   1.0000   1.0000   1.0000   1.0000   1.0000   1.0000
     1.0000   1.0000   1.0000   1.0000   0.0000   0.0000   0.0000   0.0000

          k = 0.1429 0.4124 0.2394 (  2031 PWs)   bands (ev):

     2.9625   3.0250   3.1657   3.2252   3.6256   3.7126   3.7692   3.8123
     4.0830   4.1439   6.5719   7.4987  14.8492  15.7029  18.6634  18.7428

     occupation numbers 
     1.0000   1.0000   1.0000   1.0000   1.0000   1.0000   1.0000   1.0000
     1.0000   1.0000   1.0000   1.0000   0.0000   0.0000   0.0000   0.0000

          k = 0.1429 0.4949 0.0000 (  2045 PWs)   bands (ev):

     2.9337   3.0300   3.0416   3.4805   3.5672   3.6070   3.7140   4.0121
     4.0164   4.1572   7.0313  11.0233  13.1703  14.0089  17.0115  17.2872

     occupation numbers 
     1.0000   1.0000   1.0000   1.0000   1.0000   1.0000   1.0000   1.0000
     1.0000   1.0000   1.0000   1.0000   0.0000   0.0000   0.0000   0.0000

          k = 0.1429 0.4949 0.0798 (  2040 PWs)   bands (ev):

     2.9350   2.9547   3.1463   3.3683   3.5179   3.6787   3.8239   3.9850
     4.0065   4.1623   7.1454  10.9307  12.1421  15.0765  16.5910  17.1529

     occupation numbers 
     1.0000   1.0000   1.0000   1.0000   1.0000   1.0000   1.0000   1.0000
     1.0000   1.0000   1.0000   1.0000   0.0000   0.0000   0.0000   0.0000

          k = 0.1429 0.4949 0.1596 (  2031 PWs)   bands (ev):

     2.8961   2.9828   3.1970   3.2160   3.5279   3.7836   3.8921   3.9572
     3.9997   4.1675   7.4996  10.0841  11.9594  14.4250  17.5686  17.9797

     occupation numbers 
     1.0000   1.0000   1.0000   1.0000   1.0000   1.0000   1.0000   1.0000
     1.0000   1.0000   1.0000   1.0000   0.0000   0.0000   0.0000   0.0000

          k = 0.1429 0.4949 0.2394 (  2035 PWs)   bands (ev):

     2.9141   2.9741   3.1385   3.1786   3.6308   3.7644   3.8809   3.9411
     4.0825   4.1469   8.1156   8.9963  12.5044  13.3587  18.2428  19.0774

     occupation numbers 
     1.0000   1.0000   1.0000   1.0000   1.0000   1.0000   1.0000   1.0000
     1.0000   1.0000   1.0000   1.0000   0.0000   0.0000   0.0000   0.0000

          k = 0.1429 0.5774 0.0000 (  2038 PWs)   bands (ev):

     2.9105   3.0177   3.0189   3.4999   3.5207   3.6327   3.7648   4.0137
     4.1078   4.1297   8.7024   9.1124  14.4151  15.1011  15.6694  16.8529

     occupation numbers 
     1.0000   1.0000   1.0000   1.0000   1.0000   1.0000   1.0000   1.0000
     1.0000   1.0000   1.0000   1.0000   0.0000   0.0000   0.0000   0.0000

          k = 0.1429 0.5774 0.0798 (  2034 PWs)   bands (ev):

     2.9221   2.9247   3.1309   3.3833   3.4930   3.7040   3.8553   3.9820
     4.1054   4.1306   8.8278   9.1955  13.6451  13.7035  16.9945  17.3358

     occupation numbers 
     1.0000   1.0000   1.0000   1.0000   1.0000   1.0000   1.0000   1.0000
     1.0000   1.0000   1.0000   1.0000   0.0000   0.0000   0.0000   0.0000

          k = 0.1429 0.5774 0.1596 (  2043 PWs)   bands (ev):

     2.8779   2.9574   3.1890   3.2138   3.5129   3.8353   3.8857   3.9682
     4.0981   4.1264   9.1847   9.4373  12.3768  12.4473  17.4143  19.4548

     occupation numbers 
     1.0000   1.0000   1.0000   1.0000   1.0000   1.0000   1.0000   1.0000
     1.0000   1.0000   1.0000   1.0000   0.0000   0.0000   0.0000   0.0000

          k = 0.1429 0.5774 0.2394 (  2035 PWs)   bands (ev):

     2.8964   2.9543   3.1307   3.1625   3.6215   3.7601   3.9629   4.0142
     4.0885   4.1007   9.6509   9.7432  11.4962  11.5305  18.0938  18.9908

     occupation numbers 
     1.0000   1.0000   1.0000   1.0000   1.0000   1.0000   1.0000   1.0000
     1.0000   1.0000   1.0000   1.0000   0.0000   0.0000   0.0000   0.0000

          k = 0.2143 0.3712 0.0000 (  2029 PWs)   bands (ev):

     3.1164   3.1449   3.1838   3.3444   3.4613   3.5194   3.6605   3.7172
     4.0065   4.1198   5.4415  11.4044  12.3502  15.2795  15.6406  21.4097

     occupation numbers 
     1.0000   1.0000   1.0000   1.0000   1.0000   1.0000   1.0000   1.0000
     1.0000   1.0000   1.0000   0.0000   0.0000   0.0000   0.0000   0.0000

          k = 0.2143 0.3712 0.0798 (  2028 PWs)   bands (ev):

     3.1059   3.1270   3.2392   3.2449   3.5034   3.5617   3.6541   3.7683
     3.9755   4.1319   5.5374  10.0682  13.9175  15.4172  15.7751  20.0416

     occupation numbers 
     1.0000   1.0000   1.0000   1.0000   1.0000   1.0000   1.0000   1.0000
     1.0000   1.0000   1.0000   1.0000   0.0000   0.0000   0.0000   0.0000

          k = 0.2143 0.3712 0.1596 (  2026 PWs)   bands (ev):

     3.0729   3.1082   3.2046   3.3301   3.4595   3.5775   3.6581   3.8862
     3.9431   4.1515   5.8589   8.6022  15.8206  16.0357  16.1710  18.6240

     occupation numbers 
     1.0000   1.0000   1.0000   1.0000   1.0000   1.0000   1.0000   1.0000
     1.0000   1.0000   1.0000   1.0000   0.0000   0.0000   0.0000   0.0000

          k = 0.2143 0.3712 0.2394 (  2024 PWs)   bands (ev):

     3.0584   3.0677   3.2653   3.3369   3.4701   3.5349   3.7007   3.7867
     4.0817   4.1457   6.4695   7.3906  16.5026  16.7954  17.3973  17.4389

     occupation numbers 
     1.0000   1.0000   1.0000   1.0000   1.0000   1.0000   1.0000   1.0000
     1.0000   1.0000   1.0000   1.0000   0.0000   0.0000   0.0000   0.0000

          k = 0.2143 0.4536 0.0000 (  2032 PWs)   bands (ev):

     3.0869   3.0981   3.1776   3.4417   3.5110   3.5889   3.5993   3.8348
     3.9836   4.1468   6.8014  12.4331  13.2100  13.7953  14.8704  18.9379

     occupation numbers 
     1.0000   1.0000   1.0000   1.0000   1.0000   1.0000   1.0000   1.0000
     1.0000   1.0000   1.0000   0.0000   0.0000   0.0000   0.0000   0.0000

          k = 0.2143 0.4536 0.0798 (  2024 PWs)   bands (ev):

     3.0535   3.1144   3.2296   3.3241   3.5057   3.6272   3.6708   3.8532
     3.9512   4.1554   6.9169  11.4061  13.0989  15.0001  15.2332  17.7968

     occupation numbers 
     1.0000   1.0000   1.0000   1.0000   1.0000   1.0000   1.0000   1.0000
     1.0000   1.0000   1.0000   0.0000   0.0000   0.0000   0.0000   0.0000

          k = 0.2143 0.4536 0.1596 (  2035 PWs)   bands (ev):

     3.0260   3.1600   3.1759   3.3373   3.4503   3.6604   3.7222   3.8641
     3.9580   4.1664   7.2767  10.0035  13.4725  15.4127  16.0131  17.4730

     occupation numbers 
     1.0000   1.0000   1.0000   1.0000   1.0000   1.0000   1.0000   1.0000
     1.0000   1.0000   1.0000   1.0000   0.0000   0.0000   0.0000   0.0000

          k = 0.2143 0.4536 0.2394 (  2031 PWs)   bands (ev):

     3.0355   3.0865   3.2280   3.3056   3.5228   3.6324   3.7313   3.7783
     4.0789   4.1490   7.9066   8.8193  14.1223  15.0132  16.0811  16.9589

     occupation numbers 
     1.0000   1.0000   1.0000   1.0000   1.0000   1.0000   1.0000   1.0000
     1.0000   1.0000   1.0000   1.0000   0.0000   0.0000   0.0000   0.0000

          k = 0.2143 0.5361 0.0000 (  2037 PWs)   bands (ev):

     3.0585   3.0660   3.1679   3.4615   3.5176   3.5926   3.6440   3.9714
     3.9720   4.1023   8.5083  10.5214  14.3924  14.6052  15.3092  16.7379

     occupation numbers 
     1.0000   1.0000   1.0000   1.0000   1.0000   1.0000   1.0000   1.0000
     1.0000   1.0000   1.0000   1.0000   0.0000   0.0000   0.0000   0.0000

          k = 0.2143 0.5361 0.0798 (  2032 PWs)   bands (ev):

     3.0246   3.0818   3.2308   3.3687   3.4532   3.6728   3.7064   3.9379
     3.9766   4.1095   8.6289  10.6175  13.2980  14.6822  15.1451  17.2521

     occupation numbers 
     1.0000   1.0000   1.0000   1.0000   1.0000   1.0000   1.0000   1.0000
     1.0000   1.0000   1.0000   1.0000   0.0000   0.0000   0.0000   0.0000

          k = 0.2143 0.5361 0.1596 (  2039 PWs)   bands (ev):

     3.0011   3.1242   3.2243   3.3246   3.4036   3.7285   3.7879   3.8658
     4.0020   4.1194   8.9914  10.7966  12.1200  13.8977  15.1092  17.7439

     occupation numbers 
     1.0000   1.0000   1.0000   1.0000   1.0000   1.0000   1.0000   1.0000
     1.0000   1.0000   1.0000   1.0000   0.0000   0.0000   0.0000   0.0000

          k = 0.2143 0.5361 0.2394 (  2042 PWs)   bands (ev):

     3.0245   3.0973   3.1994   3.2737   3.5140   3.6552   3.8226   3.8448
     4.0589   4.1068   9.5913  10.3674  12.0313  12.8044  15.7792  16.6885

     occupation numbers 
     1.0000   1.0000   1.0000   1.0000   1.0000   1.0000   1.0000   1.0000
     1.0000   1.0000   1.0000   1.0000   0.0000   0.0000   0.0000   0.0000

          k = 0.2857 0.4949 0.0000 (  2029 PWs)   bands (ev):

     3.0815   3.1873   3.2411   3.4341   3.4730   3.5251   3.6516   3.8837
     3.9526   4.0962   8.3866  12.2053  12.5823  14.4019  15.2979  18.3209

     occupation numbers 
     1.0000   1.0000   1.0000   1.0000   1.0000   1.0000   1.0000   1.0000
     1.0000   1.0000   1.0000   0.0000   0.0000   0.0000   0.0000   0.0000

          k = 0.2857 0.4949 0.0798 (  2033 PWs)   bands (ev):

     3.0839   3.1930   3.2661   3.3328   3.4934   3.5664   3.6663   3.9063
     3.9188   4.1054   8.5097  12.2063  12.7225  13.3028  16.3297  17.0734

     occupation numbers 
     1.0000   1.0000   1.0000   1.0000   1.0000   1.0000   1.0000   1.0000
     1.0000   1.0000   1.0000   0.0000   0.0000   0.0000   0.0000   0.0000

          k = 0.2857 0.4949 0.1596 (  2040 PWs)   bands (ev):

     3.0908   3.1839   3.2713   3.3332   3.4357   3.6111   3.6895   3.8349
     3.9766   4.1190   8.8826  11.4885  13.0078  13.1364  15.6488  15.7808

     occupation numbers 
     1.0000   1.0000   1.0000   1.0000   1.0000   1.0000   1.0000   1.0000
     1.0000   1.0000   1.0000   0.0000   0.0000   0.0000   0.0000   0.0000

          k = 0.2857 0.4949 0.2394 (  2031 PWs)   bands (ev):

     3.1058   3.1374   3.2973   3.3466   3.4647   3.5667   3.7148   3.7560
     4.0588   4.1094   9.5127  10.3989  13.5690  13.7942  14.4987  14.7347

     occupation numbers 
     1.0000   1.0000   1.0000   1.0000   1.0000   1.0000   1.0000   1.0000
     1.0000   1.0000   1.0000   1.0000   0.0000   0.0000   0.0000   0.0000

          k = 0.2857 0.5774 0.0000 (  2039 PWs)   bands (ev):

     3.0824   3.2196   3.2659   3.4464   3.4543   3.4777   3.6782   3.9411
     3.9581   4.0209  10.2542  10.2543  12.2758  15.8028  16.5449  16.7455

     occupation numbers 
     1.0000   1.0000   1.0000   1.0000   1.0000   1.0000   1.0000   1.0000
     1.0000   1.0000   1.0000   1.0000   0.0000   0.0000   0.0000   0.0000

          k = 0.2857 0.5774 0.0798 (  2041 PWs)   bands (ev):

     3.0957   3.2228   3.2598   3.3779   3.4579   3.5313   3.6876   3.9065
     3.9732   4.0346  10.3634  10.3898  12.4027  14.9740  14.9750  16.8563

     occupation numbers 
     1.0000   1.0000   1.0000   1.0000   1.0000   1.0000   1.0000   1.0000
     1.0000   1.0000   1.0000   1.0000   0.0000   0.0000   0.0000   0.0000

          k = 0.2857 0.5774 0.1596 (  2038 PWs)   bands (ev):

     3.1196   3.2158   3.2720   3.3191   3.4622   3.5638   3.7047   3.8226
     4.0128   4.0616  10.6904  10.7794  12.7303  13.6575  13.7176  15.6019

     occupation numbers 
     1.0000   1.0000   1.0000   1.0000   1.0000   1.0000   1.0000   1.0000
     1.0000   1.0000   1.0000   1.0000   0.0000   0.0000   0.0000   0.0000

          k = 0.2857 0.5774 0.2394 (  2032 PWs)   bands (ev):

     3.1409   3.1761   3.3070   3.3133   3.4853   3.5426   3.7187   3.7473
     4.0551   4.0739  11.1934  11.3079  12.4477  12.6625  13.6102  14.4786

     occupation numbers 
     1.0000   1.0000   1.0000   1.0000   1.0000   1.0000   1.0000   1.0000
     1.0000   1.0000   0.0000   0.0000   0.0000   0.0000   0.0000   0.0000

 ------ SPIN DOWN ----------


          k = 0.0000 0.0000 0.0000 (  2005 PWs)   bands (ev):

     0.6786   2.5946   3.2956   3.4807   3.4807   3.5402   3.5402   3.8107
     3.8107   4.0592   4.0592   7.6078   8.4684  25.8667  27.6648  27.6648

     occupation numbers 
     1.0000   1.0000   1.0000   1.0000   1.0000   1.0000   1.0000   1.0000
     1.0000   1.0000   1.0000   1.0000   1.0000   0.0000   0.0000   0.0000

          k = 0.0000 0.0000 0.0798 (  2029 PWs)   bands (ev):

     0.8103   2.5857   3.2941   3.4770   3.4770   3.5327   3.5327   3.8297
     3.8297   4.0515   4.0515   6.2091  10.1467  23.7581  27.7949  27.7949

     occupation numbers 
     1.0000   1.0000   1.0000   1.0000   1.0000   1.0000   1.0000   1.0000
     1.0000   1.0000   1.0000   1.0000   1.0000   0.0000   0.0000   0.0000

          k = 0.0000 0.0000 0.1596 (  2034 PWs)   bands (ev):

     1.1927   2.5293   3.3045   3.4724   3.4724   3.5136   3.5136   3.8771
     3.8771   4.0279   4.0279   4.7797  12.4403  20.7159  28.1708  28.1708

     occupation numbers 
     1.0000   1.0000   1.0000   1.0000   1.0000   1.0000   1.0000   1.0000
     1.0000   1.0000   1.0000   1.0000   0.0000   0.0000   0.0000   0.0000

          k = 0.0000 0.0000 0.2394 (  2052 PWs)   bands (ev):

     1.7624   2.2961   3.3956   3.4766   3.4766   3.4919   3.4919   3.7978
     3.9348   3.9348   3.9880   3.9880  14.9877  17.7577  28.7312  28.7312

     occupation numbers 
     1.0000   1.0000   1.0000   1.0000   1.0000   1.0000   1.0000   1.0000
     1.0000   1.0000   1.0000   1.0000   0.0000   0.0000   0.0000   0.0000

          k = 0.0000 0.0825 0.0000 (  2021 PWs)   bands (ev):

     0.8253   2.6541   3.3056   3.4710   3.5144   3.5260   3.5718   3.7809
     3.7963   3.9797   4.0621   7.8417   8.5480  25.3252  26.0163  26.4534

     occupation numbers 
     1.0000   1.0000   1.0000   1.0000   1.0000   1.0000   1.0000   1.0000
     1.0000   1.0000   1.0000   1.0000   1.0000   0.0000   0.0000   0.0000

          k = 0.0000 0.0825 0.0798 (  2024 PWs)   bands (ev):

     0.9561   2.6489   3.3041   3.4634   3.5099   3.5165   3.5640   3.8053
     3.8170   3.9647   4.0537   6.3919  10.2820  23.8802  25.4769  26.5909

     occupation numbers 
     1.0000   1.0000   1.0000   1.0000   1.0000   1.0000   1.0000   1.0000
     1.0000   1.0000   1.0000   1.0000   1.0000   0.0000   0.0000   0.0000

          k = 0.0000 0.0825 0.1596 (  2033 PWs)   bands (ev):

     1.3352   2.6065   3.3096   3.4537   3.4928   3.5041   3.5446   3.8593
     3.8677   3.9108   4.0280   4.9861  12.5784  20.8459  25.8639  26.9985

     occupation numbers 
     1.0000   1.0000   1.0000   1.0000   1.0000   1.0000   1.0000   1.0000
     1.0000   1.0000   1.0000   1.0000   0.0000   0.0000   0.0000   0.0000

          k = 0.0000 0.0825 0.2394 (  2040 PWs)   bands (ev):

     1.8957   2.4033   3.3720   3.4602   3.4664   3.5076   3.5228   3.6693
     3.9288   3.9647   3.9851   4.1676  15.1243  17.8917  26.5065  27.3894

     occupation numbers 
     1.0000   1.0000   1.0000   1.0000   1.0000   1.0000   1.0000   1.0000
     1.0000   1.0000   1.0000   1.0000   0.0000   0.0000   0.0000   0.0000

          k = 0.0000 0.1650 0.0000 (  2018 PWs)   bands (ev):

     1.2558   2.8041   3.3140   3.4532   3.5211   3.6101   3.6612   3.6629
     3.7584   3.8330   4.0678   8.4833   8.8033  22.0496  24.8443  26.3743

     occupation numbers 
     1.0000   1.0000   1.0000   1.0000   1.0000   1.0000   1.0000   1.0000
     1.0000   1.0000   1.0000   1.0000   1.0000   0.0000   0.0000   0.0000

          k = 0.0000 0.1650 0.0798 (  2024 PWs)   bands (ev):

     1.3825   2.8083   3.3170   3.4351   3.4939   3.6015   3.6520   3.6901
[...]

     occupation numbers 
     1.0000   1.0000   1.0000   1.0000   1.0000   1.0000   1.0000   1.0000
     1.0000   1.0000   1.0000   1.0000   1.0000   0.0000   0.0000   0.0000

          k = 0.1429 0.2474 0.0798 (  2037 PWs)   bands (ev):

     2.3885   3.0806   3.2520   3.3441   3.4598   3.4697   3.7017   3.7415
     3.8978   3.9716   4.0840   8.0042  11.8192  19.2299  19.5510  23.8145

     occupation numbers 
     1.0000   1.0000   1.0000   1.0000   1.0000   1.0000   1.0000   1.0000
     1.0000   1.0000   1.0000   1.0000   0.0000   0.0000   0.0000   0.0000

          k = 0.1429 0.2474 0.1596 (  2028 PWs)   bands (ev):

     2.6371   3.1294   3.2629   3.2824   3.3826   3.4632   3.7171   3.8792
     3.9071   3.9447   4.1657   6.5243  14.0901  19.6425  19.8935  22.3398

     occupation numbers 
     1.0000   1.0000   1.0000   1.0000   1.0000   1.0000   1.0000   1.0000
     1.0000   1.0000   1.0000   1.0000   0.0000   0.0000   0.0000   0.0000

          k = 0.1429 0.2474 0.2394 (  2041 PWs)   bands (ev):

     2.9236   3.1301   3.2090   3.2916   3.3400   3.4109   3.7491   3.8180
     3.9801   3.9863   4.5474   5.3551  16.5834  19.1837  20.3218  20.8484

     occupation numbers 
     1.0000   1.0000   1.0000   1.0000   1.0000   1.0000   1.0000   1.0000
     1.0000   1.0000   1.0000   1.0000   0.0000   0.0000   0.0000   0.0000

          k = 0.1429 0.3299 0.0000 (  2033 PWs)   bands (ev):

     2.8865   3.0820   3.2322   3.3054   3.4603   3.5203   3.6652   3.7127
     4.0179   4.0357   4.5100  10.3993  11.1154  16.3258  18.2469  22.3473

     occupation numbers 
     1.0000   1.0000   1.0000   1.0000   1.0000   1.0000   1.0000   1.0000
     1.0000   1.0000   1.0000   1.0000   0.4231   0.0000   0.0000   0.0000

          k = 0.1429 0.3299 0.0798 (  2033 PWs)   bands (ev):

     2.9054   3.0977   3.2206   3.3081   3.4202   3.5806   3.6939   3.7312
     4.0033   4.0355   4.5652   8.9581  12.8046  16.4605  18.3823  21.0938

     occupation numbers 
     1.0000   1.0000   1.0000   1.0000   1.0000   1.0000   1.0000   1.0000
     1.0000   1.0000   1.0000   1.0000   0.0000   0.0000   0.0000   0.0000

          k = 0.1429 0.3299 0.1596 (  2034 PWs)   bands (ev):

     2.9525   3.1455   3.1617   3.3362   3.4039   3.5672   3.6953   3.9126
     3.9266   4.0667   4.7942   7.4730  15.0236  16.8591  18.7785  19.7249

     occupation numbers 
     1.0000   1.0000   1.0000   1.0000   1.0000   1.0000   1.0000   1.0000
     1.0000   1.0000   1.0000   1.0000   0.0000   0.0000   0.0000   0.0000

          k = 0.1429 0.3299 0.2394 (  2024 PWs)   bands (ev):

     3.0154   3.0875   3.2181   3.2930   3.4561   3.5173   3.7393   3.8253
     4.0455   4.0813   5.3487   6.2578  17.3307  17.4884  18.6854  19.3185

     occupation numbers 
     1.0000   1.0000   1.0000   1.0000   1.0000   1.0000   1.0000   1.0000
     1.0000   1.0000   1.0000   1.0000   0.0000   0.0000   0.0000   0.0000

          k = 0.1429 0.4124 0.0000 (  2031 PWs)   bands (ev):

     2.9960   3.0432   3.1137   3.4847   3.5257   3.5694   3.6388   3.8451
     4.0242   4.1221   5.5226  11.4743  12.4867  13.7006  17.4810  19.6785

     occupation numbers 
     1.0000   1.0000   1.0000   1.0000   1.0000   1.0000   1.0000   1.0000
     1.0000   1.0000   1.0000   0.0000   0.0000   0.0000   0.0000   0.0000

          k = 0.1429 0.4124 0.0798 (  2027 PWs)   bands (ev):

     2.9763   3.0224   3.1831   3.3443   3.5133   3.6483   3.7440   3.8409
     3.9936   4.1327   5.6214  10.1721  13.7482  14.0909  17.6198  18.4963

     occupation numbers 
     1.0000   1.0000   1.0000   1.0000   1.0000   1.0000   1.0000   1.0000
     1.0000   1.0000   1.0000   1.0000   0.0000   0.0000   0.0000   0.0000

          k = 0.1429 0.4124 0.1596 (  2032 PWs)   bands (ev):

     2.9438   3.0534   3.1793   3.2639   3.5317   3.6880   3.8014   3.9070
     3.9545   4.1504   5.9516   8.7115  14.1988  15.9355  17.3925  18.0310

     occupation numbers 
     1.0000   1.0000   1.0000   1.0000   1.0000   1.0000   1.0000   1.0000
     1.0000   1.0000   1.0000   1.0000   0.0000   0.0000   0.0000   0.0000

          k = 0.1429 0.4124 0.2394 (  2031 PWs)   bands (ev):

     2.9625   3.0250   3.1657   3.2252   3.6256   3.7126   3.7692   3.8123
     4.0830   4.1439   6.5719   7.4987  14.8492  15.7029  18.6634  18.7428

     occupation numbers 
     1.0000   1.0000   1.0000   1.0000   1.0000   1.0000   1.0000   1.0000
     1.0000   1.0000   1.0000   1.0000   0.0000   0.0000   0.0000   0.0000

          k = 0.1429 0.4949 0.0000 (  2045 PWs)   bands (ev):

     2.9337   3.0300   3.0416   3.4805   3.5672   3.6070   3.7140   4.0121
     4.0164   4.1572   7.0313  11.0233  13.1703  14.0089  17.0115  17.2872

     occupation numbers 
     1.0000   1.0000   1.0000   1.0000   1.0000   1.0000   1.0000   1.0000
     1.0000   1.0000   1.0000   1.0000   0.0000   0.0000   0.0000   0.0000

          k = 0.1429 0.4949 0.0798 (  2040 PWs)   bands (ev):

     2.9350   2.9547   3.1463   3.3683   3.5179   3.6787   3.8239   3.9850
     4.0065   4.1623   7.1454  10.9307  12.1421  15.0765  16.5910  17.1529

     occupation numbers 
     1.0000   1.0000   1.0000   1.0000   1.0000   1.0000   1.0000   1.0000
     1.0000   1.0000   1.0000   1.0000   0.0000   0.0000   0.0000   0.0000

          k = 0.1429 0.4949 0.1596 (  2031 PWs)   bands (ev):

     2.8961   2.9828   3.1970   3.2160   3.5279   3.7836   3.8921   3.9572
     3.9997   4.1675   7.4996  10.0841  11.9594  14.4250  17.5686  17.9797

     occupation numbers 
     1.0000   1.0000   1.0000   1.0000   1.0000   1.0000   1.0000   1.0000
     1.0000   1.0000   1.0000   1.0000   0.0000   0.0000   0.0000   0.0000

          k = 0.1429 0.4949 0.2394 (  2035 PWs)   bands (ev):

     2.9141   2.9741   3.1385   3.1786   3.6308   3.7644   3.8809   3.9411
     4.0825   4.1469   8.1156   8.9963  12.5044  13.3587  18.2428  19.0774

     occupation numbers 
     1.0000   1.0000   1.0000   1.0000   1.0000   1.0000   1.0000   1.0000
     1.0000   1.0000   1.0000   1.0000   0.0000   0.0000   0.0000   0.0000

          k = 0.1429 0.5774 0.0000 (  2038 PWs)   bands (ev):

     2.9105   3.0177   3.0189   3.4999   3.5207   3.6327   3.7648   4.0137
     4.1078   4.1297   8.7024   9.1124  14.4151  15.1011  15.6694  16.8529

     occupation numbers 
     1.0000   1.0000   1.0000   1.0000   1.0000   1.0000   1.0000   1.0000
     1.0000   1.0000   1.0000   1.0000   0.0000   0.0000   0.0000   0.0000

          k = 0.1429 0.5774 0.0798 (  2034 PWs)   bands (ev):

     2.9221   2.9247   3.1309   3.3833   3.4930   3.7040   3.8553   3.9820
     4.1054   4.1306   8.8278   9.1955  13.6451  13.7035  16.9945  17.3358

     occupation numbers 
     1.0000   1.0000   1.0000   1.0000   1.0000   1.0000   1.0000   1.0000
     1.0000   1.0000   1.0000   1.0000   0.0000   0.0000   0.0000   0.0000

          k = 0.1429 0.5774 0.1596 (  2043 PWs)   bands (ev):

     2.8779   2.9574   3.1890   3.2138   3.5129   3.8353   3.8857   3.9682
     4.0981   4.1264   9.1847   9.4373  12.3768  12.4473  17.4143  19.4548

     occupation numbers 
     1.0000   1.0000   1.0000   1.0000   1.0000   1.0000   1.0000   1.0000
     1.0000   1.0000   1.0000   1.0000   0.0000   0.0000   0.0000   0.0000

          k = 0.1429 0.5774 0.2394 (  2035 PWs)   bands (ev):

     2.8964   2.9543   3.1307   3.1625   3.6215   3.7601   3.9629   4.0142
     4.0885   4.1007   9.6510   9.7432  11.4962  11.5305  18.0938  18.9908

     occupation numbers 
     1.0000   1.0000   1.0000   1.0000   1.0000   1.0000   1.0000   1.0000
     1.0000   1.0000   1.0000   1.0000   0.0000   0.0000   0.0000   0.0000

          k = 0.2143 0.3712 0.0000 (  2029 PWs)   bands (ev):

     3.1164   3.1449   3.1838   3.3444   3.4613   3.5194   3.6605   3.7172
     4.0065   4.1198   5.4415  11.4044  12.3502  15.2795  15.6406  21.4097

     occupation numbers 
     1.0000   1.0000   1.0000   1.0000   1.0000   1.0000   1.0000   1.0000
     1.0000   1.0000   1.0000   0.0000   0.0000   0.0000   0.0000   0.0000

          k = 0.2143 0.3712 0.0798 (  2028 PWs)   bands (ev):

     3.1059   3.1270   3.2392   3.2449   3.5034   3.5617   3.6541   3.7683
     3.9755   4.1319   5.5374  10.0682  13.9175  15.4172  15.7751  20.0416

     occupation numbers 
     1.0000   1.0000   1.0000   1.0000   1.0000   1.0000   1.0000   1.0000
     1.0000   1.0000   1.0000   1.0000   0.0000   0.0000   0.0000   0.0000

          k = 0.2143 0.3712 0.1596 (  2026 PWs)   bands (ev):

     3.0729   3.1082   3.2046   3.3301   3.4595   3.5775   3.6581   3.8862
     3.9431   4.1515   5.8589   8.6022  15.8206  16.0357  16.1710  18.6240

     occupation numbers 
     1.0000   1.0000   1.0000   1.0000   1.0000   1.0000   1.0000   1.0000
     1.0000   1.0000   1.0000   1.0000   0.0000   0.0000   0.0000   0.0000

          k = 0.2143 0.3712 0.2394 (  2024 PWs)   bands (ev):

     3.0584   3.0677   3.2653   3.3369   3.4701   3.5349   3.7007   3.7867
     4.0817   4.1457   6.4695   7.3906  16.5026  16.7954  17.3973  17.4389

     occupation numbers 
     1.0000   1.0000   1.0000   1.0000   1.0000   1.0000   1.0000   1.0000
     1.0000   1.0000   1.0000   1.0000   0.0000   0.0000   0.0000   0.0000

          k = 0.2143 0.4536 0.0000 (  2032 PWs)   bands (ev):

     3.0869   3.0981   3.1776   3.4417   3.5110   3.5889   3.5993   3.8348
     3.9836   4.1468   6.8014  12.4331  13.2100  13.7953  14.8704  18.9379

     occupation numbers 
     1.0000   1.0000   1.0000   1.0000   1.0000   1.0000   1.0000   1.0000
     1.0000   1.0000   1.0000   0.0000   0.0000   0.0000   0.0000   0.0000

          k = 0.2143 0.4536 0.0798 (  2024 PWs)   bands (ev):

     3.0535   3.1144   3.2296   3.3241   3.5057   3.6272   3.6708   3.8532
     3.9512   4.1554   6.9169  11.4061  13.0989  15.0001  15.2332  17.7968

     occupation numbers 
     1.0000   1.0000   1.0000   1.0000   1.0000   1.0000   1.0000   1.0000
     1.0000   1.0000   1.0000   0.0000   0.0000   0.0000   0.0000   0.0000

          k = 0.2143 0.4536 0.1596 (  2035 PWs)   bands (ev):

     3.0260   3.1600   3.1759   3.3373   3.4503   3.6604   3.7222   3.8641
     3.9580   4.1664   7.2767  10.0035  13.4725  15.4128  16.0131  17.4730

     occupation numbers 
     1.0000   1.0000   1.0000   1.0000   1.0000   1.0000   1.0000   1.0000
     1.0000   1.0000   1.0000   1.0000   0.0000   0.0000   0.0000   0.0000

          k = 0.2143 0.4536 0.2394 (  2031 PWs)   bands (ev):

     3.0355   3.0865   3.2280   3.3056   3.5228   3.6324   3.7313   3.7783
     4.0789   4.1490   7.9066   8.8193  14.1223  15.0132  16.0811  16.9589

     occupation numbers 
     1.0000   1.0000   1.0000   1.0000   1.0000   1.0000   1.0000   1.0000
     1.0000   1.0000   1.0000   1.0000   0.0000   0.0000   0.0000   0.0000

          k = 0.2143 0.5361 0.0000 (  2037 PWs)   bands (ev):

     3.0585   3.0660   3.1679   3.4615   3.5176   3.5926   3.6440   3.9714
     3.9720   4.1023   8.5083  10.5214  14.3924  14.6052  15.3092  16.7379

     occupation numbers 
     1.0000   1.0000   1.0000   1.0000   1.0000   1.0000   1.0000   1.0000
     1.0000   1.0000   1.0000   1.0000   0.0000   0.0000   0.0000   0.0000

          k = 0.2143 0.5361 0.0798 (  2032 PWs)   bands (ev):

     3.0246   3.0818   3.2308   3.3687   3.4532   3.6728   3.7064   3.9379
     3.9766   4.1095   8.6289  10.6175  13.2980  14.6822  15.1451  17.2521

     occupation numbers 
     1.0000   1.0000   1.0000   1.0000   1.0000   1.0000   1.0000   1.0000
     1.0000   1.0000   1.0000   1.0000   0.0000   0.0000   0.0000   0.0000

          k = 0.2143 0.5361 0.1596 (  2039 PWs)   bands (ev):

     3.0011   3.1242   3.2243   3.3246   3.4036   3.7285   3.7879   3.8658
     4.0020   4.1194   8.9914  10.7966  12.1200  13.8977  15.1092  17.7439

     occupation numbers 
     1.0000   1.0000   1.0000   1.0000   1.0000   1.0000   1.0000   1.0000
     1.0000   1.0000   1.0000   1.0000   0.0000   0.0000   0.0000   0.0000

          k = 0.2143 0.5361 0.2394 (  2042 PWs)   bands (ev):

     3.0245   3.0973   3.1994   3.2737   3.5140   3.6552   3.8226   3.8448
     4.0589   4.1068   9.5913  10.3674  12.0313  12.8044  15.7792  16.6885

     occupation numbers 
     1.0000   1.0000   1.0000   1.0000   1.0000   1.0000   1.0000   1.0000
     1.0000   1.0000   1.0000   1.0000   0.0000   0.0000   0.0000   0.0000

          k = 0.2857 0.4949 0.0000 (  2029 PWs)   bands (ev):

     3.0815   3.1873   3.2411   3.4341   3.4730   3.5251   3.6516   3.8837
     3.9526   4.0962   8.3866  12.2053  12.5823  14.4019  15.2979  18.3209

     occupation numbers 
     1.0000   1.0000   1.0000   1.0000   1.0000   1.0000   1.0000   1.0000
     1.0000   1.0000   1.0000   0.0000   0.0000   0.0000   0.0000   0.0000

          k = 0.2857 0.4949 0.0798 (  2033 PWs)   bands (ev):

     3.0839   3.1930   3.2661   3.3328   3.4934   3.5664   3.6663   3.9063
     3.9188   4.1054   8.5097  12.2063  12.7225  13.3028  16.3297  17.0734

     occupation numbers 
     1.0000   1.0000   1.0000   1.0000   1.0000   1.0000   1.0000   1.0000
     1.0000   1.0000   1.0000   0.0000   0.0000   0.0000   0.0000   0.0000

          k = 0.2857 0.4949 0.1596 (  2040 PWs)   bands (ev):

     3.0908   3.1839   3.2713   3.3332   3.4357   3.6111   3.6895   3.8349
     3.9766   4.1190   8.8826  11.4885  13.0078  13.1364  15.6488  15.7808

     occupation numbers 
     1.0000   1.0000   1.0000   1.0000   1.0000   1.0000   1.0000   1.0000
     1.0000   1.0000   1.0000   0.0000   0.0000   0.0000   0.0000   0.0000

          k = 0.2857 0.4949 0.2394 (  2031 PWs)   bands (ev):

     3.1058   3.1374   3.2973   3.3466   3.4647   3.5667   3.7148   3.7560
     4.0588   4.1094   9.5127  10.3989  13.5690  13.7942  14.4987  14.7347

     occupation numbers 
     1.0000   1.0000   1.0000   1.0000   1.0000   1.0000   1.0000   1.0000
     1.0000   1.0000   1.0000   1.0000   0.0000   0.0000   0.0000   0.0000

          k = 0.2857 0.5774 0.0000 (  2039 PWs)   bands (ev):

     3.0824   3.2196   3.2659   3.4464   3.4543   3.4777   3.6782   3.9411
     3.9581   4.0209  10.2542  10.2543  12.2758  15.8028  16.5449  16.7455

     occupation numbers 
     1.0000   1.0000   1.0000   1.0000   1.0000   1.0000   1.0000   1.0000
     1.0000   1.0000   1.0000   1.0000   0.0000   0.0000   0.0000   0.0000

          k = 0.2857 0.5774 0.0798 (  2041 PWs)   bands (ev):

     3.0957   3.2228   3.2598   3.3779   3.4579   3.5313   3.6876   3.9065
     3.9732   4.0346  10.3634  10.3898  12.4027  14.9740  14.9750  16.8563

     occupation numbers 
     1.0000   1.0000   1.0000   1.0000   1.0000   1.0000   1.0000   1.0000
     1.0000   1.0000   1.0000   1.0000   0.0000   0.0000   0.0000   0.0000

          k = 0.2857 0.5774 0.1596 (  2038 PWs)   bands (ev):

     3.1196   3.2158   3.2720   3.3191   3.4622   3.5638   3.7047   3.8226
     4.0128   4.0616  10.6904  10.7794  12.7303  13.6575  13.7176  15.6019

     occupation numbers 
     1.0000   1.0000   1.0000   1.0000   1.0000   1.0000   1.0000   1.0000
     1.0000   1.0000   1.0000   1.0000   0.0000   0.0000   0.0000   0.0000

          k = 0.2857 0.5774 0.2394 (  2032 PWs)   bands (ev):

     3.1409   3.1761   3.3070   3.3133   3.4853   3.5426   3.7187   3.7473
     4.0551   4.0739  11.1934  11.3079  12.4477  12.6625  13.6102  14.4786

     occupation numbers 
     1.0000   1.0000   1.0000   1.0000   1.0000   1.0000   1.0000   1.0000
     1.0000   1.0000   0.0000   0.0000   0.0000   0.0000   0.0000   0.0000

     the Fermi energy is    11.1157 ev

!    total energy              =    -487.44674162 Ry
     total all-electron energy =     -7184.240787 Ry
     estimated scf accuracy    <       0.00000006 Ry
     smearing contrib. (-TS)   =      -0.00000365 Ry
     internal energy E=F+TS    =    -487.44673797 Ry

     The total energy is F=E-TS. E is the sum of the following terms:
     one-electron contribution =    -116.20653396 Ry
     hartree contribution      =      91.31485040 Ry
     xc contribution           =     -94.35928761 Ry
     ewald contribution        =    -177.32659879 Ry
     one-center paw contrib.   =    -190.86916801 Ry
      -> PAW hartree energy AE =     121.69703433 Ry
      -> PAW hartree energy PS =    -121.07215025 Ry
      -> PAW xc energy AE      =    -143.05736341 Ry
      -> PAW xc energy PS      =      46.99789533 Ry
      -> total E_H with PAW    =      91.93973449 Ry
      -> total E_XC with PAW   =    -190.41875570 Ry

     total magnetization       =     0.00 Bohr mag/cell
     absolute magnetization    =     0.00 Bohr mag/cell

     convergence has been achieved in   6 iterations

     Writing all to output data dir ./out/Zn.save/
 
     init_run     :      0.28s CPU      0.38s WALL (       1 calls)
     electrons    :      5.65s CPU      6.15s WALL (       1 calls)

     Called by init_run:
     wfcinit      :      0.13s CPU      0.20s WALL (       1 calls)
     potinit      :      0.10s CPU      0.13s WALL (       1 calls)
     hinit0       :      0.04s CPU      0.04s WALL (       1 calls)

     Called by electrons:
     c_bands      :      4.37s CPU      4.72s WALL (       6 calls)
     sum_band     :      0.69s CPU      0.72s WALL (       6 calls)
     v_of_rho     :      0.02s CPU      0.02s WALL (       7 calls)
     v_h          :      0.00s CPU      0.00s WALL (       7 calls)
     v_xc         :      0.02s CPU      0.02s WALL (       7 calls)
     newd         :      0.01s CPU      0.01s WALL (       7 calls)
     PAW_pot      :      0.65s CPU      0.77s WALL (       7 calls)
     mix_rho      :      0.00s CPU      0.00s WALL (       6 calls)

     Called by c_bands:
     init_us_2    :      0.04s CPU      0.04s WALL (    1152 calls)
     init_us_2:cp :      0.04s CPU      0.04s WALL (    1152 calls)
     cegterg      :      4.12s CPU      4.37s WALL (     576 calls)

     Called by sum_band:
     sum_band:wei :      0.01s CPU      0.01s WALL (       6 calls)
     sum_band:loo :      0.60s CPU      0.63s WALL (       6 calls)
     sum_band:buf :      0.00s CPU      0.00s WALL (     576 calls)
     sum_band:ini :      0.02s CPU      0.02s WALL (     576 calls)
     sum_band:cal :      0.05s CPU      0.05s WALL (     576 calls)
     sum_band:bec :      0.00s CPU      0.00s WALL (     576 calls)
     addusdens    :      0.02s CPU      0.02s WALL (       6 calls)
                                        0.00s GPU  (       6 calls)
     addusd:skk   :      0.00s CPU      0.00s WALL (       6 calls)
                                        0.00s GPU  (       6 calls)

     Called by *egterg:
     cdiaghg      :      0.63s CPU      0.67s WALL (    2243 calls)
     cegterg:over :      0.10s CPU      0.11s WALL (    1763 calls)
     cegterg:upda :      0.02s CPU      0.02s WALL (    1763 calls)
     cegterg:last :      0.04s CPU      0.04s WALL (    1484 calls)
     h_psi        :      3.16s CPU      3.35s WALL (    2339 calls)
     s_psi        :      0.05s CPU      0.06s WALL (    2339 calls)
     g_psi        :      0.01s CPU      0.01s WALL (    1763 calls)

     Called by h_psi:
     h_psi:calbec :      0.15s CPU      0.16s WALL (    2339 calls)
     vloc_psi     :      2.94s CPU      3.11s WALL (    2339 calls)
     add_vuspsi   :      0.05s CPU      0.06s WALL (    2339 calls)

     General routines
     calbec       :      0.19s CPU      0.20s WALL (    2915 calls)
     fft          :      0.01s CPU      0.01s WALL (     145 calls)
     ffts         :      0.00s CPU      0.00s WALL (      12 calls)
     fftw         :      3.20s CPU      3.38s WALL (   65356 calls)
 
     Parallel routines

     PAW routines
     PAW_pot      :      0.65s CPU      0.77s WALL (       7 calls)
     PAW_symme    :      0.01s CPU      0.01s WALL (      12 calls)
 
     PWSCF        :      6.22s CPU      7.13s WALL

 
   This run was terminated on:   3:28:53  13Mar2024            

=------------------------------------------------------------------------------=
   JOB DONE.
=------------------------------------------------------------------------------=
