
     Program PWSCF v.7.2 starts on 13Mar2024 at  3:26: 5 

     This program is part of the open-source Quantum ESPRESSO suite
     for quantum simulation of materials; please cite
         "P. Giannozzi et al., J. Phys.:Condens. Matter 21 395502 (2009);
         "P. Giannozzi et al., J. Phys.:Condens. Matter 29 465901 (2017);
         "P. Giannozzi et al., J. Chem. Phys. 152 154105 (2020);
          URL http://www.quantum-espresso.org", 
     in publications or presentations arising from this work. More details at
     http://www.quantum-espresso.org/quote

     Parallel version (MPI), running on    28 processors

     MPI processes distributed on     1 nodes
     150215 MiB available memory on the printing compute node when the environment starts
 
     Waiting for input...
     Reading input from standard input

     Current dimensions of program PWSCF are:
     Max number of different atomic species (ntypx) = 10
     Max number of k-points (npk) = 120000
     Max angular momentum in pseudopotentials (lmaxx) =  4
     file Zn.pbe-dnl-kjpaw_psl.1.0.0.UPF: wavefunction(s)  4S 3D renormalized
 
     K-points division:     npool     =       2
     R & G space division:  proc/nbgrp/npool/nimage =      14
     Subspace diagonalization in iterative solution of the eigenvalue problem:
     a serial algorithm will be used

 
     Parallelization info
     --------------------
     sticks:   dense  smooth     PW     G-vecs:    dense   smooth      PW
     Min          33      33     10                 1119     1119     189
     Max          34      34     11                 1124     1124     191
     Sum         475     475    151                15703    15703    2661
 
     Using Slab Decomposition
 


     bravais-lattice index     =            4
     lattice parameter (alat)  =       4.9500  a.u.
     unit-cell volume          =     198.5217 (a.u.)^3
     number of atoms/cell      =            2
     number of atomic types    =            1
     number of electrons       =        24.00
     number of Kohn-Sham states=           16
     kinetic-energy cutoff     =      70.0000  Ry
     charge density cutoff     =     280.0000  Ry
     scf convergence threshold =      4.0E-06
     mixing beta               =       0.7000
     number of iterations used =            8  plain     mixing
     Exchange-correlation= SLA  PW   PBX  PBC
                           (   1   4   3   4   0   0   0)

     celldm(1)=   4.950000  celldm(2)=   0.000000  celldm(3)=   1.890000
     celldm(4)=   0.000000  celldm(5)=   0.000000  celldm(6)=   0.000000

     crystal axes: (cart. coord. in units of alat)
               a(1) = (   1.000000   0.000000   0.000000 )  
               a(2) = (  -0.500000   0.866025   0.000000 )  
               a(3) = (   0.000000   0.000000   1.890000 )  

     reciprocal axes: (cart. coord. in units 2 pi/alat)
               b(1) = (  1.000000  0.577350  0.000000 )  
               b(2) = (  0.000000  1.154701  0.000000 )  
               b(3) = (  0.000000  0.000000  0.529101 )  


     PseudoPot. # 1 for Zn read from file:
     /truba/home/amuhaymin/ZnS/pseudo/QE/Zn.pbe-dnl-kjpaw_psl.1.0.0.UPF
     MD5 check sum: c608214d9520ac179f507641260889e3
     Pseudo is Projector augmented-wave + core cor, Zval = 12.0
     Generated using &quot;atomic&quot; code by A. Dal Corso  v.6.2.2
     Shape of augmentation charge: PSQ
     Using radial grid of 1201 points,  6 beta functions with: 
                l(1) =   0
                l(2) =   0
                l(3) =   1
                l(4) =   1
                l(5) =   2
                l(6) =   2
     Q(r) pseudized with 0 coefficients 


     atomic species   valence    mass     pseudopotential
        Zn            12.00    65.38000     Zn( 1.00)

     Starting magnetic structure 
     atomic species   magnetization
        Zn           0.000

     24 Sym. Ops., with inversion, found (12 have fractional translation)


                                    s                        frac. trans.

      isym =  1     identity                                     

 cryst.   s( 1) = (     1          0          0      )
                  (     0          1          0      )
                  (     0          0          1      )

 cart.    s( 1) = (  1.0000000  0.0000000  0.0000000 )
                  (  0.0000000  1.0000000  0.0000000 )
                  (  0.0000000  0.0000000  1.0000000 )


      isym =  2     180 deg rotation - cart. axis [0,0,1]        

 cryst.   s( 2) = (    -1          0          0      )    f =(  0.0000000 )
                  (     0         -1          0      )       ( -0.0000000 )
                  (     0          0          1      )       ( -0.5000000 )

 cart.    s( 2) = ( -1.0000000  0.0000000  0.0000000 )    f =(  0.0000000 )
                  (  0.0000000 -1.0000000  0.0000000 )       ( -0.0000000 )
                  (  0.0000000  0.0000000  1.0000000 )       ( -0.9450000 )


      isym =  3     180 deg rotation - cart. axis [0,1,0]        

 cryst.   s( 3) = (    -1          0          0      )    f =(  0.0000000 )
                  (     1          1          0      )       (  0.0000000 )
                  (     0          0         -1      )       (  0.5000000 )

 cart.    s( 3) = ( -1.0000000  0.0000000  0.0000000 )    f =(  0.0000000 )
                  (  0.0000000  1.0000000  0.0000000 )       (  0.0000000 )
                  (  0.0000000  0.0000000 -1.0000000 )       (  0.9450000 )


      isym =  4     180 deg rotation - cart. axis [1,0,0]        

 cryst.   s( 4) = (     1          0          0      )
                  (    -1         -1          0      )
                  (     0          0         -1      )

 cart.    s( 4) = (  1.0000000  0.0000000  0.0000000 )
                  (  0.0000000 -1.0000000  0.0000000 )
                  (  0.0000000  0.0000000 -1.0000000 )


      isym =  5      60 deg rotation - cryst. axis [0,0,1]       

 cryst.   s( 5) = (     1          1          0      )    f =(  0.0000000 )
                  (    -1          0          0      )       ( -0.0000000 )
                  (     0          0          1      )       ( -0.5000000 )

 cart.    s( 5) = (  0.5000000 -0.8660254  0.0000000 )    f =(  0.0000000 )
                  (  0.8660254  0.5000000  0.0000000 )       ( -0.0000000 )
                  (  0.0000000  0.0000000  1.0000000 )       ( -0.9450000 )


      isym =  6      60 deg rotation - cryst. axis [0,0,-1]      

 cryst.   s( 6) = (     0         -1          0      )    f =(  0.0000000 )
                  (     1          1          0      )       ( -0.0000000 )
                  (     0          0          1      )       ( -0.5000000 )

 cart.    s( 6) = (  0.5000000  0.8660254  0.0000000 )    f =(  0.0000000 )
                  ( -0.8660254  0.5000000  0.0000000 )       ( -0.0000000 )
                  (  0.0000000  0.0000000  1.0000000 )       ( -0.9450000 )


      isym =  7     120 deg rotation - cryst. axis [0,0,1]       

 cryst.   s( 7) = (     0          1          0      )
                  (    -1         -1          0      )
                  (     0          0          1      )

 cart.    s( 7) = ( -0.5000000 -0.8660254  0.0000000 )
                  (  0.8660254 -0.5000000  0.0000000 )
                  (  0.0000000  0.0000000  1.0000000 )


      isym =  8     120 deg rotation - cryst. axis [0,0,-1]      

 cryst.   s( 8) = (    -1         -1          0      )
                  (     1          0          0      )
                  (     0          0          1      )

 cart.    s( 8) = ( -0.5000000  0.8660254  0.0000000 )
                  ( -0.8660254 -0.5000000  0.0000000 )
                  (  0.0000000  0.0000000  1.0000000 )


      isym =  9     180 deg rotation - cryst. axis [1,-1,0]      

 cryst.   s( 9) = (     0         -1          0      )    f =( -0.0000000 )
                  (    -1          0          0      )       ( -0.0000000 )
                  (     0          0         -1      )       (  0.5000000 )

 cart.    s( 9) = (  0.5000000 -0.8660254  0.0000000 )    f =( -0.0000000 )
                  ( -0.8660254 -0.5000000  0.0000000 )       ( -0.0000000 )
                  (  0.0000000  0.0000000 -1.0000000 )       (  0.9450000 )


      isym = 10     180 deg rotation - cryst. axis [2,1,0]       

 cryst.   s(10) = (     1          1          0      )    f =(  0.0000000 )
                  (     0         -1          0      )       ( -0.0000000 )
                  (     0          0         -1      )       (  0.5000000 )

 cart.    s(10) = (  0.5000000  0.8660254  0.0000000 )    f =(  0.0000000 )
                  (  0.8660254 -0.5000000  0.0000000 )       ( -0.0000000 )
                  (  0.0000000  0.0000000 -1.0000000 )       (  0.9450000 )


      isym = 11     180 deg rotation - cryst. axis [0,1,0]       

 cryst.   s(11) = (    -1         -1          0      )
                  (     0          1          0      )
                  (     0          0         -1      )

 cart.    s(11) = ( -0.5000000 -0.8660254  0.0000000 )
                  ( -0.8660254  0.5000000  0.0000000 )
                  (  0.0000000  0.0000000 -1.0000000 )


      isym = 12     180 deg rotation - cryst. axis [1,1,0]       

 cryst.   s(12) = (     0          1          0      )
                  (     1          0          0      )
                  (     0          0         -1      )

 cart.    s(12) = ( -0.5000000  0.8660254  0.0000000 )
                  (  0.8660254  0.5000000  0.0000000 )
                  (  0.0000000  0.0000000 -1.0000000 )


      isym = 13     inversion                                    

 cryst.   s(13) = (    -1          0          0      )
                  (     0         -1          0      )
                  (     0          0         -1      )

 cart.    s(13) = ( -1.0000000  0.0000000  0.0000000 )
                  (  0.0000000 -1.0000000  0.0000000 )
                  (  0.0000000  0.0000000 -1.0000000 )


      isym = 14     inv. 180 deg rotation - cart. axis [0,0,1]   

 cryst.   s(14) = (     1          0          0      )    f =(  0.0000000 )
                  (     0          1          0      )       (  0.0000000 )
                  (     0          0         -1      )       (  0.5000000 )

 cart.    s(14) = (  1.0000000  0.0000000  0.0000000 )    f =(  0.0000000 )
                  (  0.0000000  1.0000000  0.0000000 )       (  0.0000000 )
                  (  0.0000000  0.0000000 -1.0000000 )       (  0.9450000 )


      isym = 15     inv. 180 deg rotation - cart. axis [0,1,0]   

 cryst.   s(15) = (     1          0          0      )    f =(  0.0000000 )
                  (    -1         -1          0      )       ( -0.0000000 )
                  (     0          0          1      )       ( -0.5000000 )

 cart.    s(15) = (  1.0000000  0.0000000  0.0000000 )    f =(  0.0000000 )
                  (  0.0000000 -1.0000000  0.0000000 )       ( -0.0000000 )
                  (  0.0000000  0.0000000  1.0000000 )       ( -0.9450000 )


      isym = 16     inv. 180 deg rotation - cart. axis [1,0,0]   

 cryst.   s(16) = (    -1          0          0      )
                  (     1          1          0      )
                  (     0          0          1      )

 cart.    s(16) = ( -1.0000000  0.0000000  0.0000000 )
                  (  0.0000000  1.0000000  0.0000000 )
                  (  0.0000000  0.0000000  1.0000000 )


      isym = 17     inv.  60 deg rotation - cryst. axis [0,0,1]  

 cryst.   s(17) = (    -1         -1          0      )    f =(  0.0000000 )
                  (     1          0          0      )       ( -0.0000000 )
                  (     0          0         -1      )       (  0.5000000 )

 cart.    s(17) = ( -0.5000000  0.8660254  0.0000000 )    f =(  0.0000000 )
                  ( -0.8660254 -0.5000000  0.0000000 )       ( -0.0000000 )
                  (  0.0000000  0.0000000 -1.0000000 )       (  0.9450000 )


      isym = 18     inv.  60 deg rotation - cryst. axis [0,0,-1] 

 cryst.   s(18) = (     0          1          0      )    f =( -0.0000000 )
                  (    -1         -1          0      )       ( -0.0000000 )
                  (     0          0         -1      )       (  0.5000000 )

 cart.    s(18) = ( -0.5000000 -0.8660254  0.0000000 )    f =(  0.0000000 )
                  (  0.8660254 -0.5000000  0.0000000 )       ( -0.0000000 )
                  (  0.0000000  0.0000000 -1.0000000 )       (  0.9450000 )


      isym = 19     inv. 120 deg rotation - cryst. axis [0,0,1]  

 cryst.   s(19) = (     0         -1          0      )
                  (     1          1          0      )
                  (     0          0         -1      )

 cart.    s(19) = (  0.5000000  0.8660254  0.0000000 )
                  ( -0.8660254  0.5000000  0.0000000 )
                  (  0.0000000  0.0000000 -1.0000000 )


      isym = 20     inv. 120 deg rotation - cryst. axis [0,0,-1] 

 cryst.   s(20) = (     1          1          0      )
                  (    -1          0          0      )
                  (     0          0         -1      )

 cart.    s(20) = (  0.5000000 -0.8660254  0.0000000 )
                  (  0.8660254  0.5000000  0.0000000 )
                  (  0.0000000  0.0000000 -1.0000000 )


      isym = 21     inv. 180 deg rotation - cryst. axis [1,-1,0] 

 cryst.   s(21) = (     0          1          0      )    f =(  0.0000000 )
                  (     1          0          0      )       ( -0.0000000 )
                  (     0          0          1      )       ( -0.5000000 )

 cart.    s(21) = ( -0.5000000  0.8660254  0.0000000 )    f =(  0.0000000 )
                  (  0.8660254  0.5000000  0.0000000 )       ( -0.0000000 )
                  (  0.0000000  0.0000000  1.0000000 )       ( -0.9450000 )


      isym = 22     inv. 180 deg rotation - cryst. axis [2,1,0]  

 cryst.   s(22) = (    -1         -1          0      )    f =(  0.0000000 )
                  (     0          1          0      )       ( -0.0000000 )
                  (     0          0          1      )       ( -0.5000000 )

 cart.    s(22) = ( -0.5000000 -0.8660254  0.0000000 )    f =(  0.0000000 )
                  ( -0.8660254  0.5000000  0.0000000 )       ( -0.0000000 )
                  (  0.0000000  0.0000000  1.0000000 )       ( -0.9450000 )


      isym = 23     inv. 180 deg rotation - cryst. axis [0,1,0]  

 cryst.   s(23) = (     1          1          0      )
                  (     0         -1          0      )
                  (     0          0          1      )

 cart.    s(23) = (  0.5000000  0.8660254  0.0000000 )
                  (  0.8660254 -0.5000000  0.0000000 )
                  (  0.0000000  0.0000000  1.0000000 )


      isym = 24     inv. 180 deg rotation - cryst. axis [1,1,0]  

 cryst.   s(24) = (     0         -1          0      )
                  (    -1          0          0      )
                  (     0          0          1      )

 cart.    s(24) = (  0.5000000 -0.8660254  0.0000000 )
                  ( -0.8660254 -0.5000000  0.0000000 )
                  (  0.0000000  0.0000000  1.0000000 )


     point group D_6h(6/mmm)
     there are 12 classes
     the character table:

       E     2C6   2C3   C2    3C2'  3C2'' i     2S3   2S6   s_h   3s_d  3s_v 
A_1g   1.00  1.00  1.00  1.00  1.00  1.00  1.00  1.00  1.00  1.00  1.00  1.00
A_2g   1.00  1.00  1.00  1.00 -1.00 -1.00  1.00  1.00  1.00  1.00 -1.00 -1.00
B_1g   1.00 -1.00  1.00 -1.00  1.00 -1.00  1.00 -1.00  1.00 -1.00  1.00 -1.00
B_2g   1.00 -1.00  1.00 -1.00 -1.00  1.00  1.00 -1.00  1.00 -1.00 -1.00  1.00
E_1g   2.00  1.00 -1.00 -2.00  0.00  0.00  2.00  1.00 -1.00 -2.00  0.00  0.00
E_2g   2.00 -1.00 -1.00  2.00  0.00  0.00  2.00 -1.00 -1.00  2.00  0.00  0.00
A_1u   1.00  1.00  1.00  1.00  1.00  1.00 -1.00 -1.00 -1.00 -1.00 -1.00 -1.00
A_2u   1.00  1.00  1.00  1.00 -1.00 -1.00 -1.00 -1.00 -1.00 -1.00  1.00  1.00
B_1u   1.00 -1.00  1.00 -1.00  1.00 -1.00 -1.00  1.00 -1.00  1.00 -1.00  1.00
B_2u   1.00 -1.00  1.00 -1.00 -1.00  1.00 -1.00  1.00 -1.00  1.00  1.00 -1.00
E_1u   2.00  1.00 -1.00 -2.00  0.00  0.00 -2.00 -1.00  1.00  2.00  0.00  0.00
E_2u   2.00 -1.00 -1.00  2.00  0.00  0.00 -2.00  1.00  1.00 -2.00  0.00  0.00

     the symmetry operations in each class and the name of the first element:

     E        1
          identity                                               
     2C6      5    6
           60 deg rotation - cryst. axis [0,0,1]                 
     2C3      7    8
          120 deg rotation - cryst. axis [0,0,1]                 
     C2       2
          180 deg rotation - cart. axis [0,0,1]                  
     3C2'     4   12   11
          180 deg rotation - cart. axis [1,0,0]                  
     3C2''    3    9   10
          180 deg rotation - cart. axis [0,1,0]                  
     i       13
          inversion                                              
     2S3     17   18
          inv.  60 deg rotation - cryst. axis [0,0,1]            
     2S6     19   20
          inv. 120 deg rotation - cryst. axis [0,0,1]            
     s_h     14
          inv. 180 deg rotation - cart. axis [0,0,1]             
     3s_d    16   24   23
          inv. 180 deg rotation - cart. axis [1,0,0]             
     3s_v    15   21   22
          inv. 180 deg rotation - cart. axis [0,1,0]             

   Cartesian axes

     site n.     atom                  positions (alat units)
         1           Zn  tau(   1) = (  -0.0000000   0.5773503   0.4725000  )
         2           Zn  tau(   2) = (   0.5000000   0.2886751   1.4175000  )

   Crystallographic axes

     site n.     atom                  positions (cryst. coord.)
         1           Zn  tau(   1) = (  0.3333333  0.6666667  0.2500000  )
         2           Zn  tau(   2) = (  0.6666667  0.3333333  0.7500000  )

     number of k points=    96  Marzari-Vanderbilt smearing, width (Ry)=  0.0005
                       cart. coord. in units 2pi/alat
        k(    1) = (   0.0000000   0.0000000   0.0000000), wk =   0.0007289
        k(    2) = (   0.0000000   0.0000000   0.0755858), wk =   0.0014577
        k(    3) = (   0.0000000   0.0000000   0.1511716), wk =   0.0014577
        k(    4) = (   0.0000000   0.0000000   0.2267574), wk =   0.0014577
        k(    5) = (   0.0000000   0.0824786   0.0000000), wk =   0.0043732
        k(    6) = (   0.0000000   0.0824786   0.0755858), wk =   0.0087464
        k(    7) = (   0.0000000   0.0824786   0.1511716), wk =   0.0087464
        k(    8) = (   0.0000000   0.0824786   0.2267574), wk =   0.0087464
        k(    9) = (   0.0000000   0.1649572   0.0000000), wk =   0.0043732
        k(   10) = (   0.0000000   0.1649572   0.0755858), wk =   0.0087464
        k(   11) = (   0.0000000   0.1649572   0.1511716), wk =   0.0087464
        k(   12) = (   0.0000000   0.1649572   0.2267574), wk =   0.0087464
        k(   13) = (   0.0000000   0.2474358   0.0000000), wk =   0.0043732
        k(   14) = (   0.0000000   0.2474358   0.0755858), wk =   0.0087464
        k(   15) = (   0.0000000   0.2474358   0.1511716), wk =   0.0087464
        k(   16) = (   0.0000000   0.2474358   0.2267574), wk =   0.0087464
        k(   17) = (   0.0000000   0.3299144   0.0000000), wk =   0.0043732
        k(   18) = (   0.0000000   0.3299144   0.0755858), wk =   0.0087464
        k(   19) = (   0.0000000   0.3299144   0.1511716), wk =   0.0087464
        k(   20) = (   0.0000000   0.3299144   0.2267574), wk =   0.0087464
        k(   21) = (   0.0000000   0.4123930   0.0000000), wk =   0.0043732
        k(   22) = (   0.0000000   0.4123930   0.0755858), wk =   0.0087464
        k(   23) = (   0.0000000   0.4123930   0.1511716), wk =   0.0087464
        k(   24) = (   0.0000000   0.4123930   0.2267574), wk =   0.0087464
        k(   25) = (   0.0000000   0.4948717   0.0000000), wk =   0.0043732
        k(   26) = (   0.0000000   0.4948717   0.0755858), wk =   0.0087464
        k(   27) = (   0.0000000   0.4948717   0.1511716), wk =   0.0087464
        k(   28) = (   0.0000000   0.4948717   0.2267574), wk =   0.0087464
        k(   29) = (   0.0000000  -0.5773503   0.0000000), wk =   0.0021866
        k(   30) = (   0.0000000  -0.5773503   0.0755858), wk =   0.0043732
        k(   31) = (   0.0000000  -0.5773503   0.1511716), wk =   0.0043732
        k(   32) = (   0.0000000  -0.5773503   0.2267574), wk =   0.0043732
        k(   33) = (   0.0714286   0.1237179   0.0000000), wk =   0.0043732
        k(   34) = (   0.0714286   0.1237179   0.0755858), wk =   0.0087464
        k(   35) = (   0.0714286   0.1237179   0.1511716), wk =   0.0087464
        k(   36) = (   0.0714286   0.1237179   0.2267574), wk =   0.0087464
        k(   37) = (   0.0714286   0.2061965   0.0000000), wk =   0.0087464
        k(   38) = (   0.0714286   0.2061965   0.0755858), wk =   0.0174927
        k(   39) = (   0.0714286   0.2061965   0.1511716), wk =   0.0174927
        k(   40) = (   0.0714286   0.2061965   0.2267574), wk =   0.0174927
        k(   41) = (   0.0714286   0.2886751   0.0000000), wk =   0.0087464
        k(   42) = (   0.0714286   0.2886751   0.0755858), wk =   0.0174927
        k(   43) = (   0.0714286   0.2886751   0.1511716), wk =   0.0174927
        k(   44) = (   0.0714286   0.2886751   0.2267574), wk =   0.0174927
        k(   45) = (   0.0714286   0.3711537   0.0000000), wk =   0.0087464
        k(   46) = (   0.0714286   0.3711537   0.0755858), wk =   0.0174927
        k(   47) = (   0.0714286   0.3711537   0.1511716), wk =   0.0174927
        k(   48) = (   0.0714286   0.3711537   0.2267574), wk =   0.0174927
        k(   49) = (   0.0714286   0.4536324   0.0000000), wk =   0.0087464
        k(   50) = (   0.0714286   0.4536324   0.0755858), wk =   0.0174927
        k(   51) = (   0.0714286   0.4536324   0.1511716), wk =   0.0174927
        k(   52) = (   0.0714286   0.4536324   0.2267574), wk =   0.0174927
        k(   53) = (   0.0714286   0.5361110   0.0000000), wk =   0.0087464
        k(   54) = (   0.0714286   0.5361110   0.0755858), wk =   0.0174927
        k(   55) = (   0.0714286   0.5361110   0.1511716), wk =   0.0174927
        k(   56) = (   0.0714286   0.5361110   0.2267574), wk =   0.0174927
        k(   57) = (   0.1428571   0.2474358   0.0000000), wk =   0.0043732
        k(   58) = (   0.1428571   0.2474358   0.0755858), wk =   0.0087464
        k(   59) = (   0.1428571   0.2474358   0.1511716), wk =   0.0087464
        k(   60) = (   0.1428571   0.2474358   0.2267574), wk =   0.0087464
        k(   61) = (   0.1428571   0.3299144   0.0000000), wk =   0.0087464
        k(   62) = (   0.1428571   0.3299144   0.0755858), wk =   0.0174927
        k(   63) = (   0.1428571   0.3299144   0.1511716), wk =   0.0174927
        k(   64) = (   0.1428571   0.3299144   0.2267574), wk =   0.0174927
        k(   65) = (   0.1428571   0.4123930   0.0000000), wk =   0.0087464
        k(   66) = (   0.1428571   0.4123930   0.0755858), wk =   0.0174927
        k(   67) = (   0.1428571   0.4123930   0.1511716), wk =   0.0174927
        k(   68) = (   0.1428571   0.4123930   0.2267574), wk =   0.0174927
        k(   69) = (   0.1428571   0.4948717   0.0000000), wk =   0.0087464
        k(   70) = (   0.1428571   0.4948717   0.0755858), wk =   0.0174927
        k(   71) = (   0.1428571   0.4948717   0.1511716), wk =   0.0174927
        k(   72) = (   0.1428571   0.4948717   0.2267574), wk =   0.0174927
        k(   73) = (   0.1428571   0.5773503   0.0000000), wk =   0.0043732
        k(   74) = (   0.1428571   0.5773503   0.0755858), wk =   0.0087464
        k(   75) = (   0.1428571   0.5773503   0.1511716), wk =   0.0087464
        k(   76) = (   0.1428571   0.5773503   0.2267574), wk =   0.0087464
        k(   77) = (   0.2142857   0.3711537   0.0000000), wk =   0.0043732
        k(   78) = (   0.2142857   0.3711537   0.0755858), wk =   0.0087464
        k(   79) = (   0.2142857   0.3711537   0.1511716), wk =   0.0087464
        k(   80) = (   0.2142857   0.3711537   0.2267574), wk =   0.0087464
        k(   81) = (   0.2142857   0.4536324   0.0000000), wk =   0.0087464
        k(   82) = (   0.2142857   0.4536324   0.0755858), wk =   0.0174927
        k(   83) = (   0.2142857   0.4536324   0.1511716), wk =   0.0174927
        k(   84) = (   0.2142857   0.4536324   0.2267574), wk =   0.0174927
        k(   85) = (   0.2142857   0.5361110   0.0000000), wk =   0.0087464
        k(   86) = (   0.2142857   0.5361110   0.0755858), wk =   0.0174927
        k(   87) = (   0.2142857   0.5361110   0.1511716), wk =   0.0174927
        k(   88) = (   0.2142857   0.5361110   0.2267574), wk =   0.0174927
        k(   89) = (   0.2857143   0.4948717   0.0000000), wk =   0.0043732
        k(   90) = (   0.2857143   0.4948717   0.0755858), wk =   0.0087464
        k(   91) = (   0.2857143   0.4948717   0.1511716), wk =   0.0087464
        k(   92) = (   0.2857143   0.4948717   0.2267574), wk =   0.0087464
        k(   93) = (   0.2857143   0.5773503   0.0000000), wk =   0.0043732
        k(   94) = (   0.2857143   0.5773503   0.0755858), wk =   0.0087464
        k(   95) = (   0.2857143   0.5773503   0.1511716), wk =   0.0087464
        k(   96) = (   0.2857143   0.5773503   0.2267574), wk =   0.0087464

                       cryst. coord.
        k(    1) = (   0.0000000   0.0000000   0.0000000), wk =   0.0007289
        k(    2) = (   0.0000000   0.0000000   0.1428571), wk =   0.0014577
        k(    3) = (   0.0000000   0.0000000   0.2857143), wk =   0.0014577
        k(    4) = (   0.0000000   0.0000000   0.4285714), wk =   0.0014577
        k(    5) = (   0.0000000   0.0714286   0.0000000), wk =   0.0043732
        k(    6) = (   0.0000000   0.0714286   0.1428571), wk =   0.0087464
        k(    7) = (   0.0000000   0.0714286   0.2857143), wk =   0.0087464
        k(    8) = (   0.0000000   0.0714286   0.4285714), wk =   0.0087464
        k(    9) = (   0.0000000   0.1428571   0.0000000), wk =   0.0043732
        k(   10) = (   0.0000000   0.1428571   0.1428571), wk =   0.0087464
        k(   11) = (   0.0000000   0.1428571   0.2857143), wk =   0.0087464
        k(   12) = (   0.0000000   0.1428571   0.4285714), wk =   0.0087464
        k(   13) = (   0.0000000   0.2142857   0.0000000), wk =   0.0043732
        k(   14) = (   0.0000000   0.2142857   0.1428571), wk =   0.0087464
        k(   15) = (   0.0000000   0.2142857   0.2857143), wk =   0.0087464
        k(   16) = (   0.0000000   0.2142857   0.4285714), wk =   0.0087464
        k(   17) = (   0.0000000   0.2857143   0.0000000), wk =   0.0043732
        k(   18) = (   0.0000000   0.2857143   0.1428571), wk =   0.0087464
        k(   19) = (   0.0000000   0.2857143   0.2857143), wk =   0.0087464
        k(   20) = (   0.0000000   0.2857143   0.4285714), wk =   0.0087464
        k(   21) = (   0.0000000   0.3571429   0.0000000), wk =   0.0043732
        k(   22) = (   0.0000000   0.3571429   0.1428571), wk =   0.0087464
        k(   23) = (   0.0000000   0.3571429   0.2857143), wk =   0.0087464
        k(   24) = (   0.0000000   0.3571429   0.4285714), wk =   0.0087464
        k(   25) = (   0.0000000   0.4285714   0.0000000), wk =   0.0043732
        k(   26) = (   0.0000000   0.4285714   0.1428571), wk =   0.0087464
        k(   27) = (   0.0000000   0.4285714   0.2857143), wk =   0.0087464
        k(   28) = (   0.0000000   0.4285714   0.4285714), wk =   0.0087464
        k(   29) = (   0.0000000  -0.5000000   0.0000000), wk =   0.0021866
        k(   30) = (   0.0000000  -0.5000000   0.1428571), wk =   0.0043732
        k(   31) = (   0.0000000  -0.5000000   0.2857143), wk =   0.0043732
        k(   32) = (   0.0000000  -0.5000000   0.4285714), wk =   0.0043732
        k(   33) = (   0.0714286   0.0714286   0.0000000), wk =   0.0043732
        k(   34) = (   0.0714286   0.0714286   0.1428571), wk =   0.0087464
        k(   35) = (   0.0714286   0.0714286   0.2857143), wk =   0.0087464
        k(   36) = (   0.0714286   0.0714286   0.4285714), wk =   0.0087464
        k(   37) = (   0.0714286   0.1428571   0.0000000), wk =   0.0087464
        k(   38) = (   0.0714286   0.1428571   0.1428571), wk =   0.0174927
        k(   39) = (   0.0714286   0.1428571   0.2857143), wk =   0.0174927
        k(   40) = (   0.0714286   0.1428571   0.4285714), wk =   0.0174927
        k(   41) = (   0.0714286   0.2142857   0.0000000), wk =   0.0087464
        k(   42) = (   0.0714286   0.2142857   0.1428571), wk =   0.0174927
        k(   43) = (   0.0714286   0.2142857   0.2857143), wk =   0.0174927
        k(   44) = (   0.0714286   0.2142857   0.4285714), wk =   0.0174927
        k(   45) = (   0.0714286   0.2857143   0.0000000), wk =   0.0087464
        k(   46) = (   0.0714286   0.2857143   0.1428571), wk =   0.0174927
        k(   47) = (   0.0714286   0.2857143   0.2857143), wk =   0.0174927
        k(   48) = (   0.0714286   0.2857143   0.4285714), wk =   0.0174927
        k(   49) = (   0.0714286   0.3571429   0.0000000), wk =   0.0087464
        k(   50) = (   0.0714286   0.3571429   0.1428571), wk =   0.0174927
        k(   51) = (   0.0714286   0.3571429   0.2857143), wk =   0.0174927
        k(   52) = (   0.0714286   0.3571429   0.4285714), wk =   0.0174927
        k(   53) = (   0.0714286   0.4285714   0.0000000), wk =   0.0087464
        k(   54) = (   0.0714286   0.4285714   0.1428571), wk =   0.0174927
        k(   55) = (   0.0714286   0.4285714   0.2857143), wk =   0.0174927
        k(   56) = (   0.0714286   0.4285714   0.4285714), wk =   0.0174927
        k(   57) = (   0.1428571   0.1428571   0.0000000), wk =   0.0043732
        k(   58) = (   0.1428571   0.1428571   0.1428571), wk =   0.0087464
        k(   59) = (   0.1428571   0.1428571   0.2857143), wk =   0.0087464
        k(   60) = (   0.1428571   0.1428571   0.4285714), wk =   0.0087464
        k(   61) = (   0.1428571   0.2142857   0.0000000), wk =   0.0087464
        k(   62) = (   0.1428571   0.2142857   0.1428571), wk =   0.0174927
        k(   63) = (   0.1428571   0.2142857   0.2857143), wk =   0.0174927
        k(   64) = (   0.1428571   0.2142857   0.4285714), wk =   0.0174927
        k(   65) = (   0.1428571   0.2857143   0.0000000), wk =   0.0087464
        k(   66) = (   0.1428571   0.2857143   0.1428571), wk =   0.0174927
        k(   67) = (   0.1428571   0.2857143   0.2857143), wk =   0.0174927
        k(   68) = (   0.1428571   0.2857143   0.4285714), wk =   0.0174927
        k(   69) = (   0.1428571   0.3571429   0.0000000), wk =   0.0087464
        k(   70) = (   0.1428571   0.3571429   0.1428571), wk =   0.0174927
        k(   71) = (   0.1428571   0.3571429   0.2857143), wk =   0.0174927
        k(   72) = (   0.1428571   0.3571429   0.4285714), wk =   0.0174927
        k(   73) = (   0.1428571   0.4285714   0.0000000), wk =   0.0043732
        k(   74) = (   0.1428571   0.4285714   0.1428571), wk =   0.0087464
        k(   75) = (   0.1428571   0.4285714   0.2857143), wk =   0.0087464
        k(   76) = (   0.1428571   0.4285714   0.4285714), wk =   0.0087464
        k(   77) = (   0.2142857   0.2142857   0.0000000), wk =   0.0043732
        k(   78) = (   0.2142857   0.2142857   0.1428571), wk =   0.0087464
        k(   79) = (   0.2142857   0.2142857   0.2857143), wk =   0.0087464
        k(   80) = (   0.2142857   0.2142857   0.4285714), wk =   0.0087464
        k(   81) = (   0.2142857   0.2857143   0.0000000), wk =   0.0087464
        k(   82) = (   0.2142857   0.2857143   0.1428571), wk =   0.0174927
        k(   83) = (   0.2142857   0.2857143   0.2857143), wk =   0.0174927
        k(   84) = (   0.2142857   0.2857143   0.4285714), wk =   0.0174927
        k(   85) = (   0.2142857   0.3571429   0.0000000), wk =   0.0087464
        k(   86) = (   0.2142857   0.3571429   0.1428571), wk =   0.0174927
        k(   87) = (   0.2142857   0.3571429   0.2857143), wk =   0.0174927
        k(   88) = (   0.2142857   0.3571429   0.4285714), wk =   0.0174927
        k(   89) = (   0.2857143   0.2857143   0.0000000), wk =   0.0043732
        k(   90) = (   0.2857143   0.2857143   0.1428571), wk =   0.0087464
        k(   91) = (   0.2857143   0.2857143   0.2857143), wk =   0.0087464
        k(   92) = (   0.2857143   0.2857143   0.4285714), wk =   0.0087464
        k(   93) = (   0.2857143   0.3571429   0.0000000), wk =   0.0043732
        k(   94) = (   0.2857143   0.3571429   0.1428571), wk =   0.0087464
        k(   95) = (   0.2857143   0.3571429   0.2857143), wk =   0.0087464
        k(   96) = (   0.2857143   0.3571429   0.4285714), wk =   0.0087464

     Dense  grid:    15703 G-vectors     FFT dimensions: (  27,  27,  50)

     Dynamical RAM for                 wfc:       0.03 MB

     Dynamical RAM for     wfc (w. buffer):       3.32 MB

     Dynamical RAM for           str. fact:       0.02 MB

     Dynamical RAM for           local pot:       0.00 MB

     Dynamical RAM for          nlocal pot:       0.08 MB

     Dynamical RAM for                qrad:       1.34 MB

     Dynamical RAM for          rho,v,vnew:       0.24 MB

     Dynamical RAM for               rhoin:       0.08 MB

     Dynamical RAM for            rho*nmix:       0.55 MB

     Dynamical RAM for           G-vectors:       0.07 MB

     Dynamical RAM for          h,s,v(r/c):       0.05 MB

     Dynamical RAM for          <psi|beta>:       0.01 MB

     Dynamical RAM for                 psi:       0.07 MB

     Dynamical RAM for                hpsi:       0.07 MB

     Dynamical RAM for                spsi:       0.07 MB

     Dynamical RAM for      wfcinit/wfcrot:       0.07 MB

     Dynamical RAM for           addusdens:       1.63 MB

     Estimated static dynamical RAM per process >       5.31 MB

     Estimated max dynamical RAM per process >       7.49 MB

     Estimated total dynamical RAM >     202.08 MB

     Check: negative core charge=   -0.000003
     Generating pointlists ...
     new r_m :   0.4125 (alat units)  2.0419 (a.u.) for type    1

     The initial density is read from file :
     ./out/Zn.save/charge-density


     starting charge      24.1277, renormalised to      24.0000

     negative rho (up, down):  3.859E-03 3.859E-03
     Starting wfcs from file
     Checking if some PAW data can be deallocated... 

     total cpu time spent up to now is        0.5 secs

     Self-consistent Calculation

     iteration #  1     ecut=    70.00 Ry     beta= 0.70
     Davidson diagonalization with overlap

---- Real-time Memory Report at c_bands before calling an iterative solver
            57 MiB given to the printing process from OS
             0 MiB allocation reported by mallinfo(arena+hblkhd)
        149478 MiB available memory on the node where the printing process lives
------------------
     ethr =  1.00E-05,  avg # of iterations =  7.3

     total cpu time spent up to now is        2.2 secs

     total energy              =    -487.41514071 Ry
     estimated scf accuracy    <       0.02424358 Ry

     total magnetization       =     0.00 Bohr mag/cell
     absolute magnetization    =     0.00 Bohr mag/cell

     iteration #  2     ecut=    70.00 Ry     beta= 0.70
     Davidson diagonalization with overlap

---- Real-time Memory Report at c_bands before calling an iterative solver
            79 MiB given to the printing process from OS
             0 MiB allocation reported by mallinfo(arena+hblkhd)
        149193 MiB available memory on the node where the printing process lives
------------------
     ethr =  1.01E-04,  avg # of iterations =  2.3

     total cpu time spent up to now is        3.2 secs

     total energy              =    -487.43265858 Ry
     estimated scf accuracy    <       0.01843385 Ry

     total magnetization       =     0.00 Bohr mag/cell
     absolute magnetization    =     0.00 Bohr mag/cell

     iteration #  3     ecut=    70.00 Ry     beta= 0.70
     Davidson diagonalization with overlap

---- Real-time Memory Report at c_bands before calling an iterative solver
            80 MiB given to the printing process from OS
             0 MiB allocation reported by mallinfo(arena+hblkhd)
        149180 MiB available memory on the node where the printing process lives
------------------
     ethr =  7.68E-05,  avg # of iterations =  2.0

     total cpu time spent up to now is        4.1 secs

     total energy              =    -487.44589258 Ry
     estimated scf accuracy    <       0.00071824 Ry

     total magnetization       =     0.00 Bohr mag/cell
     absolute magnetization    =     0.00 Bohr mag/cell

     iteration #  4     ecut=    70.00 Ry     beta= 0.70
     Davidson diagonalization with overlap

---- Real-time Memory Report at c_bands before calling an iterative solver
            80 MiB given to the printing process from OS
             0 MiB allocation reported by mallinfo(arena+hblkhd)
        149165 MiB available memory on the node where the printing process lives
------------------
     ethr =  2.99E-06,  avg # of iterations =  2.7

     total cpu time spent up to now is        5.2 secs

     total energy              =    -487.44583865 Ry
     estimated scf accuracy    <       0.00007421 Ry

     total magnetization       =     0.00 Bohr mag/cell
     absolute magnetization    =     0.00 Bohr mag/cell

     iteration #  5     ecut=    70.00 Ry     beta= 0.70
     Davidson diagonalization with overlap

---- Real-time Memory Report at c_bands before calling an iterative solver
            81 MiB given to the printing process from OS
             0 MiB allocation reported by mallinfo(arena+hblkhd)
        149157 MiB available memory on the node where the printing process lives
------------------
     ethr =  3.09E-07,  avg # of iterations =  2.2

     total cpu time spent up to now is        6.1 secs

     total energy              =    -487.44586376 Ry
     estimated scf accuracy    <       0.00000863 Ry

     total magnetization       =     0.00 Bohr mag/cell
     absolute magnetization    =     0.00 Bohr mag/cell

     iteration #  6     ecut=    70.00 Ry     beta= 0.70
     Davidson diagonalization with overlap

---- Real-time Memory Report at c_bands before calling an iterative solver
            81 MiB given to the printing process from OS
             0 MiB allocation reported by mallinfo(arena+hblkhd)
        149149 MiB available memory on the node where the printing process lives
------------------
     ethr =  3.59E-08,  avg # of iterations =  2.7
 
     Magnetic moment per site  (integrated on atomic sphere of radius R)
     atom   1 (R=0.413)  charge= 10.6505  magn=  0.0000
     atom   2 (R=0.413)  charge= 10.6505  magn=  0.0000

     total cpu time spent up to now is        7.0 secs

     End of self-consistent calculation

 ------ SPIN UP ------------


          k = 0.0000 0.0000 0.0000 (  1993 PWs)   bands (ev):

     0.9149   2.8423   3.6228   3.8925   3.8925   3.9420   3.9420   4.3232
     4.3232   4.5273   4.5273   7.7121   8.4004  24.8688  28.5493  29.7828

     occupation numbers 
     1.0000   1.0000   1.0000   1.0000   1.0000   1.0000   1.0000   1.0000
     1.0000   1.0000   1.0000   1.0000   1.0000   0.0000   0.0000   0.0000

          k = 0.0000 0.0000 0.0756 (  1981 PWs)   bands (ev):

     1.0372   2.8218   3.6265   3.8915   3.8915   3.9369   3.9369   4.3368
     4.3368   4.5199   4.5199   6.3468  10.0420  22.9664  29.9064  29.9064

     occupation numbers 
     1.0000   1.0000   1.0000   1.0000   1.0000   1.0000   1.0000   1.0000
     1.0000   1.0000   1.0000   1.0000   1.0000   0.0000   0.0000   0.0000

          k = 0.0000 0.0000 0.1512 (  1981 PWs)   bands (ev):

     1.3913   2.7270   3.6522   3.8914   3.8914   3.9238   3.9238   4.3722
     4.3722   4.4979   4.4979   5.0194  12.2281  20.0995  30.2639  30.2640

     occupation numbers 
     1.0000   1.0000   1.0000   1.0000   1.0000   1.0000   1.0000   1.0000
     1.0000   1.0000   1.0000   1.0000   0.0000   0.0000   0.0000   0.0000

          k = 0.0000 0.0000 0.2268 (  2005 PWs)   bands (ev):

     1.9187   2.4412   3.7624   3.8965   3.8965   3.9084   3.9084   4.1400
     4.4180   4.4180   4.4625   4.4625  14.6535  17.2896  30.7967  30.7967

     occupation numbers 
     1.0000   1.0000   1.0000   1.0000   1.0000   1.0000   1.0000   1.0000
     1.0000   1.0000   1.0000   1.0000   0.0000   0.0000   0.0000   0.0000

          k = 0.0000 0.0825 0.0000 (  1981 PWs)   bands (ev):

     1.0719   2.9162   3.6412   3.8747   3.9237   3.9314   3.9792   4.2861
     4.3084   4.4295   4.5285   7.9720   8.4774  25.0434  27.1128  28.4145

     occupation numbers 
     1.0000   1.0000   1.0000   1.0000   1.0000   1.0000   1.0000   1.0000
     1.0000   1.0000   1.0000   1.0000   1.0000   0.0000   0.0000   0.0000

          k = 0.0000 0.0825 0.0756 (  1988 PWs)   bands (ev):

     1.1934   2.9001   3.6435   3.8720   3.9172   3.9300   3.9739   4.3033
     4.3231   4.4124   4.5204   6.5435  10.1889  23.1158  27.2720  28.5452

     occupation numbers 
     1.0000   1.0000   1.0000   1.0000   1.0000   1.0000   1.0000   1.0000
     1.0000   1.0000   1.0000   1.0000   1.0000   0.0000   0.0000   0.0000

          k = 0.0000 0.0825 0.1512 (  1985 PWs)   bands (ev):

     1.5445   2.8211   3.6625   3.8691   3.9008   3.9290   3.9607   4.3146
     4.3613   4.3714   4.4964   5.2555  12.3775  20.2453  27.6463  28.9338

     occupation numbers 
     1.0000   1.0000   1.0000   1.0000   1.0000   1.0000   1.0000   1.0000
     1.0000   1.0000   1.0000   1.0000   0.0000   0.0000   0.0000   0.0000

          k = 0.0000 0.0825 0.2268 (  1990 PWs)   bands (ev):

     2.0635   2.5641   3.7498   3.8747   3.8801   3.9336   3.9452   4.0455
     4.4104   4.4371   4.4582   4.5968  14.8018  17.4363  28.2531  29.0849

     occupation numbers 
     1.0000   1.0000   1.0000   1.0000   1.0000   1.0000   1.0000   1.0000
     1.0000   1.0000   1.0000   1.0000   0.0000   0.0000   0.0000   0.0000

          k = 0.0000 0.1650 0.0000 (  1971 PWs)   bands (ev):

     1.5324   3.1043   3.6772   3.8360   3.9038   4.0418   4.0846   4.1220
     4.2694   4.2761   4.5295   8.6694   8.7278  23.6419  25.5327  26.6794

     occupation numbers 
     1.0000   1.0000   1.0000   1.0000   1.0000   1.0000   1.0000   1.0000
     1.0000   1.0000   1.0000   1.0000   1.0000   0.0000   0.0000   0.0000

          k = 0.0000 0.1650 0.0756 (  1977 PWs)   bands (ev):

     1.6501   3.0997   3.6790   3.8269   3.8873   4.0387   4.0787   4.1240
     4.2852   4.2879   4.5197   7.0404  10.6367  23.4317  23.9096  26.8179

     occupation numbers 
     1.0000   1.0000   1.0000   1.0000   1.0000   1.0000   1.0000   1.0000
     1.0000   1.0000   1.0000   1.0000   1.0000   0.0000   0.0000   0.0000

          k = 0.0000 0.1650 0.1512 (  1975 PWs)   bands (ev):

     1.9871   3.0620   3.6852   3.8121   3.8529   4.0349   4.0646   4.0698
     4.3340   4.3493   4.4910   5.7248  12.8248  20.6662  24.1819  26.7315

     occupation numbers 
     1.0000   1.0000   1.0000   1.0000   1.0000   1.0000   1.0000   1.0000
     1.0000   1.0000   1.0000   1.0000   0.0000   0.0000   0.0000   0.0000

          k = 0.0000 0.1650 0.2268 (  1980 PWs)   bands (ev):

     2.4700   2.8897   3.7140   3.7846   3.8420   3.9286   4.0377   4.0489
     4.3910   4.4463   4.5067   4.8798  15.2427  17.8689  24.7979  25.6548

     occupation numbers 
     1.0000   1.0000   1.0000   1.0000   1.0000   1.0000   1.0000   1.0000
     1.0000   1.0000   1.0000   1.0000   0.0000   0.0000   0.0000   0.0000

          k = 0.0000 0.2474 0.0000 (  1963 PWs)   bands (ev):

     2.2403   3.2804   3.7191   3.8026   3.8693   4.0107   4.1622   4.2058
     4.2173   4.2403   4.5268   9.2052   9.6820  20.3056  25.1509  25.7673

     occupation numbers 
     1.0000   1.0000   1.0000   1.0000   1.0000   1.0000   1.0000   1.0000
     1.0000   1.0000   1.0000   1.0000   1.0000   0.0000   0.0000   0.0000

          k = 0.0000 0.2474 0.0756 (  1969 PWs)   bands (ev):

     2.3424   3.2863   3.7156   3.7812   3.8601   4.0032   4.1856   4.2110
     4.2276   4.2609   4.5154   7.7547  11.3943  20.4230  24.2059  24.7225

     occupation numbers 
     1.0000   1.0000   1.0000   1.0000   1.0000   1.0000   1.0000   1.0000
     1.0000   1.0000   1.0000   1.0000   1.0000   0.0000   0.0000   0.0000

          k = 0.0000 0.2474 0.1512 (  1976 PWs)   bands (ev):

     2.6221   3.2890   3.6922   3.7299   3.8582   3.9797   4.1763   4.2146
     4.3142   4.3632   4.4828   6.3801  13.5634  20.6547  21.5540  23.4483

     occupation numbers 
     1.0000   1.0000   1.0000   1.0000   1.0000   1.0000   1.0000   1.0000
     1.0000   1.0000   1.0000   1.0000   0.0000   0.0000   0.0000   0.0000

          k = 0.0000 0.2474 0.2268 (  1968 PWs)   bands (ev):

     2.9756   3.2203   3.6598   3.6746   3.8900   3.9384   4.1816   4.1966
     4.3748   4.4337   4.6902   5.3408  15.9601  18.5460  21.5159  22.3606

     occupation numbers 
     1.0000   1.0000   1.0000   1.0000   1.0000   1.0000   1.0000   1.0000
     1.0000   1.0000   1.0000   1.0000   0.0000   0.0000   0.0000   0.0000

          k = 0.0000 0.3299 0.0000 (  1965 PWs)   bands (ev):

     2.9241   3.2893   3.6472   3.8115   3.9543   4.0501   4.1633   4.3877
     4.3941   4.4187   4.5203   9.9754  10.9419  17.2025  22.7600  23.6448

     occupation numbers 
     1.0000   1.0000   1.0000   1.0000   1.0000   1.0000   1.0000   1.0000
     1.0000   1.0000   1.0000   1.0000   1.0000   0.0000   0.0000   0.0000

          k = 0.0000 0.3299 0.0756 (  1963 PWs)   bands (ev):

     2.9657   3.2961   3.6378   3.7703   3.9204   4.1765   4.1951   4.3956
     4.4079   4.4119   4.5113   8.7082  12.4496  17.3251  21.6737  24.0448

     occupation numbers 
     1.0000   1.0000   1.0000   1.0000   1.0000   1.0000   1.0000   1.0000
     1.0000   1.0000   1.0000   1.0000   0.0000   0.0000   0.0000   0.0000

          k = 0.0000 0.3299 0.1512 (  1963 PWs)   bands (ev):

     3.0678   3.3048   3.6119   3.6599   4.0038   4.2135   4.2590   4.3731
     4.4170   4.4889   4.6724   7.3064  14.5674  17.6835  20.3989  22.2790

     occupation numbers 
     1.0000   1.0000   1.0000   1.0000   1.0000   1.0000   1.0000   1.0000
     1.0000   1.0000   1.0000   1.0000   0.0000   0.0000   0.0000   0.0000

          k = 0.0000 0.3299 0.2268 (  1958 PWs)   bands (ev):

     3.1857   3.2762   3.5827   3.5917   4.1111   4.2025   4.2668   4.3246
     4.4369   4.4620   5.2682   6.1504  16.8680  18.1692  19.3691  19.7683

     occupation numbers 
     1.0000   1.0000   1.0000   1.0000   1.0000   1.0000   1.0000   1.0000
     1.0000   1.0000   1.0000   1.0000   0.0000   0.0000   0.0000   0.0000

          k = 0.0000 0.4124 0.0000 (  1974 PWs)   bands (ev):

     3.1249   3.2249   3.4859   3.9376   3.9517   4.1168   4.1994   4.5124
     4.5688   4.5861   5.4557  11.0334  12.4125  14.4247  19.9283  21.0535

     occupation numbers 
     1.0000   1.0000   1.0000   1.0000   1.0000   1.0000   1.0000   1.0000
     1.0000   1.0000   1.0000   1.0000   0.0000   0.0000   0.0000   0.0000

          k = 0.0000 0.4124 0.0756 (  1964 PWs)   bands (ev):

     3.1235   3.2196   3.4997   3.7927   4.0277   4.1344   4.3077   4.4865
     4.5709   4.5905   5.5434   9.9239  13.7081  14.5689  18.9010  22.1783

     occupation numbers 
     1.0000   1.0000   1.0000   1.0000   1.0000   1.0000   1.0000   1.0000
     1.0000   1.0000   1.0000   1.0000   0.0000   0.0000   0.0000   0.0000

          k = 0.0000 0.4124 0.1512 (  1959 PWs)   bands (ev):

     3.1301   3.2175   3.5082   3.6281   4.1555   4.1842   4.4144   4.4242
     4.5764   4.5935   5.8623   8.5495  14.8403  15.6937  17.7939  22.7432

     occupation numbers 
     1.0000   1.0000   1.0000   1.0000   1.0000   1.0000   1.0000   1.0000
     1.0000   1.0000   1.0000   1.0000   0.0000   0.0000   0.0000   0.0000

          k = 0.0000 0.4124 0.2268 (  1949 PWs)   bands (ev):

     3.1617   3.2023   3.5030   3.5276   4.2580   4.3006   4.3430   4.4039
     4.5837   4.5904   6.4788   7.3850  15.4489  16.1656  18.5163  20.7956

     occupation numbers 
     1.0000   1.0000   1.0000   1.0000   1.0000   1.0000   1.0000   1.0000
     1.0000   1.0000   1.0000   1.0000   0.0000   0.0000   0.0000   0.0000

          k = 0.0000 0.4949 0.0000 (  1954 PWs)   bands (ev):

     3.1019   3.1805   3.3903   3.8841   4.0292   4.0856   4.3439   4.5061
     4.6907   4.7077   7.0880  11.2093  13.1561  14.0293  17.4046  18.7421

     occupation numbers 
     1.0000   1.0000   1.0000   1.0000   1.0000   1.0000   1.0000   1.0000
     1.0000   1.0000   1.0000   1.0000   0.0000   0.0000   0.0000   0.0000

          k = 0.0000 0.4949 0.0756 (  1947 PWs)   bands (ev):

     3.1060   3.1532   3.4170   3.7727   4.0905   4.1050   4.4219   4.4832
     4.6920   4.7077   7.1884  10.8841  12.5321  14.9883  16.7827  19.8748

     occupation numbers 
     1.0000   1.0000   1.0000   1.0000   1.0000   1.0000   1.0000   1.0000
     1.0000   1.0000   1.0000   1.0000   0.0000   0.0000   0.0000   0.0000

          k = 0.0000 0.4949 0.1512 (  1960 PWs)   bands (ev):

     3.1023   3.1387   3.4414   3.6003   4.1601   4.2319   4.4209   4.5135
     4.6953   4.7067   7.5094   9.9259  12.5283  14.6897  17.8231  21.4914

     occupation numbers 
     1.0000   1.0000   1.0000   1.0000   1.0000   1.0000   1.0000   1.0000
     1.0000   1.0000   1.0000   1.0000   0.0000   0.0000   0.0000   0.0000

          k = 0.0000 0.4949 0.2268 (  1955 PWs)   bands (ev):

     3.1111   3.1341   3.4475   3.4843   4.2414   4.3343   4.3948   4.5058
     4.6996   4.7038   8.0822   8.9069  13.0086  13.7661  19.8733  21.7495

     occupation numbers 
     1.0000   1.0000   1.0000   1.0000   1.0000   1.0000   1.0000   1.0000
     1.0000   1.0000   1.0000   1.0000   0.0000   0.0000   0.0000   0.0000

          k = 0.0000-0.5774 0.0000 (  1946 PWs)   bands (ev):

     3.0819   3.1638   3.3589   3.8600   4.0617   4.0746   4.3902   4.5037
     4.7342   4.7527   8.7156   9.5137  14.1857  15.1807  15.7912  17.3578

     occupation numbers 
     1.0000   1.0000   1.0000   1.0000   1.0000   1.0000   1.0000   1.0000
     1.0000   1.0000   1.0000   1.0000   0.0000   0.0000   0.0000   0.0000

          k = 0.0000-0.5774 0.0756 (  1944 PWs)   bands (ev):

     3.0898   3.1287   3.3895   3.7600   4.0946   4.1145   4.4624   4.4809
     4.7354   4.7519   8.8156   9.5604  13.5807  13.9357  17.3082  18.1858

     occupation numbers 
     1.0000   1.0000   1.0000   1.0000   1.0000   1.0000   1.0000   1.0000
     1.0000   1.0000   1.0000   1.0000   0.0000   0.0000   0.0000   0.0000

          k = 0.0000-0.5774 0.1512 (  1956 PWs)   bands (ev):

     3.0902   3.1059   3.4184   3.5890   4.1513   4.2554   4.4182   4.5486
     4.7384   4.7496   9.1032   9.6770  12.5946  12.7595  19.2831  19.8381

     occupation numbers 
     1.0000   1.0000   1.0000   1.0000   1.0000   1.0000   1.0000   1.0000
     1.0000   1.0000   1.0000   1.0000   0.0000   0.0000   0.0000   0.0000

          k = 0.0000-0.5774 0.2268 (  1952 PWs)   bands (ev):

     3.0905   3.1083   3.4280   3.4688   4.2348   4.3300   4.4229   4.5380
     4.7423   4.7462   9.4947   9.7324  11.9370  12.0127  21.1862  21.4543

     occupation numbers 
     1.0000   1.0000   1.0000   1.0000   1.0000   1.0000   1.0000   1.0000
     1.0000   1.0000   1.0000   1.0000   0.0000   0.0000   0.0000   0.0000

          k = 0.0714 0.1237 0.0000 (  1973 PWs)   bands (ev):

     1.3813   3.0494   3.6686   3.8478   3.8871   4.0111   4.0584   4.2042
     4.2332   4.3408   4.5255   8.4476   8.6414  25.3789  25.3951  25.4877

     occupation numbers 
     1.0000   1.0000   1.0000   1.0000   1.0000   1.0000   1.0000   1.0000
     1.0000   1.0000   1.0000   1.0000   1.0000   0.0000   0.0000   0.0000

          k = 0.0714 0.1237 0.0756 (  1977 PWs)   bands (ev):

     1.5005   3.0414   3.6703   3.8388   3.8777   4.0084   4.0525   4.1969
     4.2618   4.3401   4.5167   6.8852  10.4866  23.3967  25.5233  25.6697

     occupation numbers 
     1.0000   1.0000   1.0000   1.0000   1.0000   1.0000   1.0000   1.0000
     1.0000   1.0000   1.0000   1.0000   1.0000   0.0000   0.0000   0.0000

          k = 0.0714 0.1237 0.1512 (  1980 PWs)   bands (ev):

     1.8434   2.9912   3.6798   3.8268   3.8528   4.0042   4.0387   4.1310
     4.3398   4.3575   4.4912   5.5840  12.6760  20.5303  25.9054  26.0405

     occupation numbers 
     1.0000   1.0000   1.0000   1.0000   1.0000   1.0000   1.0000   1.0000
     1.0000   1.0000   1.0000   1.0000   0.0000   0.0000   0.0000   0.0000

          k = 0.0714 0.1237 0.2268 (  1990 PWs)   bands (ev):

     2.3411   2.7912   3.7258   3.8130   3.8378   3.9418   4.0171   4.0237
     4.3999   4.4419   4.4861   4.7927  15.0966  17.7264  26.5318  26.6459

     occupation numbers 
     1.0000   1.0000   1.0000   1.0000   1.0000   1.0000   1.0000   1.0000
     1.0000   1.0000   1.0000   1.0000   0.0000   0.0000   0.0000   0.0000

          k = 0.0714 0.2062 0.0000 (  1958 PWs)   bands (ev):

     1.9735   3.2522   3.6820   3.8106   3.8892   3.9722   4.1524   4.1595
     4.2159   4.2817   4.5183   9.0079   9.2934  22.0385  23.9549  25.9310

     occupation numbers 
     1.0000   1.0000   1.0000   1.0000   1.0000   1.0000   1.0000   1.0000
     1.0000   1.0000   1.0000   1.0000   1.0000   0.0000   0.0000   0.0000

          k = 0.0714 0.2062 0.0756 (  1966 PWs)   bands (ev):

     2.0846   3.2561   3.6887   3.7908   3.8535   3.9762   4.1491   4.1969
     4.2112   4.2994   4.5092   7.4793  11.0917  22.1457  23.8530  24.2485

     occupation numbers 
     1.0000   1.0000   1.0000   1.0000   1.0000   1.0000   1.0000   1.0000
     1.0000   1.0000   1.0000   1.0000   1.0000   0.0000   0.0000   0.0000

          k = 0.0714 0.2062 0.1512 (  1973 PWs)   bands (ev):

     2.3973   3.2502   3.6997   3.7493   3.7953   3.9425   4.1402   4.1917
     4.3224   4.3480   4.4859   6.1261  13.2705  21.0429  22.6178  24.4977

     occupation numbers 
     1.0000   1.0000   1.0000   1.0000   1.0000   1.0000   1.0000   1.0000
     1.0000   1.0000   1.0000   1.0000   0.0000   0.0000   0.0000   0.0000

          k = 0.0714 0.2062 0.2268 (  1974 PWs)   bands (ev):

     2.8227   3.1490   3.6845   3.7034   3.7958   3.8639   4.1500   4.1701
     4.3847   4.4297   4.6128   5.1550  15.6781  18.2896  23.2127  24.0711

     occupation numbers 
     1.0000   1.0000   1.0000   1.0000   1.0000   1.0000   1.0000   1.0000
     1.0000   1.0000   1.0000   1.0000   0.0000   0.0000   0.0000   0.0000

          k = 0.0714 0.2887 0.0000 (  1967 PWs)   bands (ev):

     2.7240   3.3548   3.7420   3.7535   3.7920   4.0446   4.0635   4.2116
     4.3434   4.4665   4.5091   9.6414  10.4206  18.8191  22.7013  24.3581

     occupation numbers 
     1.0000   1.0000   1.0000   1.0000   1.0000   1.0000   1.0000   1.0000
     1.0000   1.0000   1.0000   1.0000   1.0000   0.0000   0.0000   0.0000

          k = 0.0714 0.2887 0.0756 (  1969 PWs)   bands (ev):

     2.7999   3.3648   3.7095   3.7484   3.7921   4.0208   4.1576   4.2085
     4.3581   4.4435   4.5242   8.3082  12.0041  18.9410  22.8186  23.2738

     occupation numbers 
     1.0000   1.0000   1.0000   1.0000   1.0000   1.0000   1.0000   1.0000
     1.0000   1.0000   1.0000   1.0000   0.0000   0.0000   0.0000   0.0000

          k = 0.0714 0.2887 0.1512 (  1965 PWs)   bands (ev):

     2.9922   3.3822   3.6522   3.6879   3.8426   3.9926   4.2147   4.3294
     4.3656   4.4343   4.5974   6.9154  14.1487  19.2858  21.9162  21.9976

     occupation numbers 
     1.0000   1.0000   1.0000   1.0000   1.0000   1.0000   1.0000   1.0000
     1.0000   1.0000   1.0000   1.0000   0.0000   0.0000   0.0000   0.0000

          k = 0.0714 0.2887 0.2268 (  1966 PWs)   bands (ev):

     3.2060   3.3493   3.6117   3.6384   3.8989   3.9511   4.2488   4.3033
     4.4203   4.4471   5.0082   5.8008  16.5160  18.9614  20.1752  20.9080

     occupation numbers 
     1.0000   1.0000   1.0000   1.0000   1.0000   1.0000   1.0000   1.0000
     1.0000   1.0000   1.0000   1.0000   0.0000   0.0000   0.0000   0.0000

          k = 0.0714 0.3712 0.0000 (  1969 PWs)   bands (ev):

     3.1598   3.3038   3.5606   3.8809   3.9774   4.0147   4.1422   4.3321
     4.4988   4.5182   5.0611  10.5898  11.7813  15.8597  21.4139  21.7224

     occupation numbers 
     1.0000   1.0000   1.0000   1.0000   1.0000   1.0000   1.0000   1.0000
     1.0000   1.0000   1.0000   1.0000   0.0000   0.0000   0.0000   0.0000

          k = 0.0714 0.3712 0.0756 (  1967 PWs)   bands (ev):

     3.1652   3.3080   3.5704   3.7761   3.9520   4.1505   4.2030   4.3297
     4.4730   4.5281   5.1237   9.4071  13.1930  15.9833  20.3474  21.8505

     occupation numbers 
     1.0000   1.0000   1.0000   1.0000   1.0000   1.0000   1.0000   1.0000
     1.0000   1.0000   1.0000   1.0000   0.0000   0.0000   0.0000   0.0000

          k = 0.0714 0.3712 0.1512 (  1961 PWs)   bands (ev):

     3.1904   3.3159   3.5700   3.6377   4.0315   4.1898   4.2769   4.4024
     4.4253   4.5453   5.3855   8.0169  15.2483  16.3508  19.1016  22.1811

     occupation numbers 
     1.0000   1.0000   1.0000   1.0000   1.0000   1.0000   1.0000   1.0000
     1.0000   1.0000   1.0000   1.0000   0.0000   0.0000   0.0000   0.0000

          k = 0.0714 0.3712 0.2268 (  1957 PWs)   bands (ev):

     3.2418   3.2977   3.5507   3.5649   4.1367   4.2177   4.2563   4.3240
     4.5160   4.5492   5.9639   6.8547  16.9027  17.1854  18.4282  20.3215

     occupation numbers 
     1.0000   1.0000   1.0000   1.0000   1.0000   1.0000   1.0000   1.0000
     1.0000   1.0000   1.0000   1.0000   0.0000   0.0000   0.0000   0.0000

          k = 0.0714 0.4536 0.0000 (  1964 PWs)   bands (ev):

     3.1726   3.2511   3.4401   3.9085   3.9937   4.0879   4.2328   4.4895
     4.5586   4.6449   6.3929  11.6441  13.3363  13.4233  18.7229  19.9501

     occupation numbers 
     1.0000   1.0000   1.0000   1.0000   1.0000   1.0000   1.0000   1.0000
     1.0000   1.0000   1.0000   0.0000   0.0000   0.0000   0.0000   0.0000

          k = 0.0714 0.4536 0.0756 (  1965 PWs)   bands (ev):

     3.1736   3.2289   3.4690   3.7812   4.0400   4.1206   4.3294   4.4650
     4.5565   4.6478   6.4913  10.7083  13.3439  14.6286  17.7776  21.1091

     occupation numbers 
     1.0000   1.0000   1.0000   1.0000   1.0000   1.0000   1.0000   1.0000
     1.0000   1.0000   1.0000   1.0000   0.0000   0.0000   0.0000   0.0000

          k = 0.0714 0.4536 0.1512 (  1961 PWs)   bands (ev):

     3.1684   3.2215   3.4927   3.6152   4.1086   4.2222   4.3992   4.4381
     4.5613   4.6511   6.8143   9.4033  13.6899  15.7407  17.3986  21.5665

     occupation numbers 
     1.0000   1.0000   1.0000   1.0000   1.0000   1.0000   1.0000   1.0000
     1.0000   1.0000   1.0000   1.0000   0.0000   0.0000   0.0000   0.0000

          k = 0.0714 0.4536 0.2268 (  1949 PWs)   bands (ev):

     3.1841   3.2144   3.4905   3.5132   4.2034   4.3051   4.3428   4.4283
     4.6036   4.6397   7.4067   8.2782  14.2728  15.0569  19.2450  21.4013

     occupation numbers 
     1.0000   1.0000   1.0000   1.0000   1.0000   1.0000   1.0000   1.0000
     1.0000   1.0000   1.0000   1.0000   0.0000   0.0000   0.0000   0.0000

          k = 0.0714 0.5361 0.0000 (  1950 PWs)   bands (ev):

     3.1327   3.2204   3.3809   3.8701   4.0559   4.0584   4.3415   4.4839
     4.6732   4.7024   8.1689  10.3880  13.8651  14.9189  16.4448  17.9007

     occupation numbers 
     1.0000   1.0000   1.0000   1.0000   1.0000   1.0000   1.0000   1.0000
     1.0000   1.0000   1.0000   1.0000   0.0000   0.0000   0.0000   0.0000

          k = 0.0714 0.5361 0.0756 (  1951 PWs)   bands (ev):

     3.1407   3.1819   3.4182   3.7679   4.0470   4.1365   4.4199   4.4597
     4.6699   4.7013   8.2697  10.4006  13.0019  14.7714  16.9443  18.9379

     occupation numbers 
     1.0000   1.0000   1.0000   1.0000   1.0000   1.0000   1.0000   1.0000
     1.0000   1.0000   1.0000   1.0000   0.0000   0.0000   0.0000   0.0000

          k = 0.0714 0.5361 0.1512 (  1956 PWs)   bands (ev):

     3.1391   3.1622   3.4504   3.6003   4.0988   4.2725   4.3920   4.5239
     4.6601   4.6959   8.5777  10.2823  12.1848  13.7439  18.7175  20.6583

     occupation numbers 
     1.0000   1.0000   1.0000   1.0000   1.0000   1.0000   1.0000   1.0000
     1.0000   1.0000   1.0000   1.0000   0.0000   0.0000   0.0000   0.0000

          k = 0.0714 0.5361 0.2268 (  1955 PWs)   bands (ev):

     3.1430   3.1639   3.4551   3.4870   4.1909   4.2961   4.4248   4.5301
     4.6628   4.6823   9.0924   9.7510  12.1936  12.8071  20.7161  21.7676

     occupation numbers 
     1.0000   1.0000   1.0000   1.0000   1.0000   1.0000   1.0000   1.0000
     1.0000   1.0000   1.0000   1.0000   0.0000   0.0000   0.0000   0.0000

          k = 0.1429 0.2474 0.0000 (  1971 PWs)   bands (ev):

     2.6441   3.4370   3.6278   3.7901   3.7933   3.9100   4.0466   4.2489
     4.3371   4.4867   4.4936   9.5373  10.2433  20.5852  20.7892  25.9797

     occupation numbers 
     1.0000   1.0000   1.0000   1.0000   1.0000   1.0000   1.0000   1.0000
     1.0000   1.0000   1.0000   1.0000   1.0000   0.0000   0.0000   0.0000

          k = 0.1429 0.2474 0.0756 (  1968 PWs)   bands (ev):

     2.7332   3.4509   3.6377   3.7297   3.8301   3.8473   4.1430   4.2272
     4.3642   4.4363   4.5350   8.1787  11.8564  20.7156  20.8992  24.5886

     occupation numbers 
     1.0000   1.0000   1.0000   1.0000   1.0000   1.0000   1.0000   1.0000
     1.0000   1.0000   1.0000   1.0000   0.0000   0.0000   0.0000   0.0000

          k = 0.1429 0.2474 0.1512 (  1968 PWs)   bands (ev):

     2.9686   3.4845   3.6497   3.6677   3.7576   3.8289   4.2126   4.3184
     4.3806   4.4060   4.6132   6.7935  14.0088  21.0394  21.1042  22.0855

     occupation numbers 
     1.0000   1.0000   1.0000   1.0000   1.0000   1.0000   1.0000   1.0000
     1.0000   1.0000   1.0000   1.0000   0.0000   0.0000   0.0000   0.0000

          k = 0.1429 0.2474 0.2268 (  1966 PWs)   bands (ev):

     3.2502   3.4540   3.6076   3.6697   3.7206   3.7825   4.2392   4.2961
     4.4367   4.4380   4.9599   5.7034  16.3899  18.9488  21.7436  22.0444

     occupation numbers 
     1.0000   1.0000   1.0000   1.0000   1.0000   1.0000   1.0000   1.0000
     1.0000   1.0000   1.0000   1.0000   0.0000   0.0000   0.0000   0.0000

          k = 0.1429 0.3299 0.0000 (  1967 PWs)   bands (ev):

     3.2770   3.4605   3.6269   3.7045   3.8261   3.9634   4.0410   4.1816
     4.4689   4.5077   5.0172  10.3770  11.4610  17.5973  19.6059  23.1713

     occupation numbers 
     1.0000   1.0000   1.0000   1.0000   1.0000   1.0000   1.0000   1.0000
     1.0000   1.0000   1.0000   1.0000   1.0000   0.0000   0.0000   0.0000

          k = 0.1429 0.3299 0.0756 (  1965 PWs)   bands (ev):

     3.2951   3.4751   3.6114   3.7067   3.7934   3.9688   4.1431   4.1770
     4.4427   4.5207   5.0674   9.1589  12.9183  17.7223  19.7313  22.0740

     occupation numbers 
     1.0000   1.0000   1.0000   1.0000   1.0000   1.0000   1.0000   1.0000
     1.0000   1.0000   1.0000   1.0000   0.0000   0.0000   0.0000   0.0000

          k = 0.1429 0.3299 0.1512 (  1962 PWs)   bands (ev):

     3.3411   3.5106   3.5621   3.7005   3.7945   3.9431   4.1806   4.3533
     4.3764   4.5442   5.2745   7.7715  15.0184  18.0890  20.0885  20.7939

     occupation numbers 
     1.0000   1.0000   1.0000   1.0000   1.0000   1.0000   1.0000   1.0000
     1.0000   1.0000   1.0000   1.0000   0.0000   0.0000   0.0000   0.0000

          k = 0.1429 0.3299 0.2268 (  1962 PWs)   bands (ev):

     3.4028   3.4721   3.5906   3.6538   3.8436   3.8980   4.2206   4.2935
     4.5011   4.5496   5.7812   6.6293  17.3061  18.6037  19.7427  19.9761

     occupation numbers 
     1.0000   1.0000   1.0000   1.0000   1.0000   1.0000   1.0000   1.0000
     1.0000   1.0000   1.0000   1.0000   0.0000   0.0000   0.0000   0.0000

          k = 0.1429 0.4124 0.0000 (  1971 PWs)   bands (ev):

     3.3497   3.4136   3.5074   3.9077   3.9395   4.0052   4.1003   4.2604
     4.4487   4.6187   6.0855  11.5243  12.9082  14.8117  18.7983  20.3506

     occupation numbers 
     1.0000   1.0000   1.0000   1.0000   1.0000   1.0000   1.0000   1.0000
     1.0000   1.0000   1.0000   0.2506   0.0000   0.0000   0.0000   0.0000

          k = 0.1429 0.4124 0.0756 (  1970 PWs)   bands (ev):

     3.3463   3.3881   3.5541   3.7580   3.9429   4.1143   4.1810   4.2546
     4.4225   4.6256   6.1777  10.4271  14.2002  14.9541  18.9237  19.3105

     occupation numbers 
     1.0000   1.0000   1.0000   1.0000   1.0000   1.0000   1.0000   1.0000
     1.0000   1.0000   1.0000   1.0000   0.0000   0.0000   0.0000   0.0000

          k = 0.1429 0.4124 0.1512 (  1955 PWs)   bands (ev):

     3.3278   3.3986   3.5778   3.6292   3.9773   4.1472   4.2241   4.3518
     4.3959   4.6344   6.4848   9.0704  15.2602  16.1649  18.1633  19.3119

     occupation numbers 
     1.0000   1.0000   1.0000   1.0000   1.0000   1.0000   1.0000   1.0000
     1.0000   1.0000   1.0000   1.0000   0.0000   0.0000   0.0000   0.0000

          k = 0.1429 0.4124 0.2268 (  1954 PWs)   bands (ev):

     3.3433   3.3871   3.5522   3.5830   4.0617   4.1460   4.2156   4.2713
     4.5430   4.6169   7.0631   7.9319  15.8724  16.6182  18.8526  19.8744

     occupation numbers 
     1.0000   1.0000   1.0000   1.0000   1.0000   1.0000   1.0000   1.0000
     1.0000   1.0000   1.0000   1.0000   0.0000   0.0000   0.0000   0.0000

          k = 0.1429 0.4949 0.0000 (  1965 PWs)   bands (ev):

     3.2790   3.3769   3.4372   3.8820   4.0303   4.0361   4.1797   4.4351
     4.4678   4.6489   7.6764  11.7795  13.5302  14.5233  17.8059  18.3134

     occupation numbers 
     1.0000   1.0000   1.0000   1.0000   1.0000   1.0000   1.0000   1.0000
     1.0000   1.0000   1.0000   0.0000   0.0000   0.0000   0.0000   0.0000

          k = 0.1429 0.4949 0.0756 (  1959 PWs)   bands (ev):

     3.2874   3.3207   3.5028   3.7738   3.9825   4.1288   4.2776   4.4070
     4.4612   4.6507   7.7825  11.4980  12.8724  15.5025  17.1422  18.4380

     occupation numbers 
     1.0000   1.0000   1.0000   1.0000   1.0000   1.0000   1.0000   1.0000
     1.0000   1.0000   1.0000   1.0001   0.0000   0.0000   0.0000   0.0000

          k = 0.1429 0.4949 0.1512 (  1958 PWs)   bands (ev):

     3.2746   3.3171   3.5458   3.6202   3.9998   4.2375   4.3266   4.4253
     4.4413   4.6474   8.1122  10.5340  12.8894  15.1510  18.2051  18.8269

     occupation numbers 
     1.0000   1.0000   1.0000   1.0000   1.0000   1.0000   1.0000   1.0000
     1.0000   1.0000   1.0000   1.0000   0.0000   0.0000   0.0000   0.0000

          k = 0.1429 0.4949 0.2268 (  1956 PWs)   bands (ev):

     3.2851   3.3187   3.5308   3.5367   4.0910   4.2104   4.3361   4.4000
     4.5433   4.6174   8.6864   9.5089  13.4029  14.1898  19.4501  19.9701

     occupation numbers 
     1.0000   1.0000   1.0000   1.0000   1.0000   1.0000   1.0000   1.0000
     1.0000   1.0000   1.0000   1.0000   0.0000   0.0000   0.0000   0.0000

          k = 0.1429 0.5774 0.0000 (  1966 PWs)   bands (ev):

     3.2523   3.3590   3.4142   3.8774   4.0006   4.0685   4.2397   4.4302
     4.5874   4.6073   9.3735   9.9481  14.7027  15.7138  16.1279  17.7009

     occupation numbers 
     1.0000   1.0000   1.0000   1.0000   1.0000   1.0000   1.0000   1.0000
     1.0000   1.0000   1.0000   1.0000   0.0000   0.0000   0.0000   0.0000

          k = 0.1429 0.5774 0.0756 (  1953 PWs)   bands (ev):

     3.2631   3.2965   3.4838   3.7793   3.9659   4.1546   4.3186   4.4022
     4.5842   4.6042   9.4839  10.0160  14.0626  14.3616  17.7378  18.2741

     occupation numbers 
     1.0000   1.0000   1.0000   1.0000   1.0000   1.0000   1.0000   1.0000
     1.0000   1.0000   1.0000   1.0000   0.0000   0.0000   0.0000   0.0000

          k = 0.1429 0.5774 0.1512 (  1956 PWs)   bands (ev):

     3.2549   3.2872   3.5286   3.6227   3.9866   4.2930   4.3186   4.4341
     4.5742   4.5880   9.7974  10.2032  13.0206  13.1353  18.6606  19.7344

     occupation numbers 
     1.0000   1.0000   1.0000   1.0000   1.0000   1.0000   1.0000   1.0000
     1.0000   1.0000   1.0000   1.0000   0.0000   0.0000   0.0000   0.0000

          k = 0.1429 0.5774 0.2268 (  1960 PWs)   bands (ev):

     3.2635   3.2932   3.5197   3.5256   4.0815   4.2048   4.4283   4.4972
     4.5472   4.5553  10.2120  10.3850  12.2765  12.3318  19.2959  20.1126

     occupation numbers 
     1.0000   1.0000   1.0000   1.0000   1.0000   1.0000   1.0000   1.0000
     1.0000   1.0000   1.0000   1.0000   0.0000   0.0000   0.0000   0.0000

          k = 0.2143 0.3712 0.0000 (  1963 PWs)   bands (ev):

     3.5173   3.5429   3.5834   3.7542   3.8906   3.8933   4.1038   4.1165
     4.4242   4.6136   6.0112  11.4491  12.7641  16.5522  16.7840  22.1709

     occupation numbers 
     1.0000   1.0000   1.0000   1.0000   1.0000   1.0000   1.0000   1.0000
     1.0000   1.0000   1.0000   1.0000   0.0000   0.0000   0.0000   0.0000

          k = 0.2143 0.3712 0.0756 (  1970 PWs)   bands (ev):

     3.5053   3.5322   3.6369   3.6481   3.8784   3.9596   4.1139   4.1836
     4.3980   4.6219   6.1002  10.3240  14.1143  16.6815  16.9083  21.0233

     occupation numbers 
     1.0000   1.0000   1.0000   1.0000   1.0000   1.0000   1.0000   1.0000
     1.0000   1.0000   1.0000   1.0000   0.0000   0.0000   0.0000   0.0000

          k = 0.2143 0.3712 0.1512 (  1956 PWs)   bands (ev):

     3.4724   3.5373   3.5776   3.7010   3.8521   3.9588   4.1224   4.3266
     4.3790   4.6329   6.3978   8.9616  16.1255  17.0683  17.2721  19.6980

     occupation numbers 
     1.0000   1.0000   1.0000   1.0000   1.0000   1.0000   1.0000   1.0000
     1.0000   1.0000   1.0000   1.0000   0.0000   0.0000   0.0000   0.0000

          k = 0.2143 0.3712 0.2268 (  1958 PWs)   bands (ev):

     3.4616   3.4798   3.6379   3.6984   3.8681   3.9196   4.1640   4.2398
     4.5368   4.6156   6.9645   7.8256  17.6963  17.8250  17.9751  18.5843

     occupation numbers 
     1.0000   1.0000   1.0000   1.0000   1.0000   1.0000   1.0000   1.0000
     1.0000   1.0000   1.0000   1.0000   0.0000   0.0000   0.0000   0.0000

          k = 0.2143 0.4536 0.0000 (  1975 PWs)   bands (ev):

     3.4782   3.4936   3.5704   3.8641   3.9445   4.0082   4.0308   4.2415
     4.3890   4.6302   7.4530  12.7191  14.1327  14.2926  16.0301  19.5652

     occupation numbers 
     1.0000   1.0000   1.0000   1.0000   1.0000   1.0000   1.0000   1.0000
     1.0000   1.0000   1.0000   0.0000   0.0000   0.0000   0.0000   0.0000

          k = 0.2143 0.4536 0.0756 (  1962 PWs)   bands (ev):

     3.4573   3.4927   3.6229   3.7420   3.9269   4.0573   4.1024   4.2690
     4.3613   4.6358   7.5609  11.7490  14.1429  15.5447  16.1588  18.5632

     occupation numbers 
     1.0000   1.0000   1.0000   1.0000   1.0000   1.0000   1.0000   1.0000
     1.0000   1.0000   1.0000   0.0000   0.0000   0.0000   0.0000   0.0000

          k = 0.2143 0.4536 0.1512 (  1961 PWs)   bands (ev):

     3.4293   3.5266   3.6008   3.6970   3.8944   4.0871   4.1450   4.2907
     4.3956   4.6393   7.8966  10.4467  14.5031  16.5209  16.7219  17.9848

     occupation numbers 
     1.0000   1.0000   1.0000   1.0000   1.0000   1.0000   1.0000   1.0000
     1.0000   1.0000   1.0000   1.0000   0.0000   0.0000   0.0000   0.0000

          k = 0.2143 0.4536 0.2268 (  1957 PWs)   bands (ev):

     3.4387   3.4890   3.6057   3.6696   3.9556   4.0493   4.1676   4.2166
     4.5313   4.6125   8.4849   9.3389  15.1093  15.9279  17.1645  17.9587

     occupation numbers 
     1.0000   1.0000   1.0000   1.0000   1.0000   1.0000   1.0000   1.0000
     1.0000   1.0000   1.0000   1.0000   0.0000   0.0000   0.0000   0.0000

          k = 0.2143 0.5361 0.0000 (  1958 PWs)   bands (ev):

     3.4380   3.4723   3.5512   3.8778   3.9506   4.0404   4.0690   4.3700
     4.4077   4.5656   9.2542  11.3858  14.7534  15.6855  15.9127  17.2552

     occupation numbers 
     1.0000   1.0000   1.0000   1.0000   1.0000   1.0000   1.0000   1.0000
     1.0000   1.0000   1.0000   1.0000   0.0000   0.0000   0.0000   0.0000

          k = 0.2143 0.5361 0.0756 (  1961 PWs)   bands (ev):

     3.4318   3.4514   3.6147   3.7818   3.8932   4.1076   4.1473   4.3407
     4.4132   4.5708   9.3660  11.4530  13.8256  15.6584  15.8986  17.7052

     occupation numbers 
     1.0000   1.0000   1.0000   1.0000   1.0000   1.0000   1.0000   1.0000
     1.0000   1.0000   1.0000   1.0000   0.0000   0.0000   0.0000   0.0000

          k = 0.2143 0.5361 0.1512 (  1956 PWs)   bands (ev):

     3.4057   3.4840   3.6451   3.6780   3.8629   4.1621   4.2281   4.2908
     4.4415   4.5760   9.7019  11.4971  12.8651  14.6099  16.2243  18.6182

     occupation numbers 
     1.0000   1.0000   1.0000   1.0000   1.0000   1.0000   1.0000   1.0000
     1.0000   1.0000   1.0000   1.0000   0.0000   0.0000   0.0000   0.0000

          k = 0.2143 0.5361 0.2268 (  1960 PWs)   bands (ev):

     3.4253   3.4819   3.5903   3.6417   3.9536   4.0824   4.2650   4.2885
     4.5048   4.5583  10.2565  10.9756  12.8994  13.6074  16.8499  17.6974

     occupation numbers 
     1.0000   1.0000   1.0000   1.0000   1.0000   1.0000   1.0000   1.0000
     1.0000   1.0000   1.0000   1.0000   0.0000   0.0000   0.0000   0.0000

          k = 0.2857 0.4949 0.0000 (  1963 PWs)   bands (ev):

     3.5063   3.5883   3.6558   3.8539   3.9075   3.9496   4.0423   4.3000
     4.3420   4.5567   9.1399  13.1557  13.5393  14.7972  15.8891  18.8940

     occupation numbers 
     1.0000   1.0000   1.0000   1.0000   1.0000   1.0000   1.0000   1.0000
     1.0000   1.0000   1.0000   0.0000   0.0000   0.0000   0.0000   0.0000

          k = 0.2857 0.4949 0.0756 (  1960 PWs)   bands (ev):

     3.5033   3.5985   3.6863   3.7501   3.9046   3.9898   4.0694   4.3126
     4.3306   4.5646   9.2548  12.9729  13.6686  14.0609  16.8173  17.8939

     occupation numbers 
     1.0000   1.0000   1.0000   1.0000   1.0000   1.0000   1.0000   1.0000
     1.0000   1.0000   1.0000   0.0000   0.0000   0.0000   0.0000   0.0000

          k = 0.2857 0.4949 0.1512 (  1955 PWs)   bands (ev):

     3.5041   3.6195   3.6524   3.7652   3.8264   4.0224   4.1044   4.2433
     4.4136   4.5753   9.6029  12.0464  14.0498  14.0568  16.5016  16.5612

     occupation numbers 
     1.0000   1.0000   1.0000   1.0000   1.0000   1.0000   1.0000   1.0000
     1.0000   1.0000   1.0000   0.0000   0.0000   0.0000   0.0000   0.0000

          k = 0.2857 0.4949 0.2268 (  1959 PWs)   bands (ev):

     3.5209   3.5625   3.6841   3.7492   3.8714   3.9735   4.1357   4.1764
     4.5051   4.5615  10.1913  11.0190  14.5790  14.6475  15.4963  15.5671

     occupation numbers 
     1.0000   1.0000   1.0000   1.0000   1.0000   1.0000   1.0000   1.0000
     1.0000   1.0000   1.0000   1.0000   0.0000   0.0000   0.0000   0.0000

          k = 0.2857 0.5774 0.0000 (  1958 PWs)   bands (ev):

     3.5168   3.6266   3.6934   3.8705   3.8796   3.8869   4.0710   4.3242
     4.3878   4.4616  11.0624  11.1850  13.2545  16.1676  17.2385  17.2793

     occupation numbers 
     1.0000   1.0000   1.0000   1.0000   1.0000   1.0000   1.0000   1.0000
     1.0000   1.0000   1.0000   1.0000   0.0000   0.0000   0.0000   0.0000

          k = 0.2857 0.5774 0.0756 (  1954 PWs)   bands (ev):

     3.5252   3.6334   3.6981   3.7893   3.8642   3.9469   4.0885   4.2946
     4.4061   4.4765  11.1871  11.2834  13.3615  15.4767  15.7087  17.5866

     occupation numbers 
     1.0000   1.0000   1.0000   1.0000   1.0000   1.0000   1.0000   1.0000
     1.0000   1.0000   1.0000   1.0000   0.0000   0.0000   0.0000   0.0000

          k = 0.2857 0.5774 0.1512 (  1962 PWs)   bands (ev):

     3.5425   3.6449   3.7090   3.7179   3.8466   3.9761   4.1147   4.2232
     4.4524   4.5056  11.5437  11.5742  13.5897  14.3520  14.5569  16.4139

     occupation numbers 
     1.0000   1.0000   1.0000   1.0000   1.0000   1.0000   1.0000   1.0000
     1.0000   1.0000   0.0000   0.0000   0.0000   0.0000   0.0000   0.0000

          k = 0.2857 0.5774 0.2268 (  1959 PWs)   bands (ev):

     3.5669   3.6095   3.7018   3.7237   3.8798   3.9491   4.1324   4.1594
     4.4995   4.5194  11.9949  12.0199  13.2698  13.4145  14.5838  15.3698

     occupation numbers 
     1.0000   1.0000   1.0000   1.0000   1.0000   1.0000   1.0000   1.0000
     1.0000   1.0000   0.0000   0.0000   0.0000   0.0000   0.0000   0.0000

 ------ SPIN DOWN ----------


          k = 0.0000 0.0000 0.0000 (  1993 PWs)   bands (ev):

     0.9149   2.8423   3.6228   3.8925   3.8925   3.9420   3.9420   4.3232
     4.3232   4.5273   4.5273   7.7121   8.4004  24.8689  28.5493  29.7828

     occupation numbers 
     1.0000   1.0000   1.0000   1.0000   1.0000   1.0000   1.0000   1.0000
     1.0000   1.0000   1.0000   1.0000   1.0000   0.0000   0.0000   0.0000

          k = 0.0000 0.0000 0.0756 (  1981 PWs)   bands (ev):

     1.0372   2.8218   3.6265   3.8915   3.8915   3.9369   3.9369   4.3368
     4.3368   4.5199   4.5199   6.3468  10.0420  22.9664  29.9064  29.9064

     occupation numbers 
     1.0000   1.0000   1.0000   1.0000   1.0000   1.0000   1.0000   1.0000
     1.0000   1.0000   1.0000   1.0000   1.0000   0.0000   0.0000   0.0000

          k = 0.0000 0.0000 0.1512 (  1981 PWs)   bands (ev):

     1.3914   2.7270   3.6522   3.8914   3.8914   3.9238   3.9238   4.3722
     4.3722   4.4979   4.4979   5.0194  12.2281  20.0995  30.2639  30.2640

     occupation numbers 
     1.0000   1.0000   1.0000   1.0000   1.0000   1.0000   1.0000   1.0000
     1.0000   1.0000   1.0000   1.0000   0.0000   0.0000   0.0000   0.0000

          k = 0.0000 0.0000 0.2268 (  2005 PWs)   bands (ev):

     1.9187   2.4412   3.7624   3.8965   3.8965   3.9084   3.9084   4.1400
     4.4180   4.4180   4.4625   4.4625  14.6535  17.2896  30.7967  30.7967

     occupation numbers 
     1.0000   1.0000   1.0000   1.0000   1.0000   1.0000   1.0000   1.0000
     1.0000   1.0000   1.0000   1.0000   0.0000   0.0000   0.0000   0.0000

          k = 0.0000 0.0825 0.0000 (  1981 PWs)   bands (ev):

     1.0719   2.9162   3.6412   3.8748   3.9237   3.9314   3.9792   4.2861
     4.3084   4.4295   4.5285   7.9720   8.4774  25.0434  27.1128  28.4145

     occupation numbers 
     1.0000   1.0000   1.0000   1.0000   1.0000   1.0000   1.0000   1.0000
     1.0000   1.0000   1.0000   1.0000   1.0000   0.0000   0.0000   0.0000

          k = 0.0000 0.0825 0.0756 (  1988 PWs)   bands (ev):

     1.1934   2.9002   3.6435   3.8720   3.9172   3.9300   3.9739   4.3033
     4.3231   4.4124   4.5204   6.5435  10.1889  23.1158  27.2720  28.5452

     occupation numbers 
     1.0000   1.0000   1.0000   1.0000   1.0000   1.0000   1.0000   1.0000
     1.0000   1.0000   1.0000   1.0000   1.0000   0.0000   0.0000   0.0000

          k = 0.0000 0.0825 0.1512 (  1985 PWs)   bands (ev):

     1.5445   2.8211   3.6625   3.8691   3.9008   3.9290   3.9607   4.3146
     4.3613   4.3714   4.4964   5.2555  12.3775  20.2453  27.6463  28.9338

     occupation numbers 
     1.0000   1.0000   1.0000   1.0000   1.0000   1.0000   1.0000   1.0000
     1.0000   1.0000   1.0000   1.0000   0.0000   0.0000   0.0000   0.0000

          k = 0.0000 0.0825 0.2268 (  1990 PWs)   bands (ev):

     2.0636   2.5641   3.7498   3.8747   3.8801   3.9336   3.9452   4.0455
     4.4104   4.4371   4.4582   4.5968  14.8018  17.4363  28.2531  29.0850

     occupation numbers 
     1.0000   1.0000   1.0000   1.0000   1.0000   1.0000   1.0000   1.0000
     1.0000   1.0000   1.0000   1.0000   0.0000   0.0000   0.0000   0.0000

          k = 0.0000 0.1650 0.0000 (  1971 PWs)   bands (ev):

     1.5324   3.1043   3.6772   3.8361   3.9038   4.0418   4.0846   4.1220
     4.2694   4.2761   4.5295   8.6694   8.7278  23.6419  25.5327  26.6794

     occupation numbers 
     1.0000   1.0000   1.0000   1.0000   1.0000   1.0000   1.0000   1.0000
     1.0000   1.0000   1.0000   1.0000   1.0000   0.0000   0.0000   0.0000

          k = 0.0000 0.1650 0.0756 (  1977 PWs)   bands (ev):

     1.6501   3.0997   3.6790   3.8269   3.8873   4.0387   4.0787   4.1240
     4.2852   4.2879   4.5197   7.0404  10.6367  23.4317  23.9096  26.8179

     occupation numbers 
[...]

     occupation numbers 
     1.0000   1.0000   1.0000   1.0000   1.0000   1.0000   1.0000   1.0000
     1.0000   1.0000   1.0000   1.0000   1.0000   0.0000   0.0000   0.0000

          k = 0.1429 0.2474 0.0756 (  1968 PWs)   bands (ev):

     2.7332   3.4509   3.6377   3.7297   3.8301   3.8473   4.1430   4.2272
     4.3642   4.4363   4.5350   8.1787  11.8564  20.7156  20.8992  24.5889

     occupation numbers 
     1.0000   1.0000   1.0000   1.0000   1.0000   1.0000   1.0000   1.0000
     1.0000   1.0000   1.0000   1.0000   0.0000   0.0000   0.0000   0.0000

          k = 0.1429 0.2474 0.1512 (  1968 PWs)   bands (ev):

     2.9686   3.4845   3.6497   3.6677   3.7576   3.8289   4.2126   4.3184
     4.3806   4.4060   4.6132   6.7935  14.0088  21.0394  21.1042  22.0855

     occupation numbers 
     1.0000   1.0000   1.0000   1.0000   1.0000   1.0000   1.0000   1.0000
     1.0000   1.0000   1.0000   1.0000   0.0000   0.0000   0.0000   0.0000

          k = 0.1429 0.2474 0.2268 (  1966 PWs)   bands (ev):

     3.2502   3.4540   3.6076   3.6697   3.7206   3.7825   4.2392   4.2961
     4.4368   4.4380   4.9599   5.7034  16.3900  18.9488  21.7437  22.0444

     occupation numbers 
     1.0000   1.0000   1.0000   1.0000   1.0000   1.0000   1.0000   1.0000
     1.0000   1.0000   1.0000   1.0000   0.0000   0.0000   0.0000   0.0000

          k = 0.1429 0.3299 0.0000 (  1967 PWs)   bands (ev):

     3.2771   3.4605   3.6269   3.7045   3.8261   3.9635   4.0410   4.1816
     4.4689   4.5077   5.0172  10.3770  11.4610  17.5973  19.6059  23.1714

     occupation numbers 
     1.0000   1.0000   1.0000   1.0000   1.0000   1.0000   1.0000   1.0000
     1.0000   1.0000   1.0000   1.0000   1.0000   0.0000   0.0000   0.0000

          k = 0.1429 0.3299 0.0756 (  1965 PWs)   bands (ev):

     3.2951   3.4751   3.6114   3.7067   3.7935   3.9688   4.1431   4.1770
     4.4427   4.5207   5.0674   9.1590  12.9183  17.7223  19.7313  22.0740

     occupation numbers 
     1.0000   1.0000   1.0000   1.0000   1.0000   1.0000   1.0000   1.0000
     1.0000   1.0000   1.0000   1.0000   0.0000   0.0000   0.0000   0.0000

          k = 0.1429 0.3299 0.1512 (  1962 PWs)   bands (ev):

     3.3411   3.5106   3.5621   3.7005   3.7945   3.9431   4.1806   4.3533
     4.3764   4.5442   5.2745   7.7716  15.0184  18.0890  20.0885  20.7939

     occupation numbers 
     1.0000   1.0000   1.0000   1.0000   1.0000   1.0000   1.0000   1.0000
     1.0000   1.0000   1.0000   1.0000   0.0000   0.0000   0.0000   0.0000

          k = 0.1429 0.3299 0.2268 (  1962 PWs)   bands (ev):

     3.4028   3.4721   3.5906   3.6538   3.8437   3.8980   4.2206   4.2935
     4.5011   4.5496   5.7812   6.6293  17.3061  18.6037  19.7427  19.9761

     occupation numbers 
     1.0000   1.0000   1.0000   1.0000   1.0000   1.0000   1.0000   1.0000
     1.0000   1.0000   1.0000   1.0000   0.0000   0.0000   0.0000   0.0000

          k = 0.1429 0.4124 0.0000 (  1971 PWs)   bands (ev):

     3.3497   3.4136   3.5074   3.9077   3.9395   4.0052   4.1003   4.2604
     4.4487   4.6187   6.0855  11.5244  12.9082  14.8117  18.7983  20.3506

     occupation numbers 
     1.0000   1.0000   1.0000   1.0000   1.0000   1.0000   1.0000   1.0000
     1.0000   1.0000   1.0000   0.2490   0.0000   0.0000   0.0000   0.0000

          k = 0.1429 0.4124 0.0756 (  1970 PWs)   bands (ev):

     3.3463   3.3881   3.5541   3.7580   3.9429   4.1143   4.1810   4.2546
     4.4225   4.6256   6.1777  10.4271  14.2002  14.9541  18.9237  19.3105

     occupation numbers 
     1.0000   1.0000   1.0000   1.0000   1.0000   1.0000   1.0000   1.0000
     1.0000   1.0000   1.0000   1.0000   0.0000   0.0000   0.0000   0.0000

          k = 0.1429 0.4124 0.1512 (  1955 PWs)   bands (ev):

     3.3278   3.3986   3.5778   3.6292   3.9773   4.1472   4.2241   4.3518
     4.3959   4.6344   6.4848   9.0704  15.2602  16.1649  18.1633  19.3120

     occupation numbers 
     1.0000   1.0000   1.0000   1.0000   1.0000   1.0000   1.0000   1.0000
     1.0000   1.0000   1.0000   1.0000   0.0000   0.0000   0.0000   0.0000

          k = 0.1429 0.4124 0.2268 (  1954 PWs)   bands (ev):

     3.3433   3.3871   3.5522   3.5830   4.0617   4.1460   4.2156   4.2713
     4.5430   4.6169   7.0631   7.9319  15.8725  16.6182  18.8527  19.8744

     occupation numbers 
     1.0000   1.0000   1.0000   1.0000   1.0000   1.0000   1.0000   1.0000
     1.0000   1.0000   1.0000   1.0000   0.0000   0.0000   0.0000   0.0000

          k = 0.1429 0.4949 0.0000 (  1965 PWs)   bands (ev):

     3.2790   3.3769   3.4372   3.8820   4.0303   4.0361   4.1797   4.4351
     4.4678   4.6489   7.6764  11.7795  13.5302  14.5233  17.8059  18.3134

     occupation numbers 
     1.0000   1.0000   1.0000   1.0000   1.0000   1.0000   1.0000   1.0000
     1.0000   1.0000   1.0000   0.0000   0.0000   0.0000   0.0000   0.0000

          k = 0.1429 0.4949 0.0756 (  1959 PWs)   bands (ev):

     3.2874   3.3207   3.5028   3.7738   3.9825   4.1289   4.2776   4.4070
     4.4612   4.6507   7.7825  11.4981  12.8724  15.5025  17.1422  18.4380

     occupation numbers 
     1.0000   1.0000   1.0000   1.0000   1.0000   1.0000   1.0000   1.0000
     1.0000   1.0000   1.0000   1.0001   0.0000   0.0000   0.0000   0.0000

          k = 0.1429 0.4949 0.1512 (  1958 PWs)   bands (ev):

     3.2746   3.3171   3.5458   3.6202   3.9998   4.2375   4.3266   4.4253
     4.4413   4.6474   8.1122  10.5340  12.8894  15.1510  18.2051  18.8269

     occupation numbers 
     1.0000   1.0000   1.0000   1.0000   1.0000   1.0000   1.0000   1.0000
     1.0000   1.0000   1.0000   1.0000   0.0000   0.0000   0.0000   0.0000

          k = 0.1429 0.4949 0.2268 (  1956 PWs)   bands (ev):

     3.2851   3.3187   3.5308   3.5367   4.0910   4.2104   4.3361   4.4000
     4.5433   4.6174   8.6864   9.5089  13.4029  14.1898  19.4501  19.9701

     occupation numbers 
     1.0000   1.0000   1.0000   1.0000   1.0000   1.0000   1.0000   1.0000
     1.0000   1.0000   1.0000   1.0000   0.0000   0.0000   0.0000   0.0000

          k = 0.1429 0.5774 0.0000 (  1966 PWs)   bands (ev):

     3.2523   3.3590   3.4142   3.8774   4.0006   4.0685   4.2397   4.4302
     4.5874   4.6073   9.3735   9.9481  14.7028  15.7138  16.1279  17.7009

     occupation numbers 
     1.0000   1.0000   1.0000   1.0000   1.0000   1.0000   1.0000   1.0000
     1.0000   1.0000   1.0000   1.0000   0.0000   0.0000   0.0000   0.0000

          k = 0.1429 0.5774 0.0756 (  1953 PWs)   bands (ev):

     3.2631   3.2965   3.4838   3.7793   3.9659   4.1546   4.3186   4.4022
     4.5842   4.6042   9.4839  10.0160  14.0626  14.3617  17.7378  18.2741

     occupation numbers 
     1.0000   1.0000   1.0000   1.0000   1.0000   1.0000   1.0000   1.0000
     1.0000   1.0000   1.0000   1.0000   0.0000   0.0000   0.0000   0.0000

          k = 0.1429 0.5774 0.1512 (  1956 PWs)   bands (ev):

     3.2549   3.2872   3.5286   3.6227   3.9866   4.2930   4.3186   4.4341
     4.5742   4.5880   9.7974  10.2033  13.0206  13.1353  18.6606  19.7344

     occupation numbers 
     1.0000   1.0000   1.0000   1.0000   1.0000   1.0000   1.0000   1.0000
     1.0000   1.0000   1.0000   1.0000   0.0000   0.0000   0.0000   0.0000

          k = 0.1429 0.5774 0.2268 (  1960 PWs)   bands (ev):

     3.2635   3.2932   3.5197   3.5256   4.0815   4.2048   4.4283   4.4972
     4.5472   4.5553  10.2120  10.3850  12.2765  12.3318  19.2959  20.1126

     occupation numbers 
     1.0000   1.0000   1.0000   1.0000   1.0000   1.0000   1.0000   1.0000
     1.0000   1.0000   1.0000   1.0000   0.0000   0.0000   0.0000   0.0000

          k = 0.2143 0.3712 0.0000 (  1963 PWs)   bands (ev):

     3.5173   3.5429   3.5834   3.7542   3.8906   3.8933   4.1038   4.1165
     4.4242   4.6136   6.0113  11.4491  12.7641  16.5523  16.7840  22.1710

     occupation numbers 
     1.0000   1.0000   1.0000   1.0000   1.0000   1.0000   1.0000   1.0000
     1.0000   1.0000   1.0000   1.0000   0.0000   0.0000   0.0000   0.0000

          k = 0.2143 0.3712 0.0756 (  1970 PWs)   bands (ev):

     3.5053   3.5322   3.6369   3.6481   3.8784   3.9596   4.1139   4.1836
     4.3980   4.6220   6.1002  10.3240  14.1143  16.6815  16.9083  21.0234

     occupation numbers 
     1.0000   1.0000   1.0000   1.0000   1.0000   1.0000   1.0000   1.0000
     1.0000   1.0000   1.0000   1.0000   0.0000   0.0000   0.0000   0.0000

          k = 0.2143 0.3712 0.1512 (  1956 PWs)   bands (ev):

     3.4724   3.5373   3.5776   3.7011   3.8521   3.9588   4.1224   4.3266
     4.3790   4.6329   6.3978   8.9617  16.1255  17.0683  17.2721  19.6980

     occupation numbers 
     1.0000   1.0000   1.0000   1.0000   1.0000   1.0000   1.0000   1.0000
     1.0000   1.0000   1.0000   1.0000   0.0000   0.0000   0.0000   0.0000

          k = 0.2143 0.3712 0.2268 (  1958 PWs)   bands (ev):

     3.4616   3.4798   3.6379   3.6984   3.8681   3.9196   4.1640   4.2398
     4.5368   4.6156   6.9646   7.8256  17.6963  17.8250  17.9751  18.5843

     occupation numbers 
     1.0000   1.0000   1.0000   1.0000   1.0000   1.0000   1.0000   1.0000
     1.0000   1.0000   1.0000   1.0000   0.0000   0.0000   0.0000   0.0000

          k = 0.2143 0.4536 0.0000 (  1975 PWs)   bands (ev):

     3.4782   3.4936   3.5704   3.8641   3.9445   4.0082   4.0308   4.2415
     4.3890   4.6302   7.4530  12.7191  14.1327  14.2926  16.0301  19.5652

     occupation numbers 
     1.0000   1.0000   1.0000   1.0000   1.0000   1.0000   1.0000   1.0000
     1.0000   1.0000   1.0000   0.0000   0.0000   0.0000   0.0000   0.0000

          k = 0.2143 0.4536 0.0756 (  1962 PWs)   bands (ev):

     3.4573   3.4927   3.6229   3.7420   3.9269   4.0573   4.1025   4.2690
     4.3613   4.6358   7.5609  11.7490  14.1429  15.5447  16.1588  18.5632

     occupation numbers 
     1.0000   1.0000   1.0000   1.0000   1.0000   1.0000   1.0000   1.0000
     1.0000   1.0000   1.0000   0.0000   0.0000   0.0000   0.0000   0.0000

          k = 0.2143 0.4536 0.1512 (  1961 PWs)   bands (ev):

     3.4293   3.5266   3.6008   3.6970   3.8944   4.0871   4.1451   4.2907
     4.3956   4.6393   7.8966  10.4467  14.5031  16.5209  16.7219  17.9848

     occupation numbers 
     1.0000   1.0000   1.0000   1.0000   1.0000   1.0000   1.0000   1.0000
     1.0000   1.0000   1.0000   1.0000   0.0000   0.0000   0.0000   0.0000

          k = 0.2143 0.4536 0.2268 (  1957 PWs)   bands (ev):

     3.4387   3.4890   3.6057   3.6696   3.9556   4.0493   4.1676   4.2166
     4.5313   4.6125   8.4849   9.3389  15.1093  15.9279  17.1645  17.9587

     occupation numbers 
     1.0000   1.0000   1.0000   1.0000   1.0000   1.0000   1.0000   1.0000
     1.0000   1.0000   1.0000   1.0000   0.0000   0.0000   0.0000   0.0000

          k = 0.2143 0.5361 0.0000 (  1958 PWs)   bands (ev):

     3.4380   3.4723   3.5512   3.8778   3.9506   4.0404   4.0690   4.3700
     4.4077   4.5656   9.2542  11.3858  14.7535  15.6855  15.9127  17.2552

     occupation numbers 
     1.0000   1.0000   1.0000   1.0000   1.0000   1.0000   1.0000   1.0000
     1.0000   1.0000   1.0000   1.0000   0.0000   0.0000   0.0000   0.0000

          k = 0.2143 0.5361 0.0756 (  1961 PWs)   bands (ev):

     3.4318   3.4514   3.6147   3.7818   3.8932   4.1076   4.1473   4.3407
     4.4132   4.5708   9.3660  11.4530  13.8256  15.6585  15.8986  17.7052

     occupation numbers 
     1.0000   1.0000   1.0000   1.0000   1.0000   1.0000   1.0000   1.0000
     1.0000   1.0000   1.0000   1.0000   0.0000   0.0000   0.0000   0.0000

          k = 0.2143 0.5361 0.1512 (  1956 PWs)   bands (ev):

     3.4057   3.4840   3.6451   3.6780   3.8629   4.1621   4.2281   4.2908
     4.4415   4.5760   9.7019  11.4971  12.8651  14.6099  16.2243  18.6182

     occupation numbers 
     1.0000   1.0000   1.0000   1.0000   1.0000   1.0000   1.0000   1.0000
     1.0000   1.0000   1.0000   1.0000   0.0000   0.0000   0.0000   0.0000

          k = 0.2143 0.5361 0.2268 (  1960 PWs)   bands (ev):

     3.4253   3.4820   3.5904   3.6417   3.9536   4.0824   4.2650   4.2885
     4.5048   4.5583  10.2565  10.9756  12.8994  13.6074  16.8499  17.6974

     occupation numbers 
     1.0000   1.0000   1.0000   1.0000   1.0000   1.0000   1.0000   1.0000
     1.0000   1.0000   1.0000   1.0000   0.0000   0.0000   0.0000   0.0000

          k = 0.2857 0.4949 0.0000 (  1963 PWs)   bands (ev):

     3.5063   3.5883   3.6558   3.8539   3.9075   3.9496   4.0423   4.3000
     4.3420   4.5567   9.1399  13.1557  13.5393  14.7973  15.8891  18.8940

     occupation numbers 
     1.0000   1.0000   1.0000   1.0000   1.0000   1.0000   1.0000   1.0000
     1.0000   1.0000   1.0000   0.0000   0.0000   0.0000   0.0000   0.0000

          k = 0.2857 0.4949 0.0756 (  1960 PWs)   bands (ev):

     3.5033   3.5985   3.6863   3.7502   3.9046   3.9898   4.0694   4.3126
     4.3306   4.5646   9.2548  12.9730  13.6686  14.0609  16.8173  17.8939

     occupation numbers 
     1.0000   1.0000   1.0000   1.0000   1.0000   1.0000   1.0000   1.0000
     1.0000   1.0000   1.0000   0.0000   0.0000   0.0000   0.0000   0.0000

          k = 0.2857 0.4949 0.1512 (  1955 PWs)   bands (ev):

     3.5041   3.6195   3.6524   3.7652   3.8264   4.0224   4.1044   4.2433
     4.4136   4.5753   9.6029  12.0464  14.0498  14.0569  16.5016  16.5612

     occupation numbers 
     1.0000   1.0000   1.0000   1.0000   1.0000   1.0000   1.0000   1.0000
     1.0000   1.0000   1.0000   0.0000   0.0000   0.0000   0.0000   0.0000

          k = 0.2857 0.4949 0.2268 (  1959 PWs)   bands (ev):

     3.5209   3.5625   3.6841   3.7492   3.8714   3.9736   4.1357   4.1764
     4.5051   4.5615  10.1913  11.0190  14.5790  14.6475  15.4963  15.5671

     occupation numbers 
     1.0000   1.0000   1.0000   1.0000   1.0000   1.0000   1.0000   1.0000
     1.0000   1.0000   1.0000   1.0000   0.0000   0.0000   0.0000   0.0000

          k = 0.2857 0.5774 0.0000 (  1958 PWs)   bands (ev):

     3.5168   3.6266   3.6934   3.8705   3.8796   3.8869   4.0710   4.3242
     4.3878   4.4616  11.0624  11.1850  13.2545  16.1677  17.2385  17.2793

     occupation numbers 
     1.0000   1.0000   1.0000   1.0000   1.0000   1.0000   1.0000   1.0000
     1.0000   1.0000   1.0000   1.0000   0.0000   0.0000   0.0000   0.0000

          k = 0.2857 0.5774 0.0756 (  1954 PWs)   bands (ev):

     3.5252   3.6334   3.6981   3.7893   3.8642   3.9469   4.0885   4.2946
     4.4061   4.4765  11.1871  11.2834  13.3615  15.4767  15.7087  17.5866

     occupation numbers 
     1.0000   1.0000   1.0000   1.0000   1.0000   1.0000   1.0000   1.0000
     1.0000   1.0000   1.0000   1.0000   0.0000   0.0000   0.0000   0.0000

          k = 0.2857 0.5774 0.1512 (  1962 PWs)   bands (ev):

     3.5425   3.6450   3.7090   3.7179   3.8466   3.9761   4.1147   4.2232
     4.4524   4.5056  11.5437  11.5742  13.5898  14.3520  14.5569  16.4139

     occupation numbers 
     1.0000   1.0000   1.0000   1.0000   1.0000   1.0000   1.0000   1.0000
     1.0000   1.0000   0.0000   0.0000   0.0000   0.0000   0.0000   0.0000

          k = 0.2857 0.5774 0.2268 (  1959 PWs)   bands (ev):

     3.5669   3.6095   3.7018   3.7237   3.8799   3.9491   4.1324   4.1595
     4.4995   4.5194  11.9949  12.0199  13.2698  13.4145  14.5838  15.3698

     occupation numbers 
     1.0000   1.0000   1.0000   1.0000   1.0000   1.0000   1.0000   1.0000
     1.0000   1.0000   0.0000   0.0000   0.0000   0.0000   0.0000   0.0000

     the Fermi energy is    11.5227 ev

!    total energy              =    -487.44586601 Ry
     total all-electron energy =     -7184.239912 Ry
     estimated scf accuracy    <       0.00000002 Ry
     smearing contrib. (-TS)   =      -0.00000133 Ry
     internal energy E=F+TS    =    -487.44586467 Ry

     The total energy is F=E-TS. E is the sum of the following terms:
     one-electron contribution =    -113.53234219 Ry
     hartree contribution      =      90.37704392 Ry
     xc contribution           =     -94.38900579 Ry
     ewald contribution        =    -179.02479020 Ry
     one-center paw contrib.   =    -190.87677040 Ry
      -> PAW hartree energy AE =     122.49881229 Ry
      -> PAW hartree energy PS =    -121.87726199 Ry
      -> PAW xc energy AE      =    -143.11068128 Ry
      -> PAW xc energy PS      =      47.05074577 Ry
      -> total E_H with PAW    =      90.99859422 Ry
      -> total E_XC with PAW   =    -190.44894130 Ry

     total magnetization       =     0.00 Bohr mag/cell
     absolute magnetization    =     0.00 Bohr mag/cell

     convergence has been achieved in   6 iterations

     Writing all to output data dir ./out/Zn.save/
 
     init_run     :      0.26s CPU      0.38s WALL (       1 calls)
     electrons    :      5.98s CPU      6.51s WALL (       1 calls)

     Called by init_run:
     wfcinit      :      0.12s CPU      0.20s WALL (       1 calls)
     potinit      :      0.10s CPU      0.13s WALL (       1 calls)
     hinit0       :      0.03s CPU      0.04s WALL (       1 calls)

     Called by electrons:
     c_bands      :      4.76s CPU      5.13s WALL (       6 calls)
     sum_band     :      0.63s CPU      0.66s WALL (       6 calls)
     v_of_rho     :      0.02s CPU      0.02s WALL (       7 calls)
     v_h          :      0.00s CPU      0.00s WALL (       7 calls)
     v_xc         :      0.02s CPU      0.02s WALL (       7 calls)
     newd         :      0.01s CPU      0.01s WALL (       7 calls)
     PAW_pot      :      0.65s CPU      0.78s WALL (       7 calls)
     mix_rho      :      0.00s CPU      0.00s WALL (       6 calls)

     Called by c_bands:
     init_us_2    :      0.04s CPU      0.05s WALL (    1152 calls)
     init_us_2:cp :      0.04s CPU      0.04s WALL (    1152 calls)
     cegterg      :      4.45s CPU      4.71s WALL (     576 calls)

     Called by sum_band:
     sum_band:wei :      0.01s CPU      0.01s WALL (       6 calls)
     sum_band:loo :      0.60s CPU      0.62s WALL (       6 calls)
     sum_band:buf :      0.00s CPU      0.00s WALL (     576 calls)
     sum_band:ini :      0.02s CPU      0.02s WALL (     576 calls)
     sum_band:cal :      0.05s CPU      0.05s WALL (     576 calls)
     sum_band:bec :      0.00s CPU      0.00s WALL (     576 calls)
     addusdens    :      0.02s CPU      0.02s WALL (       6 calls)
                                        0.00s GPU  (       6 calls)
     addusd:skk   :      0.00s CPU      0.00s WALL (       6 calls)
                                        0.00s GPU  (       6 calls)

     Called by *egterg:
     cdiaghg      :      0.68s CPU      0.72s WALL (    2321 calls)
     cegterg:over :      0.11s CPU      0.11s WALL (    1841 calls)
     cegterg:upda :      0.03s CPU      0.03s WALL (    1841 calls)
     cegterg:last :      0.05s CPU      0.05s WALL (    1500 calls)
     h_psi        :      3.43s CPU      3.62s WALL (    2417 calls)
     s_psi        :      0.06s CPU      0.07s WALL (    2417 calls)
     g_psi        :      0.01s CPU      0.01s WALL (    1841 calls)

     Called by h_psi:
     h_psi:calbec :      0.15s CPU      0.17s WALL (    2417 calls)
     vloc_psi     :      3.19s CPU      3.36s WALL (    2417 calls)
     add_vuspsi   :      0.06s CPU      0.07s WALL (    2417 calls)

     General routines
     calbec       :      0.19s CPU      0.21s WALL (    2993 calls)
     fft          :      0.01s CPU      0.01s WALL (     145 calls)
     ffts         :      0.00s CPU      0.00s WALL (      12 calls)
     fftw         :      3.44s CPU      3.62s WALL (   69850 calls)
 
     Parallel routines

     PAW routines
     PAW_pot      :      0.65s CPU      0.78s WALL (       7 calls)
     PAW_symme    :      0.01s CPU      0.01s WALL (      12 calls)
 
     PWSCF        :      6.47s CPU      7.46s WALL

 
   This run was terminated on:   3:26:13  13Mar2024            

=------------------------------------------------------------------------------=
   JOB DONE.
=------------------------------------------------------------------------------=
