
     Program PWSCF v.7.2 starts on 13Mar2024 at  3:30:13 

     This program is part of the open-source Quantum ESPRESSO suite
     for quantum simulation of materials; please cite
         "P. Giannozzi et al., J. Phys.:Condens. Matter 21 395502 (2009);
         "P. Giannozzi et al., J. Phys.:Condens. Matter 29 465901 (2017);
         "P. Giannozzi et al., J. Chem. Phys. 152 154105 (2020);
          URL http://www.quantum-espresso.org", 
     in publications or presentations arising from this work. More details at
     http://www.quantum-espresso.org/quote

     Parallel version (MPI), running on    28 processors

     MPI processes distributed on     1 nodes
     151769 MiB available memory on the printing compute node when the environment starts
 
     Waiting for input...
     Reading input from standard input

     Current dimensions of program PWSCF are:
     Max number of different atomic species (ntypx) = 10
     Max number of k-points (npk) = 120000
     Max angular momentum in pseudopotentials (lmaxx) =  4
     file Zn.pbe-dnl-kjpaw_psl.1.0.0.UPF: wavefunction(s)  4S 3D renormalized
 
     K-points division:     npool     =       2
     R & G space division:  proc/nbgrp/npool/nimage =      14
     Subspace diagonalization in iterative solution of the eigenvalue problem:
     a serial algorithm will be used

 
     Parallelization info
     --------------------
     sticks:   dense  smooth     PW     G-vecs:    dense   smooth      PW
     Min          36      36     10                 1187     1187     194
     Max          38      38     11                 1192     1192     201
     Sum         511     511    151                16639    16639    2769
 
     Using Slab Decomposition
 


     bravais-lattice index     =            4
     lattice parameter (alat)  =       5.1500  a.u.
     unit-cell volume          =     210.5583 (a.u.)^3
     number of atoms/cell      =            2
     number of atomic types    =            1
     number of electrons       =        24.00
     number of Kohn-Sham states=           16
     kinetic-energy cutoff     =      70.0000  Ry
     charge density cutoff     =     280.0000  Ry
     scf convergence threshold =      4.0E-06
     mixing beta               =       0.7000
     number of iterations used =            8  plain     mixing
     Exchange-correlation= SLA  PW   PBX  PBC
                           (   1   4   3   4   0   0   0)

     celldm(1)=   5.150000  celldm(2)=   0.000000  celldm(3)=   1.780000
     celldm(4)=   0.000000  celldm(5)=   0.000000  celldm(6)=   0.000000

     crystal axes: (cart. coord. in units of alat)
               a(1) = (   1.000000   0.000000   0.000000 )  
               a(2) = (  -0.500000   0.866025   0.000000 )  
               a(3) = (   0.000000   0.000000   1.780000 )  

     reciprocal axes: (cart. coord. in units 2 pi/alat)
               b(1) = (  1.000000  0.577350  0.000000 )  
               b(2) = (  0.000000  1.154701  0.000000 )  
               b(3) = (  0.000000  0.000000  0.561798 )  


     PseudoPot. # 1 for Zn read from file:
     /truba/home/amuhaymin/ZnS/pseudo/QE/Zn.pbe-dnl-kjpaw_psl.1.0.0.UPF
     MD5 check sum: c608214d9520ac179f507641260889e3
     Pseudo is Projector augmented-wave + core cor, Zval = 12.0
     Generated using &quot;atomic&quot; code by A. Dal Corso  v.6.2.2
     Shape of augmentation charge: PSQ
     Using radial grid of 1201 points,  6 beta functions with: 
                l(1) =   0
                l(2) =   0
                l(3) =   1
                l(4) =   1
                l(5) =   2
                l(6) =   2
     Q(r) pseudized with 0 coefficients 


     atomic species   valence    mass     pseudopotential
        Zn            12.00    65.38000     Zn( 1.00)

     Starting magnetic structure 
     atomic species   magnetization
        Zn           0.000

     24 Sym. Ops., with inversion, found (12 have fractional translation)


                                    s                        frac. trans.

      isym =  1     identity                                     

 cryst.   s( 1) = (     1          0          0      )
                  (     0          1          0      )
                  (     0          0          1      )

 cart.    s( 1) = (  1.0000000  0.0000000  0.0000000 )
                  (  0.0000000  1.0000000  0.0000000 )
                  (  0.0000000  0.0000000  1.0000000 )


      isym =  2     180 deg rotation - cart. axis [0,0,1]        

 cryst.   s( 2) = (    -1          0          0      )    f =(  0.0000000 )
                  (     0         -1          0      )       ( -0.0000000 )
                  (     0          0          1      )       ( -0.5000000 )

 cart.    s( 2) = ( -1.0000000  0.0000000  0.0000000 )    f =(  0.0000000 )
                  (  0.0000000 -1.0000000  0.0000000 )       ( -0.0000000 )
                  (  0.0000000  0.0000000  1.0000000 )       ( -0.8900000 )


      isym =  3     180 deg rotation - cart. axis [0,1,0]        

 cryst.   s( 3) = (    -1          0          0      )    f =(  0.0000000 )
                  (     1          1          0      )       (  0.0000000 )
                  (     0          0         -1      )       (  0.5000000 )

 cart.    s( 3) = ( -1.0000000  0.0000000  0.0000000 )    f =(  0.0000000 )
                  (  0.0000000  1.0000000  0.0000000 )       (  0.0000000 )
                  (  0.0000000  0.0000000 -1.0000000 )       (  0.8900000 )


      isym =  4     180 deg rotation - cart. axis [1,0,0]        

 cryst.   s( 4) = (     1          0          0      )
                  (    -1         -1          0      )
                  (     0          0         -1      )

 cart.    s( 4) = (  1.0000000  0.0000000  0.0000000 )
                  (  0.0000000 -1.0000000  0.0000000 )
                  (  0.0000000  0.0000000 -1.0000000 )


      isym =  5      60 deg rotation - cryst. axis [0,0,1]       

 cryst.   s( 5) = (     1          1          0      )    f =(  0.0000000 )
                  (    -1          0          0      )       ( -0.0000000 )
                  (     0          0          1      )       ( -0.5000000 )

 cart.    s( 5) = (  0.5000000 -0.8660254  0.0000000 )    f =(  0.0000000 )
                  (  0.8660254  0.5000000  0.0000000 )       ( -0.0000000 )
                  (  0.0000000  0.0000000  1.0000000 )       ( -0.8900000 )


      isym =  6      60 deg rotation - cryst. axis [0,0,-1]      

 cryst.   s( 6) = (     0         -1          0      )    f =(  0.0000000 )
                  (     1          1          0      )       ( -0.0000000 )
                  (     0          0          1      )       ( -0.5000000 )

 cart.    s( 6) = (  0.5000000  0.8660254  0.0000000 )    f =(  0.0000000 )
                  ( -0.8660254  0.5000000  0.0000000 )       ( -0.0000000 )
                  (  0.0000000  0.0000000  1.0000000 )       ( -0.8900000 )


      isym =  7     120 deg rotation - cryst. axis [0,0,1]       

 cryst.   s( 7) = (     0          1          0      )
                  (    -1         -1          0      )
                  (     0          0          1      )

 cart.    s( 7) = ( -0.5000000 -0.8660254  0.0000000 )
                  (  0.8660254 -0.5000000  0.0000000 )
                  (  0.0000000  0.0000000  1.0000000 )


      isym =  8     120 deg rotation - cryst. axis [0,0,-1]      

 cryst.   s( 8) = (    -1         -1          0      )
                  (     1          0          0      )
                  (     0          0          1      )

 cart.    s( 8) = ( -0.5000000  0.8660254  0.0000000 )
                  ( -0.8660254 -0.5000000  0.0000000 )
                  (  0.0000000  0.0000000  1.0000000 )


      isym =  9     180 deg rotation - cryst. axis [1,-1,0]      

 cryst.   s( 9) = (     0         -1          0      )    f =( -0.0000000 )
                  (    -1          0          0      )       ( -0.0000000 )
                  (     0          0         -1      )       (  0.5000000 )

 cart.    s( 9) = (  0.5000000 -0.8660254  0.0000000 )    f =( -0.0000000 )
                  ( -0.8660254 -0.5000000  0.0000000 )       ( -0.0000000 )
                  (  0.0000000  0.0000000 -1.0000000 )       (  0.8900000 )


      isym = 10     180 deg rotation - cryst. axis [2,1,0]       

 cryst.   s(10) = (     1          1          0      )    f =(  0.0000000 )
                  (     0         -1          0      )       ( -0.0000000 )
                  (     0          0         -1      )       (  0.5000000 )

 cart.    s(10) = (  0.5000000  0.8660254  0.0000000 )    f =(  0.0000000 )
                  (  0.8660254 -0.5000000  0.0000000 )       ( -0.0000000 )
                  (  0.0000000  0.0000000 -1.0000000 )       (  0.8900000 )


      isym = 11     180 deg rotation - cryst. axis [0,1,0]       

 cryst.   s(11) = (    -1         -1          0      )
                  (     0          1          0      )
                  (     0          0         -1      )

 cart.    s(11) = ( -0.5000000 -0.8660254  0.0000000 )
                  ( -0.8660254  0.5000000  0.0000000 )
                  (  0.0000000  0.0000000 -1.0000000 )


      isym = 12     180 deg rotation - cryst. axis [1,1,0]       

 cryst.   s(12) = (     0          1          0      )
                  (     1          0          0      )
                  (     0          0         -1      )

 cart.    s(12) = ( -0.5000000  0.8660254  0.0000000 )
                  (  0.8660254  0.5000000  0.0000000 )
                  (  0.0000000  0.0000000 -1.0000000 )


      isym = 13     inversion                                    

 cryst.   s(13) = (    -1          0          0      )
                  (     0         -1          0      )
                  (     0          0         -1      )

 cart.    s(13) = ( -1.0000000  0.0000000  0.0000000 )
                  (  0.0000000 -1.0000000  0.0000000 )
                  (  0.0000000  0.0000000 -1.0000000 )


      isym = 14     inv. 180 deg rotation - cart. axis [0,0,1]   

 cryst.   s(14) = (     1          0          0      )    f =(  0.0000000 )
                  (     0          1          0      )       (  0.0000000 )
                  (     0          0         -1      )       (  0.5000000 )

 cart.    s(14) = (  1.0000000  0.0000000  0.0000000 )    f =(  0.0000000 )
                  (  0.0000000  1.0000000  0.0000000 )       (  0.0000000 )
                  (  0.0000000  0.0000000 -1.0000000 )       (  0.8900000 )


      isym = 15     inv. 180 deg rotation - cart. axis [0,1,0]   

 cryst.   s(15) = (     1          0          0      )    f =(  0.0000000 )
                  (    -1         -1          0      )       ( -0.0000000 )
                  (     0          0          1      )       ( -0.5000000 )

 cart.    s(15) = (  1.0000000  0.0000000  0.0000000 )    f =(  0.0000000 )
                  (  0.0000000 -1.0000000  0.0000000 )       ( -0.0000000 )
                  (  0.0000000  0.0000000  1.0000000 )       ( -0.8900000 )


      isym = 16     inv. 180 deg rotation - cart. axis [1,0,0]   

 cryst.   s(16) = (    -1          0          0      )
                  (     1          1          0      )
                  (     0          0          1      )

 cart.    s(16) = ( -1.0000000  0.0000000  0.0000000 )
                  (  0.0000000  1.0000000  0.0000000 )
                  (  0.0000000  0.0000000  1.0000000 )


      isym = 17     inv.  60 deg rotation - cryst. axis [0,0,1]  

 cryst.   s(17) = (    -1         -1          0      )    f =(  0.0000000 )
                  (     1          0          0      )       ( -0.0000000 )
                  (     0          0         -1      )       (  0.5000000 )

 cart.    s(17) = ( -0.5000000  0.8660254  0.0000000 )    f =(  0.0000000 )
                  ( -0.8660254 -0.5000000  0.0000000 )       ( -0.0000000 )
                  (  0.0000000  0.0000000 -1.0000000 )       (  0.8900000 )


      isym = 18     inv.  60 deg rotation - cryst. axis [0,0,-1] 

 cryst.   s(18) = (     0          1          0      )    f =( -0.0000000 )
                  (    -1         -1          0      )       ( -0.0000000 )
                  (     0          0         -1      )       (  0.5000000 )

 cart.    s(18) = ( -0.5000000 -0.8660254  0.0000000 )    f =(  0.0000000 )
                  (  0.8660254 -0.5000000  0.0000000 )       ( -0.0000000 )
                  (  0.0000000  0.0000000 -1.0000000 )       (  0.8900000 )


      isym = 19     inv. 120 deg rotation - cryst. axis [0,0,1]  

 cryst.   s(19) = (     0         -1          0      )
                  (     1          1          0      )
                  (     0          0         -1      )

 cart.    s(19) = (  0.5000000  0.8660254  0.0000000 )
                  ( -0.8660254  0.5000000  0.0000000 )
                  (  0.0000000  0.0000000 -1.0000000 )


      isym = 20     inv. 120 deg rotation - cryst. axis [0,0,-1] 

 cryst.   s(20) = (     1          1          0      )
                  (    -1          0          0      )
                  (     0          0         -1      )

 cart.    s(20) = (  0.5000000 -0.8660254  0.0000000 )
                  (  0.8660254  0.5000000  0.0000000 )
                  (  0.0000000  0.0000000 -1.0000000 )


      isym = 21     inv. 180 deg rotation - cryst. axis [1,-1,0] 

 cryst.   s(21) = (     0          1          0      )    f =(  0.0000000 )
                  (     1          0          0      )       ( -0.0000000 )
                  (     0          0          1      )       ( -0.5000000 )

 cart.    s(21) = ( -0.5000000  0.8660254  0.0000000 )    f =(  0.0000000 )
                  (  0.8660254  0.5000000  0.0000000 )       ( -0.0000000 )
                  (  0.0000000  0.0000000  1.0000000 )       ( -0.8900000 )


      isym = 22     inv. 180 deg rotation - cryst. axis [2,1,0]  

 cryst.   s(22) = (    -1         -1          0      )    f =(  0.0000000 )
                  (     0          1          0      )       ( -0.0000000 )
                  (     0          0          1      )       ( -0.5000000 )

 cart.    s(22) = ( -0.5000000 -0.8660254  0.0000000 )    f =(  0.0000000 )
                  ( -0.8660254  0.5000000  0.0000000 )       ( -0.0000000 )
                  (  0.0000000  0.0000000  1.0000000 )       ( -0.8900000 )


      isym = 23     inv. 180 deg rotation - cryst. axis [0,1,0]  

 cryst.   s(23) = (     1          1          0      )
                  (     0         -1          0      )
                  (     0          0          1      )

 cart.    s(23) = (  0.5000000  0.8660254  0.0000000 )
                  (  0.8660254 -0.5000000  0.0000000 )
                  (  0.0000000  0.0000000  1.0000000 )


      isym = 24     inv. 180 deg rotation - cryst. axis [1,1,0]  

 cryst.   s(24) = (     0         -1          0      )
                  (    -1          0          0      )
                  (     0          0          1      )

 cart.    s(24) = (  0.5000000 -0.8660254  0.0000000 )
                  ( -0.8660254 -0.5000000  0.0000000 )
                  (  0.0000000  0.0000000  1.0000000 )


     point group D_6h(6/mmm)
     there are 12 classes
     the character table:

       E     2C6   2C3   C2    3C2'  3C2'' i     2S3   2S6   s_h   3s_d  3s_v 
A_1g   1.00  1.00  1.00  1.00  1.00  1.00  1.00  1.00  1.00  1.00  1.00  1.00
A_2g   1.00  1.00  1.00  1.00 -1.00 -1.00  1.00  1.00  1.00  1.00 -1.00 -1.00
B_1g   1.00 -1.00  1.00 -1.00  1.00 -1.00  1.00 -1.00  1.00 -1.00  1.00 -1.00
B_2g   1.00 -1.00  1.00 -1.00 -1.00  1.00  1.00 -1.00  1.00 -1.00 -1.00  1.00
E_1g   2.00  1.00 -1.00 -2.00  0.00  0.00  2.00  1.00 -1.00 -2.00  0.00  0.00
E_2g   2.00 -1.00 -1.00  2.00  0.00  0.00  2.00 -1.00 -1.00  2.00  0.00  0.00
A_1u   1.00  1.00  1.00  1.00  1.00  1.00 -1.00 -1.00 -1.00 -1.00 -1.00 -1.00
A_2u   1.00  1.00  1.00  1.00 -1.00 -1.00 -1.00 -1.00 -1.00 -1.00  1.00  1.00
B_1u   1.00 -1.00  1.00 -1.00  1.00 -1.00 -1.00  1.00 -1.00  1.00 -1.00  1.00
B_2u   1.00 -1.00  1.00 -1.00 -1.00  1.00 -1.00  1.00 -1.00  1.00  1.00 -1.00
E_1u   2.00  1.00 -1.00 -2.00  0.00  0.00 -2.00 -1.00  1.00  2.00  0.00  0.00
E_2u   2.00 -1.00 -1.00  2.00  0.00  0.00 -2.00  1.00  1.00 -2.00  0.00  0.00

     the symmetry operations in each class and the name of the first element:

     E        1
          identity                                               
     2C6      5    6
           60 deg rotation - cryst. axis [0,0,1]                 
     2C3      7    8
          120 deg rotation - cryst. axis [0,0,1]                 
     C2       2
          180 deg rotation - cart. axis [0,0,1]                  
     3C2'     4   12   11
          180 deg rotation - cart. axis [1,0,0]                  
     3C2''    3    9   10
          180 deg rotation - cart. axis [0,1,0]                  
     i       13
          inversion                                              
     2S3     17   18
          inv.  60 deg rotation - cryst. axis [0,0,1]            
     2S6     19   20
          inv. 120 deg rotation - cryst. axis [0,0,1]            
     s_h     14
          inv. 180 deg rotation - cart. axis [0,0,1]             
     3s_d    16   24   23
          inv. 180 deg rotation - cart. axis [1,0,0]             
     3s_v    15   21   22
          inv. 180 deg rotation - cart. axis [0,1,0]             

   Cartesian axes

     site n.     atom                  positions (alat units)
         1           Zn  tau(   1) = (  -0.0000000   0.5773503   0.4450000  )
         2           Zn  tau(   2) = (   0.5000000   0.2886751   1.3350000  )

   Crystallographic axes

     site n.     atom                  positions (cryst. coord.)
         1           Zn  tau(   1) = (  0.3333333  0.6666667  0.2500000  )
         2           Zn  tau(   2) = (  0.6666667  0.3333333  0.7500000  )

     number of k points=    96  Marzari-Vanderbilt smearing, width (Ry)=  0.0005
                       cart. coord. in units 2pi/alat
        k(    1) = (   0.0000000   0.0000000   0.0000000), wk =   0.0007289
        k(    2) = (   0.0000000   0.0000000   0.0802568), wk =   0.0014577
        k(    3) = (   0.0000000   0.0000000   0.1605136), wk =   0.0014577
        k(    4) = (   0.0000000   0.0000000   0.2407705), wk =   0.0014577
        k(    5) = (   0.0000000   0.0824786   0.0000000), wk =   0.0043732
        k(    6) = (   0.0000000   0.0824786   0.0802568), wk =   0.0087464
        k(    7) = (   0.0000000   0.0824786   0.1605136), wk =   0.0087464
        k(    8) = (   0.0000000   0.0824786   0.2407705), wk =   0.0087464
        k(    9) = (   0.0000000   0.1649572   0.0000000), wk =   0.0043732
        k(   10) = (   0.0000000   0.1649572   0.0802568), wk =   0.0087464
        k(   11) = (   0.0000000   0.1649572   0.1605136), wk =   0.0087464
        k(   12) = (   0.0000000   0.1649572   0.2407705), wk =   0.0087464
        k(   13) = (   0.0000000   0.2474358   0.0000000), wk =   0.0043732
        k(   14) = (   0.0000000   0.2474358   0.0802568), wk =   0.0087464
        k(   15) = (   0.0000000   0.2474358   0.1605136), wk =   0.0087464
        k(   16) = (   0.0000000   0.2474358   0.2407705), wk =   0.0087464
        k(   17) = (   0.0000000   0.3299144   0.0000000), wk =   0.0043732
        k(   18) = (   0.0000000   0.3299144   0.0802568), wk =   0.0087464
        k(   19) = (   0.0000000   0.3299144   0.1605136), wk =   0.0087464
        k(   20) = (   0.0000000   0.3299144   0.2407705), wk =   0.0087464
        k(   21) = (   0.0000000   0.4123930   0.0000000), wk =   0.0043732
        k(   22) = (   0.0000000   0.4123930   0.0802568), wk =   0.0087464
        k(   23) = (   0.0000000   0.4123930   0.1605136), wk =   0.0087464
        k(   24) = (   0.0000000   0.4123930   0.2407705), wk =   0.0087464
        k(   25) = (   0.0000000   0.4948717   0.0000000), wk =   0.0043732
        k(   26) = (   0.0000000   0.4948717   0.0802568), wk =   0.0087464
        k(   27) = (   0.0000000   0.4948717   0.1605136), wk =   0.0087464
        k(   28) = (   0.0000000   0.4948717   0.2407705), wk =   0.0087464
        k(   29) = (   0.0000000  -0.5773503   0.0000000), wk =   0.0021866
        k(   30) = (   0.0000000  -0.5773503   0.0802568), wk =   0.0043732
        k(   31) = (   0.0000000  -0.5773503   0.1605136), wk =   0.0043732
        k(   32) = (   0.0000000  -0.5773503   0.2407705), wk =   0.0043732
        k(   33) = (   0.0714286   0.1237179   0.0000000), wk =   0.0043732
        k(   34) = (   0.0714286   0.1237179   0.0802568), wk =   0.0087464
        k(   35) = (   0.0714286   0.1237179   0.1605136), wk =   0.0087464
        k(   36) = (   0.0714286   0.1237179   0.2407705), wk =   0.0087464
        k(   37) = (   0.0714286   0.2061965   0.0000000), wk =   0.0087464
        k(   38) = (   0.0714286   0.2061965   0.0802568), wk =   0.0174927
        k(   39) = (   0.0714286   0.2061965   0.1605136), wk =   0.0174927
        k(   40) = (   0.0714286   0.2061965   0.2407705), wk =   0.0174927
        k(   41) = (   0.0714286   0.2886751   0.0000000), wk =   0.0087464
        k(   42) = (   0.0714286   0.2886751   0.0802568), wk =   0.0174927
        k(   43) = (   0.0714286   0.2886751   0.1605136), wk =   0.0174927
        k(   44) = (   0.0714286   0.2886751   0.2407705), wk =   0.0174927
        k(   45) = (   0.0714286   0.3711537   0.0000000), wk =   0.0087464
        k(   46) = (   0.0714286   0.3711537   0.0802568), wk =   0.0174927
        k(   47) = (   0.0714286   0.3711537   0.1605136), wk =   0.0174927
        k(   48) = (   0.0714286   0.3711537   0.2407705), wk =   0.0174927
        k(   49) = (   0.0714286   0.4536324   0.0000000), wk =   0.0087464
        k(   50) = (   0.0714286   0.4536324   0.0802568), wk =   0.0174927
        k(   51) = (   0.0714286   0.4536324   0.1605136), wk =   0.0174927
        k(   52) = (   0.0714286   0.4536324   0.2407705), wk =   0.0174927
        k(   53) = (   0.0714286   0.5361110   0.0000000), wk =   0.0087464
        k(   54) = (   0.0714286   0.5361110   0.0802568), wk =   0.0174927
        k(   55) = (   0.0714286   0.5361110   0.1605136), wk =   0.0174927
        k(   56) = (   0.0714286   0.5361110   0.2407705), wk =   0.0174927
        k(   57) = (   0.1428571   0.2474358   0.0000000), wk =   0.0043732
        k(   58) = (   0.1428571   0.2474358   0.0802568), wk =   0.0087464
        k(   59) = (   0.1428571   0.2474358   0.1605136), wk =   0.0087464
        k(   60) = (   0.1428571   0.2474358   0.2407705), wk =   0.0087464
        k(   61) = (   0.1428571   0.3299144   0.0000000), wk =   0.0087464
        k(   62) = (   0.1428571   0.3299144   0.0802568), wk =   0.0174927
        k(   63) = (   0.1428571   0.3299144   0.1605136), wk =   0.0174927
        k(   64) = (   0.1428571   0.3299144   0.2407705), wk =   0.0174927
        k(   65) = (   0.1428571   0.4123930   0.0000000), wk =   0.0087464
        k(   66) = (   0.1428571   0.4123930   0.0802568), wk =   0.0174927
        k(   67) = (   0.1428571   0.4123930   0.1605136), wk =   0.0174927
        k(   68) = (   0.1428571   0.4123930   0.2407705), wk =   0.0174927
        k(   69) = (   0.1428571   0.4948717   0.0000000), wk =   0.0087464
        k(   70) = (   0.1428571   0.4948717   0.0802568), wk =   0.0174927
        k(   71) = (   0.1428571   0.4948717   0.1605136), wk =   0.0174927
        k(   72) = (   0.1428571   0.4948717   0.2407705), wk =   0.0174927
        k(   73) = (   0.1428571   0.5773503   0.0000000), wk =   0.0043732
        k(   74) = (   0.1428571   0.5773503   0.0802568), wk =   0.0087464
        k(   75) = (   0.1428571   0.5773503   0.1605136), wk =   0.0087464
        k(   76) = (   0.1428571   0.5773503   0.2407705), wk =   0.0087464
        k(   77) = (   0.2142857   0.3711537   0.0000000), wk =   0.0043732
        k(   78) = (   0.2142857   0.3711537   0.0802568), wk =   0.0087464
        k(   79) = (   0.2142857   0.3711537   0.1605136), wk =   0.0087464
        k(   80) = (   0.2142857   0.3711537   0.2407705), wk =   0.0087464
        k(   81) = (   0.2142857   0.4536324   0.0000000), wk =   0.0087464
        k(   82) = (   0.2142857   0.4536324   0.0802568), wk =   0.0174927
        k(   83) = (   0.2142857   0.4536324   0.1605136), wk =   0.0174927
        k(   84) = (   0.2142857   0.4536324   0.2407705), wk =   0.0174927
        k(   85) = (   0.2142857   0.5361110   0.0000000), wk =   0.0087464
        k(   86) = (   0.2142857   0.5361110   0.0802568), wk =   0.0174927
        k(   87) = (   0.2142857   0.5361110   0.1605136), wk =   0.0174927
        k(   88) = (   0.2142857   0.5361110   0.2407705), wk =   0.0174927
        k(   89) = (   0.2857143   0.4948717   0.0000000), wk =   0.0043732
        k(   90) = (   0.2857143   0.4948717   0.0802568), wk =   0.0087464
        k(   91) = (   0.2857143   0.4948717   0.1605136), wk =   0.0087464
        k(   92) = (   0.2857143   0.4948717   0.2407705), wk =   0.0087464
        k(   93) = (   0.2857143   0.5773503   0.0000000), wk =   0.0043732
        k(   94) = (   0.2857143   0.5773503   0.0802568), wk =   0.0087464
        k(   95) = (   0.2857143   0.5773503   0.1605136), wk =   0.0087464
        k(   96) = (   0.2857143   0.5773503   0.2407705), wk =   0.0087464

                       cryst. coord.
        k(    1) = (   0.0000000   0.0000000   0.0000000), wk =   0.0007289
        k(    2) = (   0.0000000   0.0000000   0.1428571), wk =   0.0014577
        k(    3) = (   0.0000000   0.0000000   0.2857143), wk =   0.0014577
        k(    4) = (   0.0000000   0.0000000   0.4285714), wk =   0.0014577
        k(    5) = (   0.0000000   0.0714286   0.0000000), wk =   0.0043732
        k(    6) = (   0.0000000   0.0714286   0.1428571), wk =   0.0087464
        k(    7) = (   0.0000000   0.0714286   0.2857143), wk =   0.0087464
        k(    8) = (   0.0000000   0.0714286   0.4285714), wk =   0.0087464
        k(    9) = (   0.0000000   0.1428571   0.0000000), wk =   0.0043732
        k(   10) = (   0.0000000   0.1428571   0.1428571), wk =   0.0087464
        k(   11) = (   0.0000000   0.1428571   0.2857143), wk =   0.0087464
        k(   12) = (   0.0000000   0.1428571   0.4285714), wk =   0.0087464
        k(   13) = (   0.0000000   0.2142857   0.0000000), wk =   0.0043732
        k(   14) = (   0.0000000   0.2142857   0.1428571), wk =   0.0087464
        k(   15) = (   0.0000000   0.2142857   0.2857143), wk =   0.0087464
        k(   16) = (   0.0000000   0.2142857   0.4285714), wk =   0.0087464
        k(   17) = (   0.0000000   0.2857143   0.0000000), wk =   0.0043732
        k(   18) = (   0.0000000   0.2857143   0.1428571), wk =   0.0087464
        k(   19) = (   0.0000000   0.2857143   0.2857143), wk =   0.0087464
        k(   20) = (   0.0000000   0.2857143   0.4285714), wk =   0.0087464
        k(   21) = (   0.0000000   0.3571429   0.0000000), wk =   0.0043732
        k(   22) = (   0.0000000   0.3571429   0.1428571), wk =   0.0087464
        k(   23) = (   0.0000000   0.3571429   0.2857143), wk =   0.0087464
        k(   24) = (   0.0000000   0.3571429   0.4285714), wk =   0.0087464
        k(   25) = (   0.0000000   0.4285714   0.0000000), wk =   0.0043732
        k(   26) = (   0.0000000   0.4285714   0.1428571), wk =   0.0087464
        k(   27) = (   0.0000000   0.4285714   0.2857143), wk =   0.0087464
        k(   28) = (   0.0000000   0.4285714   0.4285714), wk =   0.0087464
        k(   29) = (   0.0000000  -0.5000000   0.0000000), wk =   0.0021866
        k(   30) = (   0.0000000  -0.5000000   0.1428571), wk =   0.0043732
        k(   31) = (   0.0000000  -0.5000000   0.2857143), wk =   0.0043732
        k(   32) = (   0.0000000  -0.5000000   0.4285714), wk =   0.0043732
        k(   33) = (   0.0714286   0.0714286   0.0000000), wk =   0.0043732
        k(   34) = (   0.0714286   0.0714286   0.1428571), wk =   0.0087464
        k(   35) = (   0.0714286   0.0714286   0.2857143), wk =   0.0087464
        k(   36) = (   0.0714286   0.0714286   0.4285714), wk =   0.0087464
        k(   37) = (   0.0714286   0.1428571   0.0000000), wk =   0.0087464
        k(   38) = (   0.0714286   0.1428571   0.1428571), wk =   0.0174927
        k(   39) = (   0.0714286   0.1428571   0.2857143), wk =   0.0174927
        k(   40) = (   0.0714286   0.1428571   0.4285714), wk =   0.0174927
        k(   41) = (   0.0714286   0.2142857   0.0000000), wk =   0.0087464
        k(   42) = (   0.0714286   0.2142857   0.1428571), wk =   0.0174927
        k(   43) = (   0.0714286   0.2142857   0.2857143), wk =   0.0174927
        k(   44) = (   0.0714286   0.2142857   0.4285714), wk =   0.0174927
        k(   45) = (   0.0714286   0.2857143   0.0000000), wk =   0.0087464
        k(   46) = (   0.0714286   0.2857143   0.1428571), wk =   0.0174927
        k(   47) = (   0.0714286   0.2857143   0.2857143), wk =   0.0174927
        k(   48) = (   0.0714286   0.2857143   0.4285714), wk =   0.0174927
        k(   49) = (   0.0714286   0.3571429   0.0000000), wk =   0.0087464
        k(   50) = (   0.0714286   0.3571429   0.1428571), wk =   0.0174927
        k(   51) = (   0.0714286   0.3571429   0.2857143), wk =   0.0174927
        k(   52) = (   0.0714286   0.3571429   0.4285714), wk =   0.0174927
        k(   53) = (   0.0714286   0.4285714   0.0000000), wk =   0.0087464
        k(   54) = (   0.0714286   0.4285714   0.1428571), wk =   0.0174927
        k(   55) = (   0.0714286   0.4285714   0.2857143), wk =   0.0174927
        k(   56) = (   0.0714286   0.4285714   0.4285714), wk =   0.0174927
        k(   57) = (   0.1428571   0.1428571   0.0000000), wk =   0.0043732
        k(   58) = (   0.1428571   0.1428571   0.1428571), wk =   0.0087464
        k(   59) = (   0.1428571   0.1428571   0.2857143), wk =   0.0087464
        k(   60) = (   0.1428571   0.1428571   0.4285714), wk =   0.0087464
        k(   61) = (   0.1428571   0.2142857   0.0000000), wk =   0.0087464
        k(   62) = (   0.1428571   0.2142857   0.1428571), wk =   0.0174927
        k(   63) = (   0.1428571   0.2142857   0.2857143), wk =   0.0174927
        k(   64) = (   0.1428571   0.2142857   0.4285714), wk =   0.0174927
        k(   65) = (   0.1428571   0.2857143   0.0000000), wk =   0.0087464
        k(   66) = (   0.1428571   0.2857143   0.1428571), wk =   0.0174927
        k(   67) = (   0.1428571   0.2857143   0.2857143), wk =   0.0174927
        k(   68) = (   0.1428571   0.2857143   0.4285714), wk =   0.0174927
        k(   69) = (   0.1428571   0.3571429   0.0000000), wk =   0.0087464
        k(   70) = (   0.1428571   0.3571429   0.1428571), wk =   0.0174927
        k(   71) = (   0.1428571   0.3571429   0.2857143), wk =   0.0174927
        k(   72) = (   0.1428571   0.3571429   0.4285714), wk =   0.0174927
        k(   73) = (   0.1428571   0.4285714   0.0000000), wk =   0.0043732
        k(   74) = (   0.1428571   0.4285714   0.1428571), wk =   0.0087464
        k(   75) = (   0.1428571   0.4285714   0.2857143), wk =   0.0087464
        k(   76) = (   0.1428571   0.4285714   0.4285714), wk =   0.0087464
        k(   77) = (   0.2142857   0.2142857   0.0000000), wk =   0.0043732
        k(   78) = (   0.2142857   0.2142857   0.1428571), wk =   0.0087464
        k(   79) = (   0.2142857   0.2142857   0.2857143), wk =   0.0087464
        k(   80) = (   0.2142857   0.2142857   0.4285714), wk =   0.0087464
        k(   81) = (   0.2142857   0.2857143   0.0000000), wk =   0.0087464
        k(   82) = (   0.2142857   0.2857143   0.1428571), wk =   0.0174927
        k(   83) = (   0.2142857   0.2857143   0.2857143), wk =   0.0174927
        k(   84) = (   0.2142857   0.2857143   0.4285714), wk =   0.0174927
        k(   85) = (   0.2142857   0.3571429   0.0000000), wk =   0.0087464
        k(   86) = (   0.2142857   0.3571429   0.1428571), wk =   0.0174927
        k(   87) = (   0.2142857   0.3571429   0.2857143), wk =   0.0174927
        k(   88) = (   0.2142857   0.3571429   0.4285714), wk =   0.0174927
        k(   89) = (   0.2857143   0.2857143   0.0000000), wk =   0.0043732
        k(   90) = (   0.2857143   0.2857143   0.1428571), wk =   0.0087464
        k(   91) = (   0.2857143   0.2857143   0.2857143), wk =   0.0087464
        k(   92) = (   0.2857143   0.2857143   0.4285714), wk =   0.0087464
        k(   93) = (   0.2857143   0.3571429   0.0000000), wk =   0.0043732
        k(   94) = (   0.2857143   0.3571429   0.1428571), wk =   0.0087464
        k(   95) = (   0.2857143   0.3571429   0.2857143), wk =   0.0087464
        k(   96) = (   0.2857143   0.3571429   0.4285714), wk =   0.0087464

     Dense  grid:    16639 G-vectors     FFT dimensions: (  27,  27,  50)

     Dynamical RAM for                 wfc:       0.04 MB

     Dynamical RAM for     wfc (w. buffer):       3.50 MB

     Dynamical RAM for           str. fact:       0.02 MB

     Dynamical RAM for           local pot:       0.00 MB

     Dynamical RAM for          nlocal pot:       0.08 MB

     Dynamical RAM for                qrad:       1.34 MB

     Dynamical RAM for          rho,v,vnew:       0.24 MB

     Dynamical RAM for               rhoin:       0.08 MB

     Dynamical RAM for            rho*nmix:       0.58 MB

     Dynamical RAM for           G-vectors:       0.08 MB

     Dynamical RAM for          h,s,v(r/c):       0.05 MB

     Dynamical RAM for          <psi|beta>:       0.01 MB

     Dynamical RAM for                 psi:       0.07 MB

     Dynamical RAM for                hpsi:       0.07 MB

     Dynamical RAM for                spsi:       0.07 MB

     Dynamical RAM for      wfcinit/wfcrot:       0.08 MB

     Dynamical RAM for           addusdens:       1.73 MB

     Estimated static dynamical RAM per process >       5.52 MB

     Estimated max dynamical RAM per process >       7.83 MB

     Estimated total dynamical RAM >     211.10 MB

     Check: negative core charge=   -0.000003
     Generating pointlists ...
     new r_m :   0.4125 (alat units)  2.1244 (a.u.) for type    1

     The initial density is read from file :
     ./out/Zn.save/charge-density


     starting charge      24.1356, renormalised to      24.0000

     negative rho (up, down):  1.659E+00 1.659E+00
     Starting wfcs from file
     Checking if some PAW data can be deallocated... 

     total cpu time spent up to now is        0.5 secs

     Self-consistent Calculation

     iteration #  1     ecut=    70.00 Ry     beta= 0.70
     Davidson diagonalization with overlap

---- Real-time Memory Report at c_bands before calling an iterative solver
            58 MiB given to the printing process from OS
             0 MiB allocation reported by mallinfo(arena+hblkhd)
        151031 MiB available memory on the node where the printing process lives
------------------
     c_bands:  1 eigenvalues not converged
     c_bands:  1 eigenvalues not converged
     c_bands:  1 eigenvalues not converged
     c_bands:  1 eigenvalues not converged
     c_bands:  1 eigenvalues not converged
     c_bands:  1 eigenvalues not converged
     ethr =  1.00E-05,  avg # of iterations = 11.4

     negative rho (up, down):  1.281E-01 1.281E-01

     total cpu time spent up to now is        2.8 secs

     total energy              =    -487.26561396 Ry
     estimated scf accuracy    <       0.99294815 Ry

     total magnetization       =    -0.00 Bohr mag/cell
     absolute magnetization    =     0.00 Bohr mag/cell

     iteration #  2     ecut=    70.00 Ry     beta= 0.70
     Davidson diagonalization with overlap

---- Real-time Memory Report at c_bands before calling an iterative solver
            80 MiB given to the printing process from OS
             0 MiB allocation reported by mallinfo(arena+hblkhd)
        150719 MiB available memory on the node where the printing process lives
------------------
     ethr =  4.14E-03,  avg # of iterations =  1.0

     total cpu time spent up to now is        3.6 secs

     total energy              =    -487.43997691 Ry
     estimated scf accuracy    <       0.08492792 Ry

     total magnetization       =    -0.00 Bohr mag/cell
     absolute magnetization    =     0.00 Bohr mag/cell

     iteration #  3     ecut=    70.00 Ry     beta= 0.70
     Davidson diagonalization with overlap

---- Real-time Memory Report at c_bands before calling an iterative solver
            81 MiB given to the printing process from OS
             0 MiB allocation reported by mallinfo(arena+hblkhd)
        150702 MiB available memory on the node where the printing process lives
------------------
     ethr =  3.54E-04,  avg # of iterations =  2.7

     total cpu time spent up to now is        4.5 secs

     total energy              =    -487.44276172 Ry
     estimated scf accuracy    <       0.00358158 Ry

     total magnetization       =    -0.00 Bohr mag/cell
     absolute magnetization    =     0.00 Bohr mag/cell

     iteration #  4     ecut=    70.00 Ry     beta= 0.70
     Davidson diagonalization with overlap

---- Real-time Memory Report at c_bands before calling an iterative solver
            83 MiB given to the printing process from OS
             0 MiB allocation reported by mallinfo(arena+hblkhd)
        150689 MiB available memory on the node where the printing process lives
------------------
     ethr =  1.49E-05,  avg # of iterations =  5.7

     total cpu time spent up to now is        5.8 secs

     total energy              =    -487.44547659 Ry
     estimated scf accuracy    <       0.00428839 Ry

     total magnetization       =    -0.00 Bohr mag/cell
     absolute magnetization    =     0.00 Bohr mag/cell

     iteration #  5     ecut=    70.00 Ry     beta= 0.70
     Davidson diagonalization with overlap

---- Real-time Memory Report at c_bands before calling an iterative solver
            83 MiB given to the printing process from OS
             0 MiB allocation reported by mallinfo(arena+hblkhd)
        150678 MiB available memory on the node where the printing process lives
------------------
     ethr =  1.49E-05,  avg # of iterations =  2.0

     total cpu time spent up to now is        6.6 secs

     total energy              =    -487.44592634 Ry
     estimated scf accuracy    <       0.00019826 Ry

     total magnetization       =    -0.00 Bohr mag/cell
     absolute magnetization    =     0.00 Bohr mag/cell

     iteration #  6     ecut=    70.00 Ry     beta= 0.70
     Davidson diagonalization with overlap

---- Real-time Memory Report at c_bands before calling an iterative solver
            84 MiB given to the printing process from OS
             0 MiB allocation reported by mallinfo(arena+hblkhd)
        150675 MiB available memory on the node where the printing process lives
------------------
     ethr =  8.26E-07,  avg # of iterations =  2.8

     total cpu time spent up to now is        7.7 secs

     total energy              =    -487.44599409 Ry
     estimated scf accuracy    <       0.00000872 Ry

     total magnetization       =    -0.00 Bohr mag/cell
     absolute magnetization    =     0.00 Bohr mag/cell

     iteration #  7     ecut=    70.00 Ry     beta= 0.70
     Davidson diagonalization with overlap

---- Real-time Memory Report at c_bands before calling an iterative solver
            84 MiB given to the printing process from OS
             0 MiB allocation reported by mallinfo(arena+hblkhd)
        150560 MiB available memory on the node where the printing process lives
------------------
     ethr =  3.63E-08,  avg # of iterations =  3.5
 
     Magnetic moment per site  (integrated on atomic sphere of radius R)
     atom   1 (R=0.413)  charge= 10.7732  magn= -0.0000
     atom   2 (R=0.413)  charge= 10.7732  magn= -0.0000

     total cpu time spent up to now is        8.6 secs

     End of self-consistent calculation

 ------ SPIN UP ------------


          k = 0.0000 0.0000 0.0000 (  2053 PWs)   bands (ev):

     0.5157   2.3607   3.0251   3.1959   3.1959   3.2541   3.2541   3.5038
     3.5038   3.7480   3.7480   7.3971   8.1627  25.4754  26.9117  26.9119

     occupation numbers 
     1.0000   1.0000   1.0000   1.0000   1.0000   1.0000   1.0000   1.0000
     1.0000   1.0000   1.0000   1.0000   1.0000   0.0000   0.0000   0.0000

          k = 0.0000 0.0000 0.0803 (  2065 PWs)   bands (ev):

     0.6464   2.3541   3.0235   3.1920   3.1920   3.2465   3.2465   3.5228
     3.5228   3.7406   3.7406   5.9721   9.8630  23.3784  27.0398  27.0398

     occupation numbers 
     1.0000   1.0000   1.0000   1.0000   1.0000   1.0000   1.0000   1.0000
     1.0000   1.0000   1.0000   1.0000   1.0000   0.0000   0.0000   0.0000

          k = 0.0000 0.0000 0.1605 (  2064 PWs)   bands (ev):

     1.0257   2.3079   3.0335   3.1870   3.1870   3.2276   3.2276   3.5699
     3.5699   3.7178   3.7178   4.5407  12.1428  20.3576  27.4100  27.4102

     occupation numbers 
     1.0000   1.0000   1.0000   1.0000   1.0000   1.0000   1.0000   1.0000
     1.0000   1.0000   1.0000   1.0000   0.0000   0.0000   0.0000   0.0000

          k = 0.0000 0.0000 0.2408 (  2076 PWs)   bands (ev):

     1.5883   2.0999   3.1261   3.1908   3.1908   3.2059   3.2059   3.5426
     3.6267   3.6267   3.6788   3.6788  14.6715  17.4211  27.9615  27.9620

     occupation numbers 
     1.0000   1.0000   1.0000   1.0000   1.0000   1.0000   1.0000   1.0000
     1.0000   1.0000   1.0000   1.0000   0.0000   0.0000   0.0000   0.0000

          k = 0.0000 0.0825 0.0000 (  2048 PWs)   bands (ev):

     0.6593   2.4168   3.0337   3.1877   3.2280   3.2409   3.2840   3.4760
     3.4900   3.6749   3.7509   7.6215   8.2429  24.6544  25.6169  25.7460

     occupation numbers 
     1.0000   1.0000   1.0000   1.0000   1.0000   1.0000   1.0000   1.0000
     1.0000   1.0000   1.0000   1.0000   1.0000   0.0000   0.0000   0.0000

          k = 0.0000 0.0825 0.0803 (  2057 PWs)   bands (ev):

     0.7892   2.4137   3.0322   3.1796   3.2232   3.2315   3.2762   3.5004
     3.5107   3.6611   3.7428   6.1465   9.9969  23.4938  24.8058  25.8818

     occupation numbers 
     1.0000   1.0000   1.0000   1.0000   1.0000   1.0000   1.0000   1.0000
     1.0000   1.0000   1.0000   1.0000   1.0000   0.0000   0.0000   0.0000

          k = 0.0000 0.0825 0.1605 (  2067 PWs)   bands (ev):

     1.1651   2.3806   3.0376   3.1694   3.2080   3.2169   3.2569   3.5564
     3.5611   3.6113   3.7179   4.7344  12.2786  20.4843  25.1880  26.2843

     occupation numbers 
     1.0000   1.0000   1.0000   1.0000   1.0000   1.0000   1.0000   1.0000
     1.0000   1.0000   1.0000   1.0000   0.0000   0.0000   0.0000   0.0000

          k = 0.0000 0.0825 0.2408 (  2087 PWs)   bands (ev):

     1.7181   2.2021   3.1001   3.1765   3.1830   3.2201   3.2352   3.3977
     3.6211   3.6586   3.6763   3.8758  14.8055  17.5521  25.8251  26.6983

     occupation numbers 
     1.0000   1.0000   1.0000   1.0000   1.0000   1.0000   1.0000   1.0000
     1.0000   1.0000   1.0000   1.0000   0.0000   0.0000   0.0000   0.0000

          k = 0.0000 0.1650 0.0000 (  2058 PWs)   bands (ev):

     1.0808   2.5579   3.0393   3.1730   3.2380   3.3190   3.3678   3.3689
     3.4537   3.5360   3.7568   8.2414   8.4992  21.4461  24.1781  25.9332

     occupation numbers 
     1.0000   1.0000   1.0000   1.0000   1.0000   1.0000   1.0000   1.0000
     1.0000   1.0000   1.0000   1.0000   1.0000   0.0000   0.0000   0.0000

          k = 0.0000 0.1650 0.0803 (  2063 PWs)   bands (ev):

     1.2065   2.5635   3.0424   3.1546   3.2110   3.3098   3.3597   3.3978
     3.4815   3.5351   3.7469   6.6141  10.4040  21.5674  23.8831  24.3226

     occupation numbers 
     1.0000   1.0000   1.0000   1.0000   1.0000   1.0000   1.0000   1.0000
     1.0000   1.0000   1.0000   1.0000   1.0000   0.0000   0.0000   0.0000

          k = 0.0000 0.1650 0.1605 (  2072 PWs)   bands (ev):

     1.5668   2.5632   3.0453   3.1241   3.1658   3.2990   3.3395   3.3882
     3.5412   3.5867   3.7174   5.1887  12.6854  20.8176  22.0433  24.7035

     occupation numbers 
     1.0000   1.0000   1.0000   1.0000   1.0000   1.0000   1.0000   1.0000
     1.0000   1.0000   1.0000   1.0000   0.0000   0.0000   0.0000   0.0000

          k = 0.0000 0.1650 0.2408 (  2078 PWs)   bands (ev):

     2.0768   2.4647   3.0451   3.0910   3.1639   3.2710   3.3013   3.3170
     3.6083   3.6697   3.7583   4.2067  15.2041  17.9366  22.6602  23.5612

     occupation numbers 
     1.0000   1.0000   1.0000   1.0000   1.0000   1.0000   1.0000   1.0000
     1.0000   1.0000   1.0000   1.0000   0.0000   0.0000   0.0000   0.0000

          k = 0.0000 0.2474 0.0000 (  2072 PWs)   bands (ev):

     1.7292   2.6851   3.0607   3.1469   3.1739   3.3519   3.4054   3.4345
     3.4539   3.4941   3.7612   8.9738   9.1651  18.3493  22.7846  24.2522

     occupation numbers 
     1.0000   1.0000   1.0000   1.0000   1.0000   1.0000   1.0000   1.0000
     1.0000   1.0000   1.0000   1.0000   1.0000   0.0000   0.0000   0.0000

          k = 0.0000 0.2474 0.0803 (  2082 PWs)   bands (ev):

     1.8378   2.6980   3.0615   3.1155   3.1705   3.3445   3.3963   3.4722
     3.4811   3.4955   3.7497   7.3119  11.0922  18.4790  22.9352  23.0250

     occupation numbers 
     1.0000   1.0000   1.0000   1.0000   1.0000   1.0000   1.0000   1.0000
     1.0000   1.0000   1.0000   1.0000   0.0000   0.0000   0.0000   0.0000

          k = 0.0000 0.2474 0.1605 (  2078 PWs)   bands (ev):

     2.1323   2.7254   3.0429   3.0473   3.1774   3.3219   3.3937   3.4588
     3.5423   3.6326   3.7165   5.8479  13.3582  18.8513  21.5183  21.6658

     occupation numbers 
     1.0000   1.0000   1.0000   1.0000   1.0000   1.0000   1.0000   1.0000
     1.0000   1.0000   1.0000   1.0000   0.0000   0.0000   0.0000   0.0000

          k = 0.0000 0.2474 0.2408 (  2084 PWs)   bands (ev):

     2.4883   2.7025   2.9819   3.0004   3.2209   3.2784   3.4070   3.4316
     3.6049   3.6660   3.9883   4.7174  15.8494  18.4649  19.6999  20.5178

     occupation numbers 
     1.0000   1.0000   1.0000   1.0000   1.0000   1.0000   1.0000   1.0000
     1.0000   1.0000   1.0000   1.0000   0.0000   0.0000   0.0000   0.0000

          k = 0.0000 0.3299 0.0000 (  2086 PWs)   bands (ev):

     2.3612   2.6854   2.9824   3.1556   3.2436   3.3514   3.3556   3.6079
     3.6376   3.7061   3.7624   9.7171  10.3298  15.4637  21.4100  21.6404

     occupation numbers 
     1.0000   1.0000   1.0000   1.0000   1.0000   1.0000   1.0000   1.0000
     1.0000   1.0000   1.0000   1.0000   1.0000   0.0000   0.0000   0.0000

          k = 0.0000 0.3299 0.0803 (  2085 PWs)   bands (ev):

     2.4019   2.6982   2.9870   3.1105   3.2047   3.3698   3.4890   3.6119
     3.6278   3.7301   3.7522   8.2405  12.0541  15.5955  20.1957  21.7958

     occupation numbers 
     1.0000   1.0000   1.0000   1.0000   1.0000   1.0000   1.0000   1.0000
     1.0000   1.0000   1.0000   1.0000   0.0000   0.0000   0.0000   0.0000

          k = 0.0000 0.3299 0.1605 (  2084 PWs)   bands (ev):

     2.4994   2.7242   2.9659   2.9925   3.2941   3.4100   3.5557   3.5868
     3.6350   3.7261   3.9952   6.7569  14.2699  15.9852  18.8454  22.1953

     occupation numbers 
     1.0000   1.0000   1.0000   1.0000   1.0000   1.0000   1.0000   1.0000
     1.0000   1.0000   1.0000   1.0000   0.0000   0.0000   0.0000   0.0000

          k = 0.0000 0.3299 0.2408 (  2081 PWs)   bands (ev):

     2.6135   2.7080   2.9155   2.9404   3.4066   3.4682   3.5006   3.5320
     3.6613   3.6934   4.6139   5.5409  16.5373  16.6019  17.8839  19.5653

     occupation numbers 
     1.0000   1.0000   1.0000   1.0000   1.0000   1.0000   1.0000   1.0000
     1.0000   1.0000   1.0000   1.0000   0.0000   0.0000   0.0000   0.0000

          k = 0.0000 0.4124 0.0000 (  2080 PWs)   bands (ev):

     2.5583   2.6380   2.8364   3.2427   3.2821   3.3130   3.4504   3.7495
     3.7613   3.7727   4.6967  10.7138  11.6951  12.8795  18.7743  19.8169

     occupation numbers 
     1.0000   1.0000   1.0000   1.0000   1.0000   1.0000   1.0000   1.0000
     1.0000   1.0000   1.0000   1.0000   0.0000   0.0000   0.0000   0.0000

          k = 0.0000 0.4124 0.0803 (  2090 PWs)   bands (ev):

     2.5479   2.6333   2.8707   3.1203   3.3041   3.3323   3.5777   3.7225
     3.7524   3.7869   4.7902   9.4051  12.9184  13.3065  17.6355  20.9460

     occupation numbers 
     1.0000   1.0000   1.0000   1.0000   1.0000   1.0000   1.0000   1.0000
     1.0000   1.0000   1.0000   1.0000   0.0000   0.0000   0.0000   0.0000

          k = 0.0000 0.4124 0.1605 (  2093 PWs)   bands (ev):

     2.5417   2.6455   2.8911   2.9537   3.3871   3.4201   3.6519   3.6825
     3.7603   3.7892   5.1271   7.9421  13.3602  15.1020  16.6074  21.4162

     occupation numbers 
     1.0000   1.0000   1.0000   1.0000   1.0000   1.0000   1.0000   1.0000
     1.0000   1.0000   1.0000   1.0000   0.0000   0.0000   0.0000   0.0000

          k = 0.0000 0.4124 0.2408 (  2086 PWs)   bands (ev):

     2.5761   2.6324   2.8629   2.8752   3.4685   3.5623   3.5637   3.6680
     3.7712   3.7822   5.7727   6.7200  13.9984  14.8339  18.1271  20.5528

     occupation numbers 
     1.0000   1.0000   1.0000   1.0000   1.0000   1.0000   1.0000   1.0000
     1.0000   1.0000   1.0000   1.0000   0.0000   0.0000   0.0000   0.0000

          k = 0.0000 0.4949 0.0000 (  2090 PWs)   bands (ev):

     2.5360   2.6178   2.7474   3.2352   3.2845   3.3086   3.5753   3.7597
     3.8475   3.8714   6.2133  10.1849  12.3929  13.1889  16.4270  17.6745

     occupation numbers 
     1.0000   1.0000   1.0000   1.0000   1.0000   1.0000   1.0000   1.0000
     1.0000   1.0000   1.0000   1.0000   0.0000   0.0000   0.0000   0.0000

          k = 0.0000 0.4949 0.0803 (  2093 PWs)   bands (ev):

     2.5389   2.5730   2.8019   3.1101   3.3060   3.3586   3.6675   3.7322
     3.8497   3.8721   6.3224  10.0662  11.3913  14.2151  15.8135  18.9412

     occupation numbers 
     1.0000   1.0000   1.0000   1.0000   1.0000   1.0000   1.0000   1.0000
     1.0000   1.0000   1.0000   1.0000   0.0000   0.0000   0.0000   0.0000

          k = 0.0000 0.4949 0.1605 (  2088 PWs)   bands (ev):

     2.5140   2.5785   2.8376   2.9311   3.3672   3.4879   3.6602   3.7636
     3.8547   3.8711   6.6683   9.2299  11.1919  13.5780  17.2303  20.7412

     occupation numbers 
     1.0000   1.0000   1.0000   1.0000   1.0000   1.0000   1.0000   1.0000
     1.0000   1.0000   1.0000   1.0000   0.0000   0.0000   0.0000   0.0000

          k = 0.0000 0.4949 0.2408 (  2078 PWs)   bands (ev):

     2.5292   2.5729   2.8247   2.8300   3.4579   3.5621   3.6464   3.7557
     3.8609   3.8669   7.2802   8.1568  11.7065  12.5370  19.4329  21.3316

     occupation numbers 
     1.0000   1.0000   1.0000   1.0000   1.0000   1.0000   1.0000   1.0000
     1.0000   1.0000   1.0000   1.0000   0.0000   0.0000   0.0000   0.0000

          k = 0.0000-0.5774 0.0000 (  2090 PWs)   bands (ev):

     2.5182   2.6087   2.7177   3.2186   3.2745   3.3323   3.6161   3.7589
     3.8823   3.9079   7.8167   8.3616  13.5589  14.2216  14.8736  16.4252

     occupation numbers 
     1.0000   1.0000   1.0000   1.0000   1.0000   1.0000   1.0000   1.0000
     1.0000   1.0000   1.0000   1.0000   0.0000   0.0000   0.0000   0.0000

          k = 0.0000-0.5774 0.0803 (  2092 PWs)   bands (ev):

     2.5297   2.5478   2.7790   3.1032   3.2967   3.3774   3.7009   3.7323
     3.8844   3.9068   7.9356   8.4318  12.8199  12.8818  16.4883  17.3838

     occupation numbers 
     1.0000   1.0000   1.0000   1.0000   1.0000   1.0000   1.0000   1.0000
     1.0000   1.0000   1.0000   1.0000   0.0000   0.0000   0.0000   0.0000

          k = 0.0000-0.5774 0.1605 (  2092 PWs)   bands (ev):

     2.5001   2.5535   2.8186   2.9228   3.3598   3.5086   3.6603   3.7928
     3.8890   3.9039   8.2757   8.6326  11.5939  11.6546  18.5884  19.1935

     occupation numbers 
     1.0000   1.0000   1.0000   1.0000   1.0000   1.0000   1.0000   1.0000
     1.0000   1.0000   1.0000   1.0000   0.0000   0.0000   0.0000   0.0000

          k = 0.0000-0.5774 0.2408 (  2088 PWs)   bands (ev):

     2.5108   2.5512   2.8092   2.8158   3.4532   3.5603   3.6715   3.7838
     3.8943   3.8994   8.7212   8.8602  10.7628  10.7858  20.6410  20.9512

     occupation numbers 
     1.0000   1.0000   1.0000   1.0000   1.0000   1.0000   1.0000   1.0000
     1.0000   1.0000   1.0000   1.0000   1.0000   1.0000   0.0000   0.0000

          k = 0.0714 0.1237 0.0000 (  2071 PWs)   bands (ev):

     0.9424   2.5171   3.0384   3.1831   3.2146   3.2937   3.3488   3.4311
     3.4341   3.5808   3.7526   8.0421   8.4114  22.9786  23.2476  25.8640

     occupation numbers 
     1.0000   1.0000   1.0000   1.0000   1.0000   1.0000   1.0000   1.0000
     1.0000   1.0000   1.0000   1.0000   1.0000   0.0000   0.0000   0.0000

          k = 0.0714 0.1237 0.0803 (  2056 PWs)   bands (ev):

     1.0698   2.5203   3.0403   3.1631   3.2011   3.2859   3.3395   3.4469
     3.4716   3.5711   3.7438   6.4650  10.2677  23.1133  23.2696  23.8906

     occupation numbers 
     1.0000   1.0000   1.0000   1.0000   1.0000   1.0000   1.0000   1.0000
     1.0000   1.0000   1.0000   1.0000   1.0000   0.0000   0.0000   0.0000

          k = 0.0714 0.1237 0.1605 (  2069 PWs)   bands (ev):

     1.4367   2.5104   3.0439   3.1363   3.1666   3.2762   3.3195   3.4338
     3.5626   3.5703   3.7180   5.0481  12.5500  20.7259  23.5151  23.8225

     occupation numbers 
     1.0000   1.0000   1.0000   1.0000   1.0000   1.0000   1.0000   1.0000
     1.0000   1.0000   1.0000   1.0000   0.0000   0.0000   0.0000   0.0000

          k = 0.0714 0.1237 0.2408 (  2076 PWs)   bands (ev):

     1.9644   2.3873   3.0605   3.1180   3.1561   3.2642   3.2985   3.3070
     3.6162   3.6644   3.7276   4.1064  15.0721  17.8107  24.1770  24.4580

     occupation numbers 
     1.0000   1.0000   1.0000   1.0000   1.0000   1.0000   1.0000   1.0000
     1.0000   1.0000   1.0000   1.0000   0.0000   0.0000   0.0000   0.0000

          k = 0.0714 0.2062 0.0000 (  2079 PWs)   bands (ev):

     1.4841   2.6670   3.0227   3.1632   3.2408   3.2623   3.3767   3.4158
     3.4795   3.5037   3.7531   8.7786   8.8084  19.9518  21.7418  25.8124

     occupation numbers 
     1.0000   1.0000   1.0000   1.0000   1.0000   1.0000   1.0000   1.0000
     1.0000   1.0000   1.0000   1.0000   1.0000   0.0000   0.0000   0.0000

          k = 0.0714 0.2062 0.0803 (  2072 PWs)   bands (ev):

     1.6025   2.6789   3.0304   3.1355   3.1841   3.2923   3.3923   3.4321
     3.4725   3.5254   3.7447   7.0409  10.8170  20.0806  21.8674  24.2200

     occupation numbers 
     1.0000   1.0000   1.0000   1.0000   1.0000   1.0000   1.0000   1.0000
     1.0000   1.0000   1.0000   1.0000   0.0676   0.0000   0.0000   0.0000

          k = 0.0714 0.2062 0.1605 (  2073 PWs)   bands (ev):

     1.9348   2.7026   3.0484   3.0728   3.1183   3.2823   3.3725   3.4440
     3.5521   3.5907   3.7243   5.5915  13.0912  20.4007  21.2914  22.3594

     occupation numbers 
     1.0000   1.0000   1.0000   1.0000   1.0000   1.0000   1.0000   1.0000
     1.0000   1.0000   1.0000   1.0000   0.0000   0.0000   0.0000   0.0000

          k = 0.0714 0.2062 0.2408 (  2077 PWs)   bands (ev):

     2.3752   2.6645   3.0085   3.0191   3.1288   3.2074   3.3871   3.4148
     3.6136   3.6607   3.8901   4.5129  15.5973  18.3027  21.1948  22.0928

     occupation numbers 
     1.0000   1.0000   1.0000   1.0000   1.0000   1.0000   1.0000   1.0000
     1.0000   1.0000   1.0000   1.0000   0.0000   0.0000   0.0000   0.0000

          k = 0.0714 0.2887 0.0000 (  2086 PWs)   bands (ev):

     2.1699   2.7378   3.0667   3.0755   3.1499   3.3178   3.3797   3.4346
     3.5673   3.7006   3.7524   9.3944   9.8464  16.9659  20.5738  22.9037

     occupation numbers 
     1.0000   1.0000   1.0000   1.0000   1.0000   1.0000   1.0000   1.0000
     1.0000   1.0000   1.0000   1.0000   1.0000   0.0000   0.0000   0.0000

          k = 0.0714 0.2887 0.0803 (  2079 PWs)   bands (ev):

     2.2488   2.7530   3.0406   3.0968   3.1128   3.3520   3.3973   3.4509
     3.5868   3.6740   3.7691   7.8502  11.6468  17.0976  20.7092  21.6732

     occupation numbers 
     1.0000   1.0000   1.0000   1.0000   1.0000   1.0000   1.0000   1.0000
     1.0000   1.0000   1.0000   1.0000   0.0000   0.0000   0.0000   0.0000

          k = 0.0714 0.2887 0.1605 (  2083 PWs)   bands (ev):

     2.4425   2.7901   2.9782   3.0406   3.1645   3.3293   3.4162   3.5817
     3.5939   3.6714   3.8625   6.3732  13.8911  17.4848  20.3064  21.0691

     occupation numbers 
     1.0000   1.0000   1.0000   1.0000   1.0000   1.0000   1.0000   1.0000
     1.0000   1.0000   1.0000   1.0000   0.0000   0.0000   0.0000   0.0000

          k = 0.0714 0.2887 0.2408 (  2080 PWs)   bands (ev):

     2.6459   2.7817   2.9362   2.9843   3.2279   3.2845   3.4557   3.5209
     3.6558   3.6856   4.3294   5.1869  16.3374  18.0160  19.1748  19.2736

     occupation numbers 
     1.0000   1.0000   1.0000   1.0000   1.0000   1.0000   1.0000   1.0000
     1.0000   1.0000   1.0000   1.0000   0.0000   0.0000   0.0000   0.0000

          k = 0.0714 0.3712 0.0000 (  2079 PWs)   bands (ev):

     2.5793   2.6946   2.9034   3.2029   3.2674   3.2950   3.3651   3.5965
     3.7130   3.7500   4.2880  10.2952  11.1086  14.2127  19.6571  20.1645

     occupation numbers 
     1.0000   1.0000   1.0000   1.0000   1.0000   1.0000   1.0000   1.0000
     1.0000   1.0000   1.0000   1.0000   0.0000   0.0000   0.0000   0.0000

          k = 0.0714 0.3712 0.0803 (  2085 PWs)   bands (ev):

     2.5762   2.7045   2.9307   3.0984   3.2352   3.3584   3.4903   3.5897
     3.7127   3.7354   4.3592   8.9065  12.7326  14.3449  18.9662  19.8061

     occupation numbers 
     1.0000   1.0000   1.0000   1.0000   1.0000   1.0000   1.0000   1.0000
     1.0000   1.0000   1.0000   1.0000   0.0000   0.0000   0.0000   0.0000

          k = 0.0714 0.3712 0.1605 (  2083 PWs)   bands (ev):

     2.5908   2.7283   2.9328   2.9717   3.3065   3.4032   3.5525   3.6411
     3.6658   3.7541   4.6509   7.4307  14.7259  14.8854  17.6660  20.2163

     occupation numbers 
     1.0000   1.0000   1.0000   1.0000   1.0000   1.0000   1.0000   1.0000
     1.0000   1.0000   1.0000   1.0000   0.0000   0.0000   0.0000   0.0000

          k = 0.0714 0.3712 0.2408 (  2087 PWs)   bands (ev):

     2.6425   2.7124   2.8911   2.9243   3.4168   3.4569   3.5122   3.5495
     3.7356   3.7639   5.2708   6.2089  15.3689  16.1004  17.7189  20.0634

     occupation numbers 
     1.0000   1.0000   1.0000   1.0000   1.0000   1.0000   1.0000   1.0000
     1.0000   1.0000   1.0000   1.0000   0.0000   0.0000   0.0000   0.0000

          k = 0.0714 0.4536 0.0000 (  2089 PWs)   bands (ev):

     2.5949   2.6683   2.7911   3.2339   3.2834   3.3051   3.4763   3.7470
     3.7604   3.8207   5.5477  11.1076  12.1173  12.5509  17.6543  18.7861

     occupation numbers 
     1.0000   1.0000   1.0000   1.0000   1.0000   1.0000   1.0000   1.0000
     1.0000   1.0000   1.0000   0.0000   0.0000   0.0000   0.0000   0.0000

          k = 0.0714 0.4536 0.0803 (  2093 PWs)   bands (ev):

     2.5903   2.6351   2.8478   3.1064   3.2863   3.3552   3.5870   3.7157
     3.7609   3.8262   5.6539  10.1315  11.9256  13.9894  16.6169  19.1771

     occupation numbers 
     1.0000   1.0000   1.0000   1.0000   1.0000   1.0000   1.0000   1.0000
     1.0000   1.0000   1.0000   1.0000   0.0000   0.0000   0.0000   0.0000

          k = 0.0714 0.4536 0.1605 (  2084 PWs)   bands (ev):

     2.5666   2.6470   2.8838   2.9399   3.3334   3.4674   3.6415   3.6962
     3.7578   3.8370   6.0002   8.7396  12.2716  14.6932  16.6988  19.6045

     occupation numbers 
     1.0000   1.0000   1.0000   1.0000   1.0000   1.0000   1.0000   1.0000
     1.0000   1.0000   1.0000   1.0000   0.0000   0.0000   0.0000   0.0000

          k = 0.0714 0.4536 0.2408 (  2087 PWs)   bands (ev):

     2.5873   2.6385   2.8518   2.8673   3.4295   3.5391   3.5900   3.6762
     3.7993   3.8322   6.6297   7.5504  12.8964  13.7562  18.8286  20.2492

     occupation numbers 
     1.0000   1.0000   1.0000   1.0000   1.0000   1.0000   1.0000   1.0000
     1.0000   1.0000   1.0000   1.0000   0.0000   0.0000   0.0000   0.0000

          k = 0.0714 0.5361 0.0000 (  2097 PWs)   bands (ev):

     2.5594   2.6531   2.7347   3.2205   3.2672   3.3289   3.5674   3.7450
     3.8474   3.8715   7.2193   9.2634  13.2039  13.9977  15.5207  16.9054

     occupation numbers 
     1.0000   1.0000   1.0000   1.0000   1.0000   1.0000   1.0000   1.0000
     1.0000   1.0000   1.0000   1.0000   0.0000   0.0000   0.0000   0.0000

          k = 0.0714 0.5361 0.0803 (  2097 PWs)   bands (ev):

     2.5693   2.5885   2.8060   3.1050   3.2681   3.3880   3.6571   3.7171
     3.8457   3.8715   7.3309   9.3272  12.1043  13.8277  16.1355  18.0644

     occupation numbers 
     1.0000   1.0000   1.0000   1.0000   1.0000   1.0000   1.0000   1.0000
     1.0000   1.0000   1.0000   1.0000   0.0000   0.0000   0.0000   0.0000

          k = 0.0714 0.5361 0.1605 (  2090 PWs)   bands (ev):

     2.5380   2.5990   2.8491   2.9295   3.3190   3.5184   3.6410   3.7635
     3.8358   3.8693   7.6703   9.3896  11.0297  12.6617  18.0763  19.2897

     occupation numbers 
     1.0000   1.0000   1.0000   1.0000   1.0000   1.0000   1.0000   1.0000
     1.0000   1.0000   1.0000   1.0000   0.0000   0.0000   0.0000   0.0000

          k = 0.0714 0.5361 0.2408 (  2078 PWs)   bands (ev):

     2.5515   2.5965   2.8303   2.8351   3.4184   3.5342   3.6675   3.7722
     3.8359   3.8575   8.2349   8.9479  10.9309  11.6201  19.9473  20.1973

     occupation numbers 
     1.0000   1.0000   1.0000   1.0000   1.0000   1.0000   1.0000   1.0000
     1.0000   1.0000   1.0000   1.0000   0.0000   0.0000   0.0000   0.0000

          k = 0.1429 0.2474 0.0000 (  2075 PWs)   bands (ev):

     2.0930   2.8002   2.9707   3.1115   3.1578   3.2690   3.2907   3.4720
     3.5626   3.7155   3.7411   9.2918   9.6821  18.5234  18.8929  24.7199

     occupation numbers 
     1.0000   1.0000   1.0000   1.0000   1.0000   1.0000   1.0000   1.0000
     1.0000   1.0000   1.0000   1.0000   1.0000   0.0000   0.0000   0.0000

          k = 0.1429 0.2474 0.0803 (  2072 PWs)   bands (ev):

     2.1859   2.8173   2.9794   3.0718   3.1816   3.1883   3.4074   3.4414
     3.5935   3.6673   3.7784   7.7219  11.5116  18.6607  19.0189  23.2101

     occupation numbers 
     1.0000   1.0000   1.0000   1.0000   1.0000   1.0000   1.0000   1.0000
     1.0000   1.0000   1.0000   1.0000   0.0000   0.0000   0.0000   0.0000

          k = 0.1429 0.2474 0.1605 (  2078 PWs)   bands (ev):

     2.4253   2.8654   2.9970   3.0085   3.1062   3.1860   3.4161   3.5773
     3.6051   3.6391   3.8678   6.2502  13.7637  19.0699  19.3651  21.8138

     occupation numbers 
     1.0000   1.0000   1.0000   1.0000   1.0000   1.0000   1.0000   1.0000
     1.0000   1.0000   1.0000   1.0000   0.0000   0.0000   0.0000   0.0000

          k = 0.1429 0.2474 0.2408 (  2074 PWs)   bands (ev):

     2.6931   2.8812   2.9383   3.0196   3.0645   3.1348   3.4474   3.5154
     3.6732   3.6793   4.2654   5.0817  16.2358  18.7990  19.7431  20.3140

     occupation numbers 
     1.0000   1.0000   1.0000   1.0000   1.0000   1.0000   1.0000   1.0000
     1.0000   1.0000   1.0000   1.0000   0.0000   0.0000   0.0000   0.0000

          k = 0.1429 0.3299 0.0000 (  2082 PWs)   bands (ev):

     2.6540   2.8170   2.9626   3.0357   3.1833   3.2312   3.3771   3.4156
     3.7070   3.7286   4.2096  10.0857  10.8104  15.8233  17.7206  21.7877

     occupation numbers 
     1.0000   1.0000   1.0000   1.0000   1.0000   1.0000   1.0000   1.0000
     1.0000   1.0000   1.0000   1.0000   0.5634   0.0000   0.0000   0.0000

          k = 0.1429 0.3299 0.0803 (  2077 PWs)   bands (ev):

     2.6683   2.8321   2.9546   3.0344   3.1427   3.2989   3.3966   3.4376
     3.6969   3.7244   4.2680   8.6613  12.4803  15.9573  17.8549  20.5558

     occupation numbers 
     1.0000   1.0000   1.0000   1.0000   1.0000   1.0000   1.0000   1.0000
     1.0000   1.0000   1.0000   1.0000   0.0000   0.0000   0.0000   0.0000

          k = 0.1429 0.3299 0.1605 (  2077 PWs)   bands (ev):

     2.7059   2.8782   2.8980   3.0646   3.1272   3.2870   3.3963   3.6110
     3.6224   3.7548   4.5079   7.1875  14.6801  16.3543  18.2477  19.1984

     occupation numbers 
     1.0000   1.0000   1.0000   1.0000   1.0000   1.0000   1.0000   1.0000
     1.0000   1.0000   1.0000   1.0000   0.0000   0.0000   0.0000   0.0000

          k = 0.1429 0.3299 0.2408 (  2084 PWs)   bands (ev):

     2.7604   2.8265   2.9500   3.0229   3.1794   3.2388   3.4387   3.5228
     3.7361   3.7693   5.0711   5.9793  16.9395  16.9960  18.1752  18.8050

     occupation numbers 
     1.0000   1.0000   1.0000   1.0000   1.0000   1.0000   1.0000   1.0000
     1.0000   1.0000   1.0000   1.0000   0.0000   0.0000   0.0000   0.0000

          k = 0.1429 0.4124 0.0000 (  2086 PWs)   bands (ev):

     2.7370   2.7867   2.8479   3.1985   3.2420   3.2900   3.3455   3.5480
     3.7182   3.8066   5.2256  11.1536  12.1541  13.2393  16.9676  19.1680

     occupation numbers 
     1.0000   1.0000   1.0000   1.0000   1.0000   1.0000   1.0000   1.0000
     1.0000   1.0000   1.0000   0.0000   0.0000   0.0000   0.0000   0.0000

          k = 0.1429 0.4124 0.0803 (  2078 PWs)   bands (ev):

     2.7200   2.7616   2.9190   3.0679   3.2278   3.3538   3.4546   3.5434
     3.6885   3.8170   5.3264   9.8590  13.3206  13.7146  17.1046  18.0074

     occupation numbers 
     1.0000   1.0000   1.0000   1.0000   1.0000   1.0000   1.0000   1.0000
     1.0000   1.0000   1.0000   1.0000   0.0000   0.0000   0.0000   0.0000

          k = 0.1429 0.4124 0.1605 (  2083 PWs)   bands (ev):

     2.6874   2.7936   2.9116   2.9947   3.2437   3.3931   3.5073   3.6041
     3.6511   3.8347   5.6606   8.4089  13.7429  15.5539  16.9237  17.5183

     occupation numbers 
     1.0000   1.0000   1.0000   1.0000   1.0000   1.0000   1.0000   1.0000
     1.0000   1.0000   1.0000   1.0000   0.0000   0.0000   0.0000   0.0000

          k = 0.1429 0.4124 0.2408 (  2080 PWs)   bands (ev):

     2.7052   2.7666   2.8976   2.9571   3.3358   3.4198   3.4735   3.5111
     3.7721   3.8291   6.2818   7.2044  14.3899  15.2445  18.1440  18.3218

     occupation numbers 
     1.0000   1.0000   1.0000   1.0000   1.0000   1.0000   1.0000   1.0000
     1.0000   1.0000   1.0000   1.0000   0.0000   0.0000   0.0000   0.0000

          k = 0.1429 0.4949 0.0000 (  2096 PWs)   bands (ev):

     2.6772   2.7730   2.7779   3.1959   3.2772   3.3184   3.4230   3.7050
     3.7113   3.8407   6.7180  10.6508  12.7826  13.6461  16.5039  16.8215

     occupation numbers 
     1.0000   1.0000   1.0000   1.0000   1.0000   1.0000   1.0000   1.0000
     1.0000   1.0000   1.0000   1.0000   0.0000   0.0000   0.0000   0.0000

          k = 0.1429 0.4949 0.0803 (  2088 PWs)   bands (ev):

     2.6783   2.6972   2.8829   3.0911   3.2282   3.3851   3.5278   3.6805
     3.6998   3.8458   6.8328  10.5882  11.7350  14.6930  16.1444  16.6511

     occupation numbers 
     1.0000   1.0000   1.0000   1.0000   1.0000   1.0000   1.0000   1.0000
     1.0000   1.0000   1.0000   1.0000   0.0000   0.0000   0.0000   0.0000

          k = 0.1429 0.4949 0.1605 (  2083 PWs)   bands (ev):

     2.6402   2.7264   2.9296   2.9466   3.2372   3.4857   3.5910   3.6530
     3.6933   3.8514   7.1883   9.7706  11.5307  14.0036  17.0577  17.5708

     occupation numbers 
     1.0000   1.0000   1.0000   1.0000   1.0000   1.0000   1.0000   1.0000
     1.0000   1.0000   1.0000   1.0000   0.0000   0.0000   0.0000   0.0000

          k = 0.1429 0.4949 0.2408 (  2080 PWs)   bands (ev):

     2.6582   2.7183   2.8702   2.9119   3.3375   3.4672   3.5792   3.6371
     3.7717   3.8324   7.8045   8.6838  12.0804  12.9357  17.7292  18.5676

     occupation numbers 
     1.0000   1.0000   1.0000   1.0000   1.0000   1.0000   1.0000   1.0000
     1.0000   1.0000   1.0000   1.0000   0.0000   0.0000   0.0000   0.0000

          k = 0.1429 0.5774 0.0000 (  2099 PWs)   bands (ev):

     2.6551   2.7545   2.7623   3.2193   3.2285   3.3426   3.4701   3.7088
     3.7949   3.8153   8.3874   8.7361  14.0391  14.7134  15.2063  16.3539

     occupation numbers 
     1.0000   1.0000   1.0000   1.0000   1.0000   1.0000   1.0000   1.0000
     1.0000   1.0000   1.0000   1.0000   0.0000   0.0000   0.0000   0.0000

          k = 0.1429 0.5774 0.0803 (  2095 PWs)   bands (ev):

     2.6651   2.6693   2.8680   3.1065   3.2030   3.4095   3.5566   3.6780
     3.7926   3.8165   8.5143   8.8224  13.2685  13.2902  16.4893  16.8992

     occupation numbers 
     1.0000   1.0000   1.0000   1.0000   1.0000   1.0000   1.0000   1.0000
     1.0000   1.0000   1.0000   1.0000   0.0000   0.0000   0.0000   0.0000

          k = 0.1429 0.5774 0.1605 (  2083 PWs)   bands (ev):

     2.6225   2.7023   2.9241   2.9421   3.2226   3.5350   3.5850   3.6630
     3.7857   3.8133   8.8760   9.0760  11.9605  12.0670  16.9084  19.0065

     occupation numbers 
     1.0000   1.0000   1.0000   1.0000   1.0000   1.0000   1.0000   1.0000
     1.0000   1.0000   1.0000   1.0000   0.0000   0.0000   0.0000   0.0000

          k = 0.1429 0.5774 0.2408 (  2080 PWs)   bands (ev):

     2.6412   2.6996   2.8623   2.8963   3.3285   3.4629   3.6572   3.7060
     3.7770   3.7894   9.3492   9.4127  11.0711  11.1281  17.5831  18.4753

     occupation numbers 
     1.0000   1.0000   1.0000   1.0000   1.0000   1.0000   1.0000   1.0000
     1.0000   1.0000   1.0000   1.0000   0.0000   0.0000   0.0000   0.0000

          k = 0.2143 0.3712 0.0000 (  2079 PWs)   bands (ev):

     2.8513   2.8776   2.9133   3.0846   3.1757   3.2390   3.3666   3.4259
     3.7018   3.8045   5.1405  11.0784  12.0201  14.7771  15.1788  20.8830

     occupation numbers 
     1.0000   1.0000   1.0000   1.0000   1.0000   1.0000   1.0000   1.0000
     1.0000   1.0000   1.0000   0.0000   0.0000   0.0000   0.0000   0.0000

          k = 0.2143 0.3712 0.0803 (  2079 PWs)   bands (ev):

     2.8395   2.8618   2.9733   2.9737   3.2231   3.2823   3.3601   3.4733
     3.6715   3.8164   5.2385   9.7537  13.5742  14.9136  15.3126  19.5082

     occupation numbers 
     1.0000   1.0000   1.0000   1.0000   1.0000   1.0000   1.0000   1.0000
     1.0000   1.0000   1.0000   1.0000   0.0000   0.0000   0.0000   0.0000

          k = 0.2143 0.3712 0.1605 (  2087 PWs)   bands (ev):

     2.8080   2.8445   2.9363   3.0584   3.1792   3.2976   3.3633   3.5842
     3.6403   3.8358   5.5646   8.2987  15.3201  15.6675  15.7064  18.1007

     occupation numbers 
     1.0000   1.0000   1.0000   1.0000   1.0000   1.0000   1.0000   1.0000
     1.0000   1.0000   1.0000   1.0000   0.0000   0.0000   0.0000   0.0000

          k = 0.2143 0.3712 0.2408 (  2082 PWs)   bands (ev):

     2.7947   2.8044   2.9948   3.0651   3.1911   3.2559   3.4036   3.4870
     3.7711   3.8311   6.1774   7.0951  15.9929  16.3291  16.9238  16.9561

     occupation numbers 
     1.0000   1.0000   1.0000   1.0000   1.0000   1.0000   1.0000   1.0000
     1.0000   1.0000   1.0000   1.0000   0.0000   0.0000   0.0000   0.0000

          k = 0.2143 0.4536 0.0000 (  2083 PWs)   bands (ev):

     2.8202   2.8331   2.9104   3.1579   3.2331   3.2992   3.3141   3.5377
     3.6809   3.8313   6.4854  12.0879  12.7674  13.4366  14.4041  18.4417

     occupation numbers 
     1.0000   1.0000   1.0000   1.0000   1.0000   1.0000   1.0000   1.0000
     1.0000   1.0000   1.0000   0.0000   0.0000   0.0000   0.0000   0.0000

          k = 0.2143 0.4536 0.0803 (  2083 PWs)   bands (ev):

     2.7889   2.8488   2.9601   3.0483   3.2214   3.3388   3.3829   3.5543
     3.6493   3.8398   6.6015  11.0752  12.6527  14.5383  14.8563  17.3173

     occupation numbers 
     1.0000   1.0000   1.0000   1.0000   1.0000   1.0000   1.0000   1.0000
     1.0000   1.0000   1.0000   0.0000   0.0000   0.0000   0.0000   0.0000

          k = 0.2143 0.4536 0.1605 (  2080 PWs)   bands (ev):

     2.7629   2.8922   2.9081   3.0654   3.1657   3.3709   3.4317   3.5638
     3.6538   3.8507   6.9623   9.6786  13.0265  14.9458  15.5733  17.0333

     occupation numbers 
     1.0000   1.0000   1.0000   1.0000   1.0000   1.0000   1.0000   1.0000
     1.0000   1.0000   1.0000   1.0000   0.0000   0.0000   0.0000   0.0000

          k = 0.2143 0.4536 0.2408 (  2092 PWs)   bands (ev):

     2.7721   2.8211   2.9588   3.0342   3.2376   3.3457   3.4368   3.4807
     3.7685   3.8347   7.5915   8.5006  13.6743  14.5636  15.6072  16.4819

     occupation numbers 
     1.0000   1.0000   1.0000   1.0000   1.0000   1.0000   1.0000   1.0000
     1.0000   1.0000   1.0000   1.0000   0.0000   0.0000   0.0000   0.0000

          k = 0.2143 0.5361 0.0000 (  2088 PWs)   bands (ev):

     2.7918   2.8031   2.9023   3.1767   3.2325   3.3071   3.3552   3.6676
     3.6697   3.7902   8.1666  10.1421  14.0005  14.1492  14.9188  16.2724

     occupation numbers 
     1.0000   1.0000   1.0000   1.0000   1.0000   1.0000   1.0000   1.0000
     1.0000   1.0000   1.0000   1.0000   0.0000   0.0000   0.0000   0.0000

          k = 0.2143 0.5361 0.0803 (  2081 PWs)   bands (ev):

     2.7606   2.8184   2.9613   3.0910   3.1690   3.3829   3.4145   3.6371
     3.6718   3.7971   8.2873  10.2429  12.9078  14.2258  14.7264  16.8208

     occupation numbers 
     1.0000   1.0000   1.0000   1.0000   1.0000   1.0000   1.0000   1.0000
     1.0000   1.0000   1.0000   1.0000   0.0000   0.0000   0.0000   0.0000

          k = 0.2143 0.5361 0.1605 (  2088 PWs)   bands (ev):

     2.7386   2.8603   2.9519   3.0538   3.1193   3.4366   3.4919   3.5662
     3.6954   3.8068   8.6503  10.4471  11.7096  13.4850  14.6422  17.2679

     occupation numbers 
     1.0000   1.0000   1.0000   1.0000   1.0000   1.0000   1.0000   1.0000
     1.0000   1.0000   1.0000   1.0000   0.0000   0.0000   0.0000   0.0000

          k = 0.2143 0.5361 0.2408 (  2080 PWs)   bands (ev):

     2.7614   2.8325   2.9301   3.0027   3.2283   3.3654   3.5247   3.5461
     3.7492   3.7948   9.2521  10.0346  11.6087  12.3900  15.3094  16.2136

     occupation numbers 
     1.0000   1.0000   1.0000   1.0000   1.0000   1.0000   1.0000   1.0000
     1.0000   1.0000   1.0000   1.0000   0.0000   0.0000   0.0000   0.0000

          k = 0.2857 0.4949 0.0000 (  2075 PWs)   bands (ev):

     2.8127   2.9187   2.9684   3.1515   3.1956   3.2394   3.3647   3.5837
     3.6524   3.7845   8.0431  11.7875  12.1799  13.9958  14.9088  17.8498

     occupation numbers 
     1.0000   1.0000   1.0000   1.0000   1.0000   1.0000   1.0000   1.0000
     1.0000   1.0000   1.0000   0.0000   0.0000   0.0000   0.0000   0.0000

          k = 0.2857 0.4949 0.0803 (  2081 PWs)   bands (ev):

     2.8159   2.9231   2.9913   3.0576   3.2104   3.2834   3.3777   3.6046
     3.6194   3.7933   8.1662  11.8148  12.3196  12.8786  15.9304  16.5950

     occupation numbers 
     1.0000   1.0000   1.0000   1.0000   1.0000   1.0000   1.0000   1.0000
     1.0000   1.0000   1.0000   0.0000   0.0000   0.0000   0.0000   0.0000

          k = 0.2857 0.4949 0.1605 (  2086 PWs)   bands (ev):

     2.8236   2.9110   3.0021   3.0537   3.1582   3.3271   3.3988   3.5373
     3.6709   3.8064   8.5388  11.1439  12.5429  12.7321  15.1772  15.3601

     occupation numbers 
     1.0000   1.0000   1.0000   1.0000   1.0000   1.0000   1.0000   1.0000
     1.0000   1.0000   1.0000   0.0000   0.0000   0.0000   0.0000   0.0000

          k = 0.2857 0.4949 0.2408 (  2094 PWs)   bands (ev):

     2.8379   2.8671   3.0258   3.0700   3.1852   3.2837   3.4222   3.4610
     3.7490   3.7973   9.1682  10.0533  13.1117  13.3912  14.0268  14.3137

     occupation numbers 
     1.0000   1.0000   1.0000   1.0000   1.0000   1.0000   1.0000   1.0000
     1.0000   1.0000   1.0000   1.0000   0.0000   0.0000   0.0000   0.0000

          k = 0.2857 0.5774 0.0000 (  2087 PWs)   bands (ev):

     2.8125   2.9488   2.9929   3.1687   3.1707   3.1950   3.3902   3.6419
     3.6543   3.7136   9.8564   9.8963  11.8670  15.4070  16.1268  16.2647

     occupation numbers 
     1.0000   1.0000   1.0000   1.0000   1.0000   1.0000   1.0000   1.0000
     1.0000   1.0000   1.0000   1.0000   0.0000   0.0000   0.0000   0.0000

          k = 0.2857 0.5774 0.0803 (  2088 PWs)   bands (ev):

     2.8262   2.9511   2.9848   3.1021   3.1768   3.2485   3.3986   3.6081
     3.6683   3.7265   9.9670  10.0314  11.9960  14.5309  14.5758  16.4073

     occupation numbers 
     1.0000   1.0000   1.0000   1.0000   1.0000   1.0000   1.0000   1.0000
     1.0000   1.0000   1.0000   1.0000   0.0000   0.0000   0.0000   0.0000

          k = 0.2857 0.5774 0.1605 (  2099 PWs)   bands (ev):

     2.8504   2.9415   2.9945   3.0480   3.1841   3.2807   3.4142   3.5262
     3.7053   3.7519  10.2989  10.4214  12.3391  13.1997  13.3182  15.1607

     occupation numbers 
     1.0000   1.0000   1.0000   1.0000   1.0000   1.0000   1.0000   1.0000
     1.0000   1.0000   1.0000   1.0000   0.0000   0.0000   0.0000   0.0000

          k = 0.2857 0.5774 0.2408 (  2087 PWs)   bands (ev):

     2.8702   2.9028   3.0315   3.0419   3.2061   3.2605   3.4269   3.4533
     3.7454   3.7634  10.8176  10.9576  12.0316  12.2559  13.1661  14.0418

     occupation numbers 
     1.0000   1.0000   1.0000   1.0000   1.0000   1.0000   1.0000   1.0000
     1.0000   1.0000   0.0513   0.0000   0.0000   0.0000   0.0000   0.0000

 ------ SPIN DOWN ----------


          k = 0.0000 0.0000 0.0000 (  2053 PWs)   bands (ev):

     0.5157   2.3607   3.0251   3.1959   3.1959   3.2541   3.2541   3.5038
     3.5038   3.7480   3.7480   7.3971   8.1627  25.4754  26.9117  26.9119

     occupation numbers 
     1.0000   1.0000   1.0000   1.0000   1.0000   1.0000   1.0000   1.0000
     1.0000   1.0000   1.0000   1.0000   1.0000   0.0000   0.0000   0.0000

          k = 0.0000 0.0000 0.0803 (  2065 PWs)   bands (ev):

     0.6464   2.3541   3.0235   3.1920   3.1920   3.2465   3.2465   3.5228
     3.5228   3.7406   3.7406   5.9721   9.8630  23.3784  27.0398  27.0398

     occupation numbers 
     1.0000   1.0000   1.0000   1.0000   1.0000   1.0000   1.0000   1.0000
     1.0000   1.0000   1.0000   1.0000   1.0000   0.0000   0.0000   0.0000

          k = 0.0000 0.0000 0.1605 (  2064 PWs)   bands (ev):

     1.0257   2.3079   3.0335   3.1870   3.1870   3.2276   3.2276   3.5699
     3.5699   3.7178   3.7178   4.5407  12.1428  20.3576  27.4100  27.4102

     occupation numbers 
     1.0000   1.0000   1.0000   1.0000   1.0000   1.0000   1.0000   1.0000
     1.0000   1.0000   1.0000   1.0000   0.0000   0.0000   0.0000   0.0000

          k = 0.0000 0.0000 0.2408 (  2076 PWs)   bands (ev):

     1.5883   2.0999   3.1261   3.1908   3.1908   3.2059   3.2059   3.5426
     3.6267   3.6267   3.6788   3.6788  14.6715  17.4211  27.9615  27.9620

     occupation numbers 
     1.0000   1.0000   1.0000   1.0000   1.0000   1.0000   1.0000   1.0000
     1.0000   1.0000   1.0000   1.0000   0.0000   0.0000   0.0000   0.0000

          k = 0.0000 0.0825 0.0000 (  2048 PWs)   bands (ev):

     0.6593   2.4168   3.0337   3.1877   3.2280   3.2409   3.2840   3.4760
     3.4900   3.6749   3.7509   7.6215   8.2429  24.6544  25.6169  25.7460

     occupation numbers 
     1.0000   1.0000   1.0000   1.0000   1.0000   1.0000   1.0000   1.0000
     1.0000   1.0000   1.0000   1.0000   1.0000   0.0000   0.0000   0.0000

          k = 0.0000 0.0825 0.0803 (  2057 PWs)   bands (ev):

     0.7892   2.4137   3.0322   3.1796   3.2232   3.2315   3.2762   3.5004
     3.5107   3.6611   3.7428   6.1465   9.9969  23.4938  24.8058  25.8818

     occupation numbers 
     1.0000   1.0000   1.0000   1.0000   1.0000   1.0000   1.0000   1.0000
     1.0000   1.0000   1.0000   1.0000   1.0000   0.0000   0.0000   0.0000

          k = 0.0000 0.0825 0.1605 (  2067 PWs)   bands (ev):

     1.1651   2.3806   3.0376   3.1694   3.2080   3.2169   3.2569   3.5564
     3.5611   3.6113   3.7179   4.7344  12.2786  20.4843  25.1880  26.2843

     occupation numbers 
     1.0000   1.0000   1.0000   1.0000   1.0000   1.0000   1.0000   1.0000
     1.0000   1.0000   1.0000   1.0000   0.0000   0.0000   0.0000   0.0000

[...]

     occupation numbers 
     1.0000   1.0000   1.0000   1.0000   1.0000   1.0000   1.0000   1.0000
     1.0000   1.0000   1.0000   1.0000   1.0000   0.0000   0.0000   0.0000

          k = 0.1429 0.2474 0.0803 (  2072 PWs)   bands (ev):

     2.1859   2.8173   2.9794   3.0718   3.1816   3.1883   3.4074   3.4414
     3.5935   3.6673   3.7784   7.7219  11.5116  18.6607  19.0189  23.2101

     occupation numbers 
     1.0000   1.0000   1.0000   1.0000   1.0000   1.0000   1.0000   1.0000
     1.0000   1.0000   1.0000   1.0000   0.0000   0.0000   0.0000   0.0000

          k = 0.1429 0.2474 0.1605 (  2078 PWs)   bands (ev):

     2.4253   2.8654   2.9970   3.0085   3.1062   3.1860   3.4161   3.5773
     3.6051   3.6391   3.8678   6.2502  13.7637  19.0699  19.3651  21.8138

     occupation numbers 
     1.0000   1.0000   1.0000   1.0000   1.0000   1.0000   1.0000   1.0000
     1.0000   1.0000   1.0000   1.0000   0.0000   0.0000   0.0000   0.0000

          k = 0.1429 0.2474 0.2408 (  2074 PWs)   bands (ev):

     2.6931   2.8812   2.9383   3.0196   3.0645   3.1348   3.4474   3.5154
     3.6732   3.6793   4.2654   5.0817  16.2358  18.7990  19.7431  20.3140

     occupation numbers 
     1.0000   1.0000   1.0000   1.0000   1.0000   1.0000   1.0000   1.0000
     1.0000   1.0000   1.0000   1.0000   0.0000   0.0000   0.0000   0.0000

          k = 0.1429 0.3299 0.0000 (  2082 PWs)   bands (ev):

     2.6540   2.8170   2.9626   3.0357   3.1833   3.2312   3.3771   3.4156
     3.7070   3.7286   4.2096  10.0857  10.8104  15.8233  17.7206  21.7877

     occupation numbers 
     1.0000   1.0000   1.0000   1.0000   1.0000   1.0000   1.0000   1.0000
     1.0000   1.0000   1.0000   1.0000   0.5635   0.0000   0.0000   0.0000

          k = 0.1429 0.3299 0.0803 (  2077 PWs)   bands (ev):

     2.6683   2.8321   2.9546   3.0344   3.1427   3.2989   3.3966   3.4376
     3.6969   3.7244   4.2680   8.6613  12.4803  15.9573  17.8549  20.5558

     occupation numbers 
     1.0000   1.0000   1.0000   1.0000   1.0000   1.0000   1.0000   1.0000
     1.0000   1.0000   1.0000   1.0000   0.0000   0.0000   0.0000   0.0000

          k = 0.1429 0.3299 0.1605 (  2077 PWs)   bands (ev):

     2.7059   2.8782   2.8980   3.0646   3.1272   3.2870   3.3963   3.6110
     3.6224   3.7548   4.5079   7.1875  14.6801  16.3543  18.2477  19.1984

     occupation numbers 
     1.0000   1.0000   1.0000   1.0000   1.0000   1.0000   1.0000   1.0000
     1.0000   1.0000   1.0000   1.0000   0.0000   0.0000   0.0000   0.0000

          k = 0.1429 0.3299 0.2408 (  2084 PWs)   bands (ev):

     2.7604   2.8265   2.9500   3.0229   3.1794   3.2388   3.4387   3.5228
     3.7361   3.7693   5.0711   5.9793  16.9395  16.9960  18.1752  18.8050

     occupation numbers 
     1.0000   1.0000   1.0000   1.0000   1.0000   1.0000   1.0000   1.0000
     1.0000   1.0000   1.0000   1.0000   0.0000   0.0000   0.0000   0.0000

          k = 0.1429 0.4124 0.0000 (  2086 PWs)   bands (ev):

     2.7370   2.7867   2.8479   3.1985   3.2420   3.2900   3.3455   3.5480
     3.7182   3.8066   5.2256  11.1536  12.1541  13.2393  16.9676  19.1680

     occupation numbers 
     1.0000   1.0000   1.0000   1.0000   1.0000   1.0000   1.0000   1.0000
     1.0000   1.0000   1.0000   0.0000   0.0000   0.0000   0.0000   0.0000

          k = 0.1429 0.4124 0.0803 (  2078 PWs)   bands (ev):

     2.7200   2.7616   2.9190   3.0679   3.2278   3.3538   3.4546   3.5434
     3.6885   3.8170   5.3264   9.8590  13.3206  13.7146  17.1046  18.0074

     occupation numbers 
     1.0000   1.0000   1.0000   1.0000   1.0000   1.0000   1.0000   1.0000
     1.0000   1.0000   1.0000   1.0000   0.0000   0.0000   0.0000   0.0000

          k = 0.1429 0.4124 0.1605 (  2083 PWs)   bands (ev):

     2.6874   2.7936   2.9116   2.9947   3.2437   3.3931   3.5073   3.6041
     3.6511   3.8347   5.6606   8.4089  13.7429  15.5539  16.9237  17.5183

     occupation numbers 
     1.0000   1.0000   1.0000   1.0000   1.0000   1.0000   1.0000   1.0000
     1.0000   1.0000   1.0000   1.0000   0.0000   0.0000   0.0000   0.0000

          k = 0.1429 0.4124 0.2408 (  2080 PWs)   bands (ev):

     2.7052   2.7666   2.8976   2.9571   3.3358   3.4198   3.4735   3.5111
     3.7721   3.8291   6.2818   7.2044  14.3899  15.2445  18.1440  18.3218

     occupation numbers 
     1.0000   1.0000   1.0000   1.0000   1.0000   1.0000   1.0000   1.0000
     1.0000   1.0000   1.0000   1.0000   0.0000   0.0000   0.0000   0.0000

          k = 0.1429 0.4949 0.0000 (  2096 PWs)   bands (ev):

     2.6772   2.7730   2.7779   3.1959   3.2772   3.3184   3.4230   3.7050
     3.7113   3.8407   6.7180  10.6508  12.7826  13.6461  16.5039  16.8215

     occupation numbers 
     1.0000   1.0000   1.0000   1.0000   1.0000   1.0000   1.0000   1.0000
     1.0000   1.0000   1.0000   1.0000   0.0000   0.0000   0.0000   0.0000

          k = 0.1429 0.4949 0.0803 (  2088 PWs)   bands (ev):

     2.6783   2.6972   2.8829   3.0911   3.2282   3.3851   3.5278   3.6805
     3.6998   3.8458   6.8328  10.5882  11.7350  14.6930  16.1444  16.6511

     occupation numbers 
     1.0000   1.0000   1.0000   1.0000   1.0000   1.0000   1.0000   1.0000
     1.0000   1.0000   1.0000   1.0000   0.0000   0.0000   0.0000   0.0000

          k = 0.1429 0.4949 0.1605 (  2083 PWs)   bands (ev):

     2.6402   2.7264   2.9296   2.9466   3.2372   3.4857   3.5910   3.6530
     3.6933   3.8514   7.1883   9.7706  11.5307  14.0036  17.0577  17.5708

     occupation numbers 
     1.0000   1.0000   1.0000   1.0000   1.0000   1.0000   1.0000   1.0000
     1.0000   1.0000   1.0000   1.0000   0.0000   0.0000   0.0000   0.0000

          k = 0.1429 0.4949 0.2408 (  2080 PWs)   bands (ev):

     2.6582   2.7183   2.8702   2.9119   3.3375   3.4672   3.5792   3.6371
     3.7717   3.8324   7.8045   8.6838  12.0804  12.9357  17.7292  18.5676

     occupation numbers 
     1.0000   1.0000   1.0000   1.0000   1.0000   1.0000   1.0000   1.0000
     1.0000   1.0000   1.0000   1.0000   0.0000   0.0000   0.0000   0.0000

          k = 0.1429 0.5774 0.0000 (  2099 PWs)   bands (ev):

     2.6551   2.7545   2.7623   3.2193   3.2285   3.3426   3.4701   3.7088
     3.7949   3.8153   8.3874   8.7361  14.0391  14.7134  15.2063  16.3539

     occupation numbers 
     1.0000   1.0000   1.0000   1.0000   1.0000   1.0000   1.0000   1.0000
     1.0000   1.0000   1.0000   1.0000   0.0000   0.0000   0.0000   0.0000

          k = 0.1429 0.5774 0.0803 (  2095 PWs)   bands (ev):

     2.6651   2.6693   2.8680   3.1065   3.2030   3.4095   3.5566   3.6780
     3.7926   3.8165   8.5143   8.8224  13.2685  13.2902  16.4893  16.8992

     occupation numbers 
     1.0000   1.0000   1.0000   1.0000   1.0000   1.0000   1.0000   1.0000
     1.0000   1.0000   1.0000   1.0000   0.0000   0.0000   0.0000   0.0000

          k = 0.1429 0.5774 0.1605 (  2083 PWs)   bands (ev):

     2.6225   2.7023   2.9241   2.9421   3.2226   3.5350   3.5850   3.6630
     3.7857   3.8133   8.8760   9.0760  11.9605  12.0670  16.9084  19.0065

     occupation numbers 
     1.0000   1.0000   1.0000   1.0000   1.0000   1.0000   1.0000   1.0000
     1.0000   1.0000   1.0000   1.0000   0.0000   0.0000   0.0000   0.0000

          k = 0.1429 0.5774 0.2408 (  2080 PWs)   bands (ev):

     2.6412   2.6996   2.8623   2.8963   3.3285   3.4629   3.6572   3.7060
     3.7770   3.7894   9.3492   9.4127  11.0711  11.1281  17.5831  18.4753

     occupation numbers 
     1.0000   1.0000   1.0000   1.0000   1.0000   1.0000   1.0000   1.0000
     1.0000   1.0000   1.0000   1.0000   0.0000   0.0000   0.0000   0.0000

          k = 0.2143 0.3712 0.0000 (  2079 PWs)   bands (ev):

     2.8513   2.8776   2.9133   3.0846   3.1757   3.2390   3.3666   3.4259
     3.7018   3.8045   5.1405  11.0784  12.0201  14.7771  15.1788  20.8830

     occupation numbers 
     1.0000   1.0000   1.0000   1.0000   1.0000   1.0000   1.0000   1.0000
     1.0000   1.0000   1.0000   0.0000   0.0000   0.0000   0.0000   0.0000

          k = 0.2143 0.3712 0.0803 (  2079 PWs)   bands (ev):

     2.8395   2.8618   2.9733   2.9737   3.2231   3.2823   3.3601   3.4733
     3.6715   3.8164   5.2385   9.7537  13.5742  14.9136  15.3126  19.5082

     occupation numbers 
     1.0000   1.0000   1.0000   1.0000   1.0000   1.0000   1.0000   1.0000
     1.0000   1.0000   1.0000   1.0000   0.0000   0.0000   0.0000   0.0000

          k = 0.2143 0.3712 0.1605 (  2087 PWs)   bands (ev):

     2.8080   2.8445   2.9363   3.0584   3.1792   3.2976   3.3633   3.5842
     3.6403   3.8358   5.5646   8.2987  15.3201  15.6675  15.7064  18.1007

     occupation numbers 
     1.0000   1.0000   1.0000   1.0000   1.0000   1.0000   1.0000   1.0000
     1.0000   1.0000   1.0000   1.0000   0.0000   0.0000   0.0000   0.0000

          k = 0.2143 0.3712 0.2408 (  2082 PWs)   bands (ev):

     2.7947   2.8044   2.9948   3.0651   3.1911   3.2559   3.4036   3.4870
     3.7711   3.8311   6.1774   7.0951  15.9929  16.3291  16.9238  16.9561

     occupation numbers 
     1.0000   1.0000   1.0000   1.0000   1.0000   1.0000   1.0000   1.0000
     1.0000   1.0000   1.0000   1.0000   0.0000   0.0000   0.0000   0.0000

          k = 0.2143 0.4536 0.0000 (  2083 PWs)   bands (ev):

     2.8202   2.8331   2.9104   3.1579   3.2331   3.2992   3.3141   3.5377
     3.6809   3.8313   6.4854  12.0879  12.7674  13.4366  14.4041  18.4417

     occupation numbers 
     1.0000   1.0000   1.0000   1.0000   1.0000   1.0000   1.0000   1.0000
     1.0000   1.0000   1.0000   0.0000   0.0000   0.0000   0.0000   0.0000

          k = 0.2143 0.4536 0.0803 (  2083 PWs)   bands (ev):

     2.7889   2.8488   2.9601   3.0483   3.2214   3.3388   3.3829   3.5543
     3.6493   3.8398   6.6015  11.0752  12.6527  14.5383  14.8563  17.3173

     occupation numbers 
     1.0000   1.0000   1.0000   1.0000   1.0000   1.0000   1.0000   1.0000
     1.0000   1.0000   1.0000   0.0000   0.0000   0.0000   0.0000   0.0000

          k = 0.2143 0.4536 0.1605 (  2080 PWs)   bands (ev):

     2.7629   2.8922   2.9081   3.0654   3.1657   3.3709   3.4317   3.5638
     3.6538   3.8507   6.9623   9.6786  13.0265  14.9458  15.5733  17.0333

     occupation numbers 
     1.0000   1.0000   1.0000   1.0000   1.0000   1.0000   1.0000   1.0000
     1.0000   1.0000   1.0000   1.0000   0.0000   0.0000   0.0000   0.0000

          k = 0.2143 0.4536 0.2408 (  2092 PWs)   bands (ev):

     2.7721   2.8211   2.9588   3.0342   3.2376   3.3457   3.4368   3.4807
     3.7685   3.8347   7.5915   8.5006  13.6743  14.5636  15.6072  16.4819

     occupation numbers 
     1.0000   1.0000   1.0000   1.0000   1.0000   1.0000   1.0000   1.0000
     1.0000   1.0000   1.0000   1.0000   0.0000   0.0000   0.0000   0.0000

          k = 0.2143 0.5361 0.0000 (  2088 PWs)   bands (ev):

     2.7918   2.8031   2.9023   3.1767   3.2325   3.3071   3.3552   3.6676
     3.6697   3.7902   8.1666  10.1421  14.0005  14.1492  14.9188  16.2724

     occupation numbers 
     1.0000   1.0000   1.0000   1.0000   1.0000   1.0000   1.0000   1.0000
     1.0000   1.0000   1.0000   1.0000   0.0000   0.0000   0.0000   0.0000

          k = 0.2143 0.5361 0.0803 (  2081 PWs)   bands (ev):

     2.7606   2.8184   2.9613   3.0910   3.1690   3.3829   3.4145   3.6371
     3.6718   3.7971   8.2873  10.2429  12.9078  14.2258  14.7264  16.8208

     occupation numbers 
     1.0000   1.0000   1.0000   1.0000   1.0000   1.0000   1.0000   1.0000
     1.0000   1.0000   1.0000   1.0000   0.0000   0.0000   0.0000   0.0000

          k = 0.2143 0.5361 0.1605 (  2088 PWs)   bands (ev):

     2.7386   2.8603   2.9519   3.0538   3.1193   3.4366   3.4919   3.5662
     3.6954   3.8068   8.6503  10.4471  11.7096  13.4850  14.6422  17.2679

     occupation numbers 
     1.0000   1.0000   1.0000   1.0000   1.0000   1.0000   1.0000   1.0000
     1.0000   1.0000   1.0000   1.0000   0.0000   0.0000   0.0000   0.0000

          k = 0.2143 0.5361 0.2408 (  2080 PWs)   bands (ev):

     2.7614   2.8325   2.9301   3.0027   3.2283   3.3654   3.5247   3.5461
     3.7492   3.7948   9.2520  10.0346  11.6087  12.3900  15.3094  16.2136

     occupation numbers 
     1.0000   1.0000   1.0000   1.0000   1.0000   1.0000   1.0000   1.0000
     1.0000   1.0000   1.0000   1.0000   0.0000   0.0000   0.0000   0.0000

          k = 0.2857 0.4949 0.0000 (  2075 PWs)   bands (ev):

     2.8127   2.9187   2.9684   3.1515   3.1956   3.2394   3.3647   3.5837
     3.6524   3.7845   8.0431  11.7875  12.1799  13.9958  14.9088  17.8498

     occupation numbers 
     1.0000   1.0000   1.0000   1.0000   1.0000   1.0000   1.0000   1.0000
     1.0000   1.0000   1.0000   0.0000   0.0000   0.0000   0.0000   0.0000

          k = 0.2857 0.4949 0.0803 (  2081 PWs)   bands (ev):

     2.8159   2.9231   2.9913   3.0576   3.2104   3.2834   3.3777   3.6046
     3.6194   3.7933   8.1662  11.8148  12.3196  12.8786  15.9304  16.5950

     occupation numbers 
     1.0000   1.0000   1.0000   1.0000   1.0000   1.0000   1.0000   1.0000
     1.0000   1.0000   1.0000   0.0000   0.0000   0.0000   0.0000   0.0000

          k = 0.2857 0.4949 0.1605 (  2086 PWs)   bands (ev):

     2.8236   2.9110   3.0021   3.0537   3.1582   3.3271   3.3988   3.5373
     3.6709   3.8064   8.5388  11.1439  12.5429  12.7321  15.1772  15.3601

     occupation numbers 
     1.0000   1.0000   1.0000   1.0000   1.0000   1.0000   1.0000   1.0000
     1.0000   1.0000   1.0000   0.0000   0.0000   0.0000   0.0000   0.0000

          k = 0.2857 0.4949 0.2408 (  2094 PWs)   bands (ev):

     2.8379   2.8671   3.0258   3.0700   3.1852   3.2837   3.4222   3.4610
     3.7490   3.7973   9.1682  10.0533  13.1117  13.3912  14.0268  14.3137

     occupation numbers 
     1.0000   1.0000   1.0000   1.0000   1.0000   1.0000   1.0000   1.0000
     1.0000   1.0000   1.0000   1.0000   0.0000   0.0000   0.0000   0.0000

          k = 0.2857 0.5774 0.0000 (  2087 PWs)   bands (ev):

     2.8125   2.9488   2.9929   3.1687   3.1707   3.1950   3.3902   3.6419
     3.6543   3.7136   9.8564   9.8963  11.8670  15.4070  16.1268  16.2647

     occupation numbers 
     1.0000   1.0000   1.0000   1.0000   1.0000   1.0000   1.0000   1.0000
     1.0000   1.0000   1.0000   1.0000   0.0000   0.0000   0.0000   0.0000

          k = 0.2857 0.5774 0.0803 (  2088 PWs)   bands (ev):

     2.8262   2.9511   2.9848   3.1021   3.1768   3.2485   3.3986   3.6081
     3.6683   3.7265   9.9670  10.0314  11.9960  14.5309  14.5758  16.4073

     occupation numbers 
     1.0000   1.0000   1.0000   1.0000   1.0000   1.0000   1.0000   1.0000
     1.0000   1.0000   1.0000   1.0000   0.0000   0.0000   0.0000   0.0000

          k = 0.2857 0.5774 0.1605 (  2099 PWs)   bands (ev):

     2.8504   2.9415   2.9945   3.0480   3.1841   3.2807   3.4142   3.5262
     3.7053   3.7519  10.2989  10.4214  12.3391  13.1997  13.3182  15.1607

     occupation numbers 
     1.0000   1.0000   1.0000   1.0000   1.0000   1.0000   1.0000   1.0000
     1.0000   1.0000   1.0000   1.0000   0.0000   0.0000   0.0000   0.0000

          k = 0.2857 0.5774 0.2408 (  2087 PWs)   bands (ev):

     2.8702   2.9028   3.0315   3.0419   3.2061   3.2605   3.4269   3.4533
     3.7454   3.7634  10.8176  10.9576  12.0316  12.2559  13.1661  14.0418

     occupation numbers 
     1.0000   1.0000   1.0000   1.0000   1.0000   1.0000   1.0000   1.0000
     1.0000   1.0000   0.0513   0.0000   0.0000   0.0000   0.0000   0.0000

     the Fermi energy is    10.8119 ev

!    total energy              =    -487.44599641 Ry
     total all-electron energy =     -7184.240042 Ry
     estimated scf accuracy    <       0.00000051 Ry
     smearing contrib. (-TS)   =      -0.00000305 Ry
     internal energy E=F+TS    =    -487.44599335 Ry

     The total energy is F=E-TS. E is the sum of the following terms:
     one-electron contribution =    -118.42955800 Ry
     hartree contribution      =      92.15214971 Ry
     xc contribution           =     -94.34093090 Ry
     ewald contribution        =    -175.96143291 Ry
     one-center paw contrib.   =    -190.86622126 Ry
      -> PAW hartree energy AE =     121.34095581 Ry
      -> PAW hartree energy PS =    -120.71484647 Ry
      -> PAW xc energy AE      =    -143.03361686 Ry
      -> PAW xc energy PS      =      46.97439689 Ry
      -> total E_H with PAW    =      92.77825905 Ry
      -> total E_XC with PAW   =    -190.40015087 Ry

     total magnetization       =    -0.00 Bohr mag/cell
     absolute magnetization    =     0.00 Bohr mag/cell

     convergence has been achieved in   7 iterations

     Writing all to output data dir ./out/Zn.save/
 
     init_run     :      0.27s CPU      0.38s WALL (       1 calls)
     electrons    :      7.40s CPU      8.09s WALL (       1 calls)

     Called by init_run:
     wfcinit      :      0.12s CPU      0.20s WALL (       1 calls)
     potinit      :      0.10s CPU      0.13s WALL (       1 calls)
     hinit0       :      0.04s CPU      0.04s WALL (       1 calls)

     Called by electrons:
     c_bands      :      5.99s CPU      6.50s WALL (       7 calls)
     sum_band     :      0.74s CPU      0.78s WALL (       7 calls)
     v_of_rho     :      0.02s CPU      0.03s WALL (       8 calls)
     v_h          :      0.00s CPU      0.00s WALL (       8 calls)
     v_xc         :      0.02s CPU      0.02s WALL (       8 calls)
     newd         :      0.01s CPU      0.02s WALL (       8 calls)
     PAW_pot      :      0.73s CPU      0.87s WALL (       8 calls)
     mix_rho      :      0.00s CPU      0.00s WALL (       7 calls)

     Called by c_bands:
     init_us_2    :      0.05s CPU      0.06s WALL (    1344 calls)
     init_us_2:cp :      0.05s CPU      0.06s WALL (    1344 calls)
     cegterg      :      5.64s CPU      5.98s WALL (     672 calls)

     Called by sum_band:
     sum_band:wei :      0.01s CPU      0.01s WALL (       7 calls)
     sum_band:loo :      0.69s CPU      0.73s WALL (       7 calls)
     sum_band:buf :      0.01s CPU      0.01s WALL (     672 calls)
     sum_band:ini :      0.03s CPU      0.03s WALL (     672 calls)
     sum_band:cal :      0.05s CPU      0.06s WALL (     672 calls)
     sum_band:bec :      0.00s CPU      0.00s WALL (     672 calls)
     addusdens    :      0.02s CPU      0.03s WALL (       7 calls)
                                        0.00s GPU  (       7 calls)
     addusd:skk   :      0.00s CPU      0.00s WALL (       7 calls)
                                        0.00s GPU  (       7 calls)

     Called by *egterg:
     cdiaghg      :      0.99s CPU      1.04s WALL (    3363 calls)
     cegterg:over :      0.15s CPU      0.16s WALL (    2787 calls)
     cegterg:upda :      0.04s CPU      0.04s WALL (    2787 calls)
     cegterg:last :      0.07s CPU      0.07s WALL (    1874 calls)
     h_psi        :      4.18s CPU      4.45s WALL (    3459 calls)
     s_psi        :      0.07s CPU      0.08s WALL (    3459 calls)
     g_psi        :      0.01s CPU      0.02s WALL (    2787 calls)

     Called by h_psi:
     h_psi:calbec :      0.20s CPU      0.22s WALL (    3459 calls)
     vloc_psi     :      3.86s CPU      4.11s WALL (    3459 calls)
     add_vuspsi   :      0.09s CPU      0.09s WALL (    3459 calls)

     General routines
     calbec       :      0.25s CPU      0.26s WALL (    4131 calls)
     fft          :      0.01s CPU      0.01s WALL (     166 calls)
     ffts         :      0.00s CPU      0.00s WALL (      14 calls)
     fftw         :      4.13s CPU      4.39s WALL (   82960 calls)
 
     Parallel routines

     PAW routines
     PAW_pot      :      0.73s CPU      0.87s WALL (       8 calls)
     PAW_symme    :      0.01s CPU      0.01s WALL (      14 calls)
 
     PWSCF        :      7.89s CPU      9.06s WALL

 
   This run was terminated on:   3:30:22  13Mar2024            

=------------------------------------------------------------------------------=
   JOB DONE.
=------------------------------------------------------------------------------=
