
     Program PWSCF v.7.2 starts on 13Mar2024 at  3:27:36 

     This program is part of the open-source Quantum ESPRESSO suite
     for quantum simulation of materials; please cite
         "P. Giannozzi et al., J. Phys.:Condens. Matter 21 395502 (2009);
         "P. Giannozzi et al., J. Phys.:Condens. Matter 29 465901 (2017);
         "P. Giannozzi et al., J. Chem. Phys. 152 154105 (2020);
          URL http://www.quantum-espresso.org", 
     in publications or presentations arising from this work. More details at
     http://www.quantum-espresso.org/quote

     Parallel version (MPI), running on    28 processors

     MPI processes distributed on     1 nodes
     150175 MiB available memory on the printing compute node when the environment starts
 
     Waiting for input...
     Reading input from standard input

     Current dimensions of program PWSCF are:
     Max number of different atomic species (ntypx) = 10
     Max number of k-points (npk) = 120000
     Max angular momentum in pseudopotentials (lmaxx) =  4
     file Zn.pbe-dnl-kjpaw_psl.1.0.0.UPF: wavefunction(s)  4S 3D renormalized
 
     K-points division:     npool     =       2
     R & G space division:  proc/nbgrp/npool/nimage =      14
     Subspace diagonalization in iterative solution of the eigenvalue problem:
     a serial algorithm will be used

 
     Parallelization info
     --------------------
     sticks:   dense  smooth     PW     G-vecs:    dense   smooth      PW
     Min          35      35     10                 1141     1141     188
     Max          36      36     11                 1148     1148     195
     Sum         499     499    151                16039    16039    2697
 
     Using Slab Decomposition
 


     bravais-lattice index     =            4
     lattice parameter (alat)  =       5.0500  a.u.
     unit-cell volume          =     201.8754 (a.u.)^3
     number of atoms/cell      =            2
     number of atomic types    =            1
     number of electrons       =        24.00
     number of Kohn-Sham states=           16
     kinetic-energy cutoff     =      70.0000  Ry
     charge density cutoff     =     280.0000  Ry
     scf convergence threshold =      4.0E-06
     mixing beta               =       0.7000
     number of iterations used =            8  plain     mixing
     Exchange-correlation= SLA  PW   PBX  PBC
                           (   1   4   3   4   0   0   0)

     celldm(1)=   5.050000  celldm(2)=   0.000000  celldm(3)=   1.810000
     celldm(4)=   0.000000  celldm(5)=   0.000000  celldm(6)=   0.000000

     crystal axes: (cart. coord. in units of alat)
               a(1) = (   1.000000   0.000000   0.000000 )  
               a(2) = (  -0.500000   0.866025   0.000000 )  
               a(3) = (   0.000000   0.000000   1.810000 )  

     reciprocal axes: (cart. coord. in units 2 pi/alat)
               b(1) = (  1.000000  0.577350  0.000000 )  
               b(2) = (  0.000000  1.154701  0.000000 )  
               b(3) = (  0.000000  0.000000  0.552486 )  


     PseudoPot. # 1 for Zn read from file:
     /truba/home/amuhaymin/ZnS/pseudo/QE/Zn.pbe-dnl-kjpaw_psl.1.0.0.UPF
     MD5 check sum: c608214d9520ac179f507641260889e3
     Pseudo is Projector augmented-wave + core cor, Zval = 12.0
     Generated using &quot;atomic&quot; code by A. Dal Corso  v.6.2.2
     Shape of augmentation charge: PSQ
     Using radial grid of 1201 points,  6 beta functions with: 
                l(1) =   0
                l(2) =   0
                l(3) =   1
                l(4) =   1
                l(5) =   2
                l(6) =   2
     Q(r) pseudized with 0 coefficients 


     atomic species   valence    mass     pseudopotential
        Zn            12.00    65.38000     Zn( 1.00)

     Starting magnetic structure 
     atomic species   magnetization
        Zn           0.000

     24 Sym. Ops., with inversion, found (12 have fractional translation)


                                    s                        frac. trans.

      isym =  1     identity                                     

 cryst.   s( 1) = (     1          0          0      )
                  (     0          1          0      )
                  (     0          0          1      )

 cart.    s( 1) = (  1.0000000  0.0000000  0.0000000 )
                  (  0.0000000  1.0000000  0.0000000 )
                  (  0.0000000  0.0000000  1.0000000 )


      isym =  2     180 deg rotation - cart. axis [0,0,1]        

 cryst.   s( 2) = (    -1          0          0      )    f =(  0.0000000 )
                  (     0         -1          0      )       ( -0.0000000 )
                  (     0          0          1      )       ( -0.5000000 )

 cart.    s( 2) = ( -1.0000000  0.0000000  0.0000000 )    f =(  0.0000000 )
                  (  0.0000000 -1.0000000  0.0000000 )       ( -0.0000000 )
                  (  0.0000000  0.0000000  1.0000000 )       ( -0.9050000 )


      isym =  3     180 deg rotation - cart. axis [0,1,0]        

 cryst.   s( 3) = (    -1          0          0      )    f =(  0.0000000 )
                  (     1          1          0      )       (  0.0000000 )
                  (     0          0         -1      )       (  0.5000000 )

 cart.    s( 3) = ( -1.0000000  0.0000000  0.0000000 )    f =(  0.0000000 )
                  (  0.0000000  1.0000000  0.0000000 )       (  0.0000000 )
                  (  0.0000000  0.0000000 -1.0000000 )       (  0.9050000 )


      isym =  4     180 deg rotation - cart. axis [1,0,0]        

 cryst.   s( 4) = (     1          0          0      )
                  (    -1         -1          0      )
                  (     0          0         -1      )

 cart.    s( 4) = (  1.0000000  0.0000000  0.0000000 )
                  (  0.0000000 -1.0000000  0.0000000 )
                  (  0.0000000  0.0000000 -1.0000000 )


      isym =  5      60 deg rotation - cryst. axis [0,0,1]       

 cryst.   s( 5) = (     1          1          0      )    f =(  0.0000000 )
                  (    -1          0          0      )       ( -0.0000000 )
                  (     0          0          1      )       ( -0.5000000 )

 cart.    s( 5) = (  0.5000000 -0.8660254  0.0000000 )    f =(  0.0000000 )
                  (  0.8660254  0.5000000  0.0000000 )       ( -0.0000000 )
                  (  0.0000000  0.0000000  1.0000000 )       ( -0.9050000 )


      isym =  6      60 deg rotation - cryst. axis [0,0,-1]      

 cryst.   s( 6) = (     0         -1          0      )    f =(  0.0000000 )
                  (     1          1          0      )       ( -0.0000000 )
                  (     0          0          1      )       ( -0.5000000 )

 cart.    s( 6) = (  0.5000000  0.8660254  0.0000000 )    f =(  0.0000000 )
                  ( -0.8660254  0.5000000  0.0000000 )       ( -0.0000000 )
                  (  0.0000000  0.0000000  1.0000000 )       ( -0.9050000 )


      isym =  7     120 deg rotation - cryst. axis [0,0,1]       

 cryst.   s( 7) = (     0          1          0      )
                  (    -1         -1          0      )
                  (     0          0          1      )

 cart.    s( 7) = ( -0.5000000 -0.8660254  0.0000000 )
                  (  0.8660254 -0.5000000  0.0000000 )
                  (  0.0000000  0.0000000  1.0000000 )


      isym =  8     120 deg rotation - cryst. axis [0,0,-1]      

 cryst.   s( 8) = (    -1         -1          0      )
                  (     1          0          0      )
                  (     0          0          1      )

 cart.    s( 8) = ( -0.5000000  0.8660254  0.0000000 )
                  ( -0.8660254 -0.5000000  0.0000000 )
                  (  0.0000000  0.0000000  1.0000000 )


      isym =  9     180 deg rotation - cryst. axis [1,-1,0]      

 cryst.   s( 9) = (     0         -1          0      )    f =( -0.0000000 )
                  (    -1          0          0      )       ( -0.0000000 )
                  (     0          0         -1      )       (  0.5000000 )

 cart.    s( 9) = (  0.5000000 -0.8660254  0.0000000 )    f =( -0.0000000 )
                  ( -0.8660254 -0.5000000  0.0000000 )       ( -0.0000000 )
                  (  0.0000000  0.0000000 -1.0000000 )       (  0.9050000 )


      isym = 10     180 deg rotation - cryst. axis [2,1,0]       

 cryst.   s(10) = (     1          1          0      )    f =(  0.0000000 )
                  (     0         -1          0      )       ( -0.0000000 )
                  (     0          0         -1      )       (  0.5000000 )

 cart.    s(10) = (  0.5000000  0.8660254  0.0000000 )    f =(  0.0000000 )
                  (  0.8660254 -0.5000000  0.0000000 )       ( -0.0000000 )
                  (  0.0000000  0.0000000 -1.0000000 )       (  0.9050000 )


      isym = 11     180 deg rotation - cryst. axis [0,1,0]       

 cryst.   s(11) = (    -1         -1          0      )
                  (     0          1          0      )
                  (     0          0         -1      )

 cart.    s(11) = ( -0.5000000 -0.8660254  0.0000000 )
                  ( -0.8660254  0.5000000  0.0000000 )
                  (  0.0000000  0.0000000 -1.0000000 )


      isym = 12     180 deg rotation - cryst. axis [1,1,0]       

 cryst.   s(12) = (     0          1          0      )
                  (     1          0          0      )
                  (     0          0         -1      )

 cart.    s(12) = ( -0.5000000  0.8660254  0.0000000 )
                  (  0.8660254  0.5000000  0.0000000 )
                  (  0.0000000  0.0000000 -1.0000000 )


      isym = 13     inversion                                    

 cryst.   s(13) = (    -1          0          0      )
                  (     0         -1          0      )
                  (     0          0         -1      )

 cart.    s(13) = ( -1.0000000  0.0000000  0.0000000 )
                  (  0.0000000 -1.0000000  0.0000000 )
                  (  0.0000000  0.0000000 -1.0000000 )


      isym = 14     inv. 180 deg rotation - cart. axis [0,0,1]   

 cryst.   s(14) = (     1          0          0      )    f =(  0.0000000 )
                  (     0          1          0      )       (  0.0000000 )
                  (     0          0         -1      )       (  0.5000000 )

 cart.    s(14) = (  1.0000000  0.0000000  0.0000000 )    f =(  0.0000000 )
                  (  0.0000000  1.0000000  0.0000000 )       (  0.0000000 )
                  (  0.0000000  0.0000000 -1.0000000 )       (  0.9050000 )


      isym = 15     inv. 180 deg rotation - cart. axis [0,1,0]   

 cryst.   s(15) = (     1          0          0      )    f =(  0.0000000 )
                  (    -1         -1          0      )       ( -0.0000000 )
                  (     0          0          1      )       ( -0.5000000 )

 cart.    s(15) = (  1.0000000  0.0000000  0.0000000 )    f =(  0.0000000 )
                  (  0.0000000 -1.0000000  0.0000000 )       ( -0.0000000 )
                  (  0.0000000  0.0000000  1.0000000 )       ( -0.9050000 )


      isym = 16     inv. 180 deg rotation - cart. axis [1,0,0]   

 cryst.   s(16) = (    -1          0          0      )
                  (     1          1          0      )
                  (     0          0          1      )

 cart.    s(16) = ( -1.0000000  0.0000000  0.0000000 )
                  (  0.0000000  1.0000000  0.0000000 )
                  (  0.0000000  0.0000000  1.0000000 )


      isym = 17     inv.  60 deg rotation - cryst. axis [0,0,1]  

 cryst.   s(17) = (    -1         -1          0      )    f =(  0.0000000 )
                  (     1          0          0      )       ( -0.0000000 )
                  (     0          0         -1      )       (  0.5000000 )

 cart.    s(17) = ( -0.5000000  0.8660254  0.0000000 )    f =(  0.0000000 )
                  ( -0.8660254 -0.5000000  0.0000000 )       ( -0.0000000 )
                  (  0.0000000  0.0000000 -1.0000000 )       (  0.9050000 )


      isym = 18     inv.  60 deg rotation - cryst. axis [0,0,-1] 

 cryst.   s(18) = (     0          1          0      )    f =( -0.0000000 )
                  (    -1         -1          0      )       ( -0.0000000 )
                  (     0          0         -1      )       (  0.5000000 )

 cart.    s(18) = ( -0.5000000 -0.8660254  0.0000000 )    f =(  0.0000000 )
                  (  0.8660254 -0.5000000  0.0000000 )       ( -0.0000000 )
                  (  0.0000000  0.0000000 -1.0000000 )       (  0.9050000 )


      isym = 19     inv. 120 deg rotation - cryst. axis [0,0,1]  

 cryst.   s(19) = (     0         -1          0      )
                  (     1          1          0      )
                  (     0          0         -1      )

 cart.    s(19) = (  0.5000000  0.8660254  0.0000000 )
                  ( -0.8660254  0.5000000  0.0000000 )
                  (  0.0000000  0.0000000 -1.0000000 )


      isym = 20     inv. 120 deg rotation - cryst. axis [0,0,-1] 

 cryst.   s(20) = (     1          1          0      )
                  (    -1          0          0      )
                  (     0          0         -1      )

 cart.    s(20) = (  0.5000000 -0.8660254  0.0000000 )
                  (  0.8660254  0.5000000  0.0000000 )
                  (  0.0000000  0.0000000 -1.0000000 )


      isym = 21     inv. 180 deg rotation - cryst. axis [1,-1,0] 

 cryst.   s(21) = (     0          1          0      )    f =(  0.0000000 )
                  (     1          0          0      )       ( -0.0000000 )
                  (     0          0          1      )       ( -0.5000000 )

 cart.    s(21) = ( -0.5000000  0.8660254  0.0000000 )    f =(  0.0000000 )
                  (  0.8660254  0.5000000  0.0000000 )       ( -0.0000000 )
                  (  0.0000000  0.0000000  1.0000000 )       ( -0.9050000 )


      isym = 22     inv. 180 deg rotation - cryst. axis [2,1,0]  

 cryst.   s(22) = (    -1         -1          0      )    f =(  0.0000000 )
                  (     0          1          0      )       ( -0.0000000 )
                  (     0          0          1      )       ( -0.5000000 )

 cart.    s(22) = ( -0.5000000 -0.8660254  0.0000000 )    f =(  0.0000000 )
                  ( -0.8660254  0.5000000  0.0000000 )       ( -0.0000000 )
                  (  0.0000000  0.0000000  1.0000000 )       ( -0.9050000 )


      isym = 23     inv. 180 deg rotation - cryst. axis [0,1,0]  

 cryst.   s(23) = (     1          1          0      )
                  (     0         -1          0      )
                  (     0          0          1      )

 cart.    s(23) = (  0.5000000  0.8660254  0.0000000 )
                  (  0.8660254 -0.5000000  0.0000000 )
                  (  0.0000000  0.0000000  1.0000000 )


      isym = 24     inv. 180 deg rotation - cryst. axis [1,1,0]  

 cryst.   s(24) = (     0         -1          0      )
                  (    -1          0          0      )
                  (     0          0          1      )

 cart.    s(24) = (  0.5000000 -0.8660254  0.0000000 )
                  ( -0.8660254 -0.5000000  0.0000000 )
                  (  0.0000000  0.0000000  1.0000000 )


     point group D_6h(6/mmm)
     there are 12 classes
     the character table:

       E     2C6   2C3   C2    3C2'  3C2'' i     2S3   2S6   s_h   3s_d  3s_v 
A_1g   1.00  1.00  1.00  1.00  1.00  1.00  1.00  1.00  1.00  1.00  1.00  1.00
A_2g   1.00  1.00  1.00  1.00 -1.00 -1.00  1.00  1.00  1.00  1.00 -1.00 -1.00
B_1g   1.00 -1.00  1.00 -1.00  1.00 -1.00  1.00 -1.00  1.00 -1.00  1.00 -1.00
B_2g   1.00 -1.00  1.00 -1.00 -1.00  1.00  1.00 -1.00  1.00 -1.00 -1.00  1.00
E_1g   2.00  1.00 -1.00 -2.00  0.00  0.00  2.00  1.00 -1.00 -2.00  0.00  0.00
E_2g   2.00 -1.00 -1.00  2.00  0.00  0.00  2.00 -1.00 -1.00  2.00  0.00  0.00
A_1u   1.00  1.00  1.00  1.00  1.00  1.00 -1.00 -1.00 -1.00 -1.00 -1.00 -1.00
A_2u   1.00  1.00  1.00  1.00 -1.00 -1.00 -1.00 -1.00 -1.00 -1.00  1.00  1.00
B_1u   1.00 -1.00  1.00 -1.00  1.00 -1.00 -1.00  1.00 -1.00  1.00 -1.00  1.00
B_2u   1.00 -1.00  1.00 -1.00 -1.00  1.00 -1.00  1.00 -1.00  1.00  1.00 -1.00
E_1u   2.00  1.00 -1.00 -2.00  0.00  0.00 -2.00 -1.00  1.00  2.00  0.00  0.00
E_2u   2.00 -1.00 -1.00  2.00  0.00  0.00 -2.00  1.00  1.00 -2.00  0.00  0.00

     the symmetry operations in each class and the name of the first element:

     E        1
          identity                                               
     2C6      5    6
           60 deg rotation - cryst. axis [0,0,1]                 
     2C3      7    8
          120 deg rotation - cryst. axis [0,0,1]                 
     C2       2
          180 deg rotation - cart. axis [0,0,1]                  
     3C2'     4   12   11
          180 deg rotation - cart. axis [1,0,0]                  
     3C2''    3    9   10
          180 deg rotation - cart. axis [0,1,0]                  
     i       13
          inversion                                              
     2S3     17   18
          inv.  60 deg rotation - cryst. axis [0,0,1]            
     2S6     19   20
          inv. 120 deg rotation - cryst. axis [0,0,1]            
     s_h     14
          inv. 180 deg rotation - cart. axis [0,0,1]             
     3s_d    16   24   23
          inv. 180 deg rotation - cart. axis [1,0,0]             
     3s_v    15   21   22
          inv. 180 deg rotation - cart. axis [0,1,0]             

   Cartesian axes

     site n.     atom                  positions (alat units)
         1           Zn  tau(   1) = (  -0.0000000   0.5773503   0.4525000  )
         2           Zn  tau(   2) = (   0.5000000   0.2886751   1.3575000  )

   Crystallographic axes

     site n.     atom                  positions (cryst. coord.)
         1           Zn  tau(   1) = (  0.3333333  0.6666667  0.2500000  )
         2           Zn  tau(   2) = (  0.6666667  0.3333333  0.7500000  )

     number of k points=    96  Marzari-Vanderbilt smearing, width (Ry)=  0.0005
                       cart. coord. in units 2pi/alat
        k(    1) = (   0.0000000   0.0000000   0.0000000), wk =   0.0007289
        k(    2) = (   0.0000000   0.0000000   0.0789266), wk =   0.0014577
        k(    3) = (   0.0000000   0.0000000   0.1578532), wk =   0.0014577
        k(    4) = (   0.0000000   0.0000000   0.2367798), wk =   0.0014577
        k(    5) = (   0.0000000   0.0824786   0.0000000), wk =   0.0043732
        k(    6) = (   0.0000000   0.0824786   0.0789266), wk =   0.0087464
        k(    7) = (   0.0000000   0.0824786   0.1578532), wk =   0.0087464
        k(    8) = (   0.0000000   0.0824786   0.2367798), wk =   0.0087464
        k(    9) = (   0.0000000   0.1649572   0.0000000), wk =   0.0043732
        k(   10) = (   0.0000000   0.1649572   0.0789266), wk =   0.0087464
        k(   11) = (   0.0000000   0.1649572   0.1578532), wk =   0.0087464
        k(   12) = (   0.0000000   0.1649572   0.2367798), wk =   0.0087464
        k(   13) = (   0.0000000   0.2474358   0.0000000), wk =   0.0043732
        k(   14) = (   0.0000000   0.2474358   0.0789266), wk =   0.0087464
        k(   15) = (   0.0000000   0.2474358   0.1578532), wk =   0.0087464
        k(   16) = (   0.0000000   0.2474358   0.2367798), wk =   0.0087464
        k(   17) = (   0.0000000   0.3299144   0.0000000), wk =   0.0043732
        k(   18) = (   0.0000000   0.3299144   0.0789266), wk =   0.0087464
        k(   19) = (   0.0000000   0.3299144   0.1578532), wk =   0.0087464
        k(   20) = (   0.0000000   0.3299144   0.2367798), wk =   0.0087464
        k(   21) = (   0.0000000   0.4123930   0.0000000), wk =   0.0043732
        k(   22) = (   0.0000000   0.4123930   0.0789266), wk =   0.0087464
        k(   23) = (   0.0000000   0.4123930   0.1578532), wk =   0.0087464
        k(   24) = (   0.0000000   0.4123930   0.2367798), wk =   0.0087464
        k(   25) = (   0.0000000   0.4948717   0.0000000), wk =   0.0043732
        k(   26) = (   0.0000000   0.4948717   0.0789266), wk =   0.0087464
        k(   27) = (   0.0000000   0.4948717   0.1578532), wk =   0.0087464
        k(   28) = (   0.0000000   0.4948717   0.2367798), wk =   0.0087464
        k(   29) = (   0.0000000  -0.5773503   0.0000000), wk =   0.0021866
        k(   30) = (   0.0000000  -0.5773503   0.0789266), wk =   0.0043732
        k(   31) = (   0.0000000  -0.5773503   0.1578532), wk =   0.0043732
        k(   32) = (   0.0000000  -0.5773503   0.2367798), wk =   0.0043732
        k(   33) = (   0.0714286   0.1237179   0.0000000), wk =   0.0043732
        k(   34) = (   0.0714286   0.1237179   0.0789266), wk =   0.0087464
        k(   35) = (   0.0714286   0.1237179   0.1578532), wk =   0.0087464
        k(   36) = (   0.0714286   0.1237179   0.2367798), wk =   0.0087464
        k(   37) = (   0.0714286   0.2061965   0.0000000), wk =   0.0087464
        k(   38) = (   0.0714286   0.2061965   0.0789266), wk =   0.0174927
        k(   39) = (   0.0714286   0.2061965   0.1578532), wk =   0.0174927
        k(   40) = (   0.0714286   0.2061965   0.2367798), wk =   0.0174927
        k(   41) = (   0.0714286   0.2886751   0.0000000), wk =   0.0087464
        k(   42) = (   0.0714286   0.2886751   0.0789266), wk =   0.0174927
        k(   43) = (   0.0714286   0.2886751   0.1578532), wk =   0.0174927
        k(   44) = (   0.0714286   0.2886751   0.2367798), wk =   0.0174927
        k(   45) = (   0.0714286   0.3711537   0.0000000), wk =   0.0087464
        k(   46) = (   0.0714286   0.3711537   0.0789266), wk =   0.0174927
        k(   47) = (   0.0714286   0.3711537   0.1578532), wk =   0.0174927
        k(   48) = (   0.0714286   0.3711537   0.2367798), wk =   0.0174927
        k(   49) = (   0.0714286   0.4536324   0.0000000), wk =   0.0087464
        k(   50) = (   0.0714286   0.4536324   0.0789266), wk =   0.0174927
        k(   51) = (   0.0714286   0.4536324   0.1578532), wk =   0.0174927
        k(   52) = (   0.0714286   0.4536324   0.2367798), wk =   0.0174927
        k(   53) = (   0.0714286   0.5361110   0.0000000), wk =   0.0087464
        k(   54) = (   0.0714286   0.5361110   0.0789266), wk =   0.0174927
        k(   55) = (   0.0714286   0.5361110   0.1578532), wk =   0.0174927
        k(   56) = (   0.0714286   0.5361110   0.2367798), wk =   0.0174927
        k(   57) = (   0.1428571   0.2474358   0.0000000), wk =   0.0043732
        k(   58) = (   0.1428571   0.2474358   0.0789266), wk =   0.0087464
        k(   59) = (   0.1428571   0.2474358   0.1578532), wk =   0.0087464
        k(   60) = (   0.1428571   0.2474358   0.2367798), wk =   0.0087464
        k(   61) = (   0.1428571   0.3299144   0.0000000), wk =   0.0087464
        k(   62) = (   0.1428571   0.3299144   0.0789266), wk =   0.0174927
        k(   63) = (   0.1428571   0.3299144   0.1578532), wk =   0.0174927
        k(   64) = (   0.1428571   0.3299144   0.2367798), wk =   0.0174927
        k(   65) = (   0.1428571   0.4123930   0.0000000), wk =   0.0087464
        k(   66) = (   0.1428571   0.4123930   0.0789266), wk =   0.0174927
        k(   67) = (   0.1428571   0.4123930   0.1578532), wk =   0.0174927
        k(   68) = (   0.1428571   0.4123930   0.2367798), wk =   0.0174927
        k(   69) = (   0.1428571   0.4948717   0.0000000), wk =   0.0087464
        k(   70) = (   0.1428571   0.4948717   0.0789266), wk =   0.0174927
        k(   71) = (   0.1428571   0.4948717   0.1578532), wk =   0.0174927
        k(   72) = (   0.1428571   0.4948717   0.2367798), wk =   0.0174927
        k(   73) = (   0.1428571   0.5773503   0.0000000), wk =   0.0043732
        k(   74) = (   0.1428571   0.5773503   0.0789266), wk =   0.0087464
        k(   75) = (   0.1428571   0.5773503   0.1578532), wk =   0.0087464
        k(   76) = (   0.1428571   0.5773503   0.2367798), wk =   0.0087464
        k(   77) = (   0.2142857   0.3711537   0.0000000), wk =   0.0043732
        k(   78) = (   0.2142857   0.3711537   0.0789266), wk =   0.0087464
        k(   79) = (   0.2142857   0.3711537   0.1578532), wk =   0.0087464
        k(   80) = (   0.2142857   0.3711537   0.2367798), wk =   0.0087464
        k(   81) = (   0.2142857   0.4536324   0.0000000), wk =   0.0087464
        k(   82) = (   0.2142857   0.4536324   0.0789266), wk =   0.0174927
        k(   83) = (   0.2142857   0.4536324   0.1578532), wk =   0.0174927
        k(   84) = (   0.2142857   0.4536324   0.2367798), wk =   0.0174927
        k(   85) = (   0.2142857   0.5361110   0.0000000), wk =   0.0087464
        k(   86) = (   0.2142857   0.5361110   0.0789266), wk =   0.0174927
        k(   87) = (   0.2142857   0.5361110   0.1578532), wk =   0.0174927
        k(   88) = (   0.2142857   0.5361110   0.2367798), wk =   0.0174927
        k(   89) = (   0.2857143   0.4948717   0.0000000), wk =   0.0043732
        k(   90) = (   0.2857143   0.4948717   0.0789266), wk =   0.0087464
        k(   91) = (   0.2857143   0.4948717   0.1578532), wk =   0.0087464
        k(   92) = (   0.2857143   0.4948717   0.2367798), wk =   0.0087464
        k(   93) = (   0.2857143   0.5773503   0.0000000), wk =   0.0043732
        k(   94) = (   0.2857143   0.5773503   0.0789266), wk =   0.0087464
        k(   95) = (   0.2857143   0.5773503   0.1578532), wk =   0.0087464
        k(   96) = (   0.2857143   0.5773503   0.2367798), wk =   0.0087464

                       cryst. coord.
        k(    1) = (   0.0000000   0.0000000   0.0000000), wk =   0.0007289
        k(    2) = (   0.0000000   0.0000000   0.1428571), wk =   0.0014577
        k(    3) = (   0.0000000   0.0000000   0.2857143), wk =   0.0014577
        k(    4) = (   0.0000000   0.0000000   0.4285714), wk =   0.0014577
        k(    5) = (   0.0000000   0.0714286   0.0000000), wk =   0.0043732
        k(    6) = (   0.0000000   0.0714286   0.1428571), wk =   0.0087464
        k(    7) = (   0.0000000   0.0714286   0.2857143), wk =   0.0087464
        k(    8) = (   0.0000000   0.0714286   0.4285714), wk =   0.0087464
        k(    9) = (   0.0000000   0.1428571   0.0000000), wk =   0.0043732
        k(   10) = (   0.0000000   0.1428571   0.1428571), wk =   0.0087464
        k(   11) = (   0.0000000   0.1428571   0.2857143), wk =   0.0087464
        k(   12) = (   0.0000000   0.1428571   0.4285714), wk =   0.0087464
        k(   13) = (   0.0000000   0.2142857   0.0000000), wk =   0.0043732
        k(   14) = (   0.0000000   0.2142857   0.1428571), wk =   0.0087464
        k(   15) = (   0.0000000   0.2142857   0.2857143), wk =   0.0087464
        k(   16) = (   0.0000000   0.2142857   0.4285714), wk =   0.0087464
        k(   17) = (   0.0000000   0.2857143   0.0000000), wk =   0.0043732
        k(   18) = (   0.0000000   0.2857143   0.1428571), wk =   0.0087464
        k(   19) = (   0.0000000   0.2857143   0.2857143), wk =   0.0087464
        k(   20) = (   0.0000000   0.2857143   0.4285714), wk =   0.0087464
        k(   21) = (   0.0000000   0.3571429   0.0000000), wk =   0.0043732
        k(   22) = (   0.0000000   0.3571429   0.1428571), wk =   0.0087464
        k(   23) = (   0.0000000   0.3571429   0.2857143), wk =   0.0087464
        k(   24) = (   0.0000000   0.3571429   0.4285714), wk =   0.0087464
        k(   25) = (   0.0000000   0.4285714   0.0000000), wk =   0.0043732
        k(   26) = (   0.0000000   0.4285714   0.1428571), wk =   0.0087464
        k(   27) = (   0.0000000   0.4285714   0.2857143), wk =   0.0087464
        k(   28) = (   0.0000000   0.4285714   0.4285714), wk =   0.0087464
        k(   29) = (   0.0000000  -0.5000000   0.0000000), wk =   0.0021866
        k(   30) = (   0.0000000  -0.5000000   0.1428571), wk =   0.0043732
        k(   31) = (   0.0000000  -0.5000000   0.2857143), wk =   0.0043732
        k(   32) = (   0.0000000  -0.5000000   0.4285714), wk =   0.0043732
        k(   33) = (   0.0714286   0.0714286   0.0000000), wk =   0.0043732
        k(   34) = (   0.0714286   0.0714286   0.1428571), wk =   0.0087464
        k(   35) = (   0.0714286   0.0714286   0.2857143), wk =   0.0087464
        k(   36) = (   0.0714286   0.0714286   0.4285714), wk =   0.0087464
        k(   37) = (   0.0714286   0.1428571   0.0000000), wk =   0.0087464
        k(   38) = (   0.0714286   0.1428571   0.1428571), wk =   0.0174927
        k(   39) = (   0.0714286   0.1428571   0.2857143), wk =   0.0174927
        k(   40) = (   0.0714286   0.1428571   0.4285714), wk =   0.0174927
        k(   41) = (   0.0714286   0.2142857   0.0000000), wk =   0.0087464
        k(   42) = (   0.0714286   0.2142857   0.1428571), wk =   0.0174927
        k(   43) = (   0.0714286   0.2142857   0.2857143), wk =   0.0174927
        k(   44) = (   0.0714286   0.2142857   0.4285714), wk =   0.0174927
        k(   45) = (   0.0714286   0.2857143   0.0000000), wk =   0.0087464
        k(   46) = (   0.0714286   0.2857143   0.1428571), wk =   0.0174927
        k(   47) = (   0.0714286   0.2857143   0.2857143), wk =   0.0174927
        k(   48) = (   0.0714286   0.2857143   0.4285714), wk =   0.0174927
        k(   49) = (   0.0714286   0.3571429   0.0000000), wk =   0.0087464
        k(   50) = (   0.0714286   0.3571429   0.1428571), wk =   0.0174927
        k(   51) = (   0.0714286   0.3571429   0.2857143), wk =   0.0174927
        k(   52) = (   0.0714286   0.3571429   0.4285714), wk =   0.0174927
        k(   53) = (   0.0714286   0.4285714   0.0000000), wk =   0.0087464
        k(   54) = (   0.0714286   0.4285714   0.1428571), wk =   0.0174927
        k(   55) = (   0.0714286   0.4285714   0.2857143), wk =   0.0174927
        k(   56) = (   0.0714286   0.4285714   0.4285714), wk =   0.0174927
        k(   57) = (   0.1428571   0.1428571   0.0000000), wk =   0.0043732
        k(   58) = (   0.1428571   0.1428571   0.1428571), wk =   0.0087464
        k(   59) = (   0.1428571   0.1428571   0.2857143), wk =   0.0087464
        k(   60) = (   0.1428571   0.1428571   0.4285714), wk =   0.0087464
        k(   61) = (   0.1428571   0.2142857   0.0000000), wk =   0.0087464
        k(   62) = (   0.1428571   0.2142857   0.1428571), wk =   0.0174927
        k(   63) = (   0.1428571   0.2142857   0.2857143), wk =   0.0174927
        k(   64) = (   0.1428571   0.2142857   0.4285714), wk =   0.0174927
        k(   65) = (   0.1428571   0.2857143   0.0000000), wk =   0.0087464
        k(   66) = (   0.1428571   0.2857143   0.1428571), wk =   0.0174927
        k(   67) = (   0.1428571   0.2857143   0.2857143), wk =   0.0174927
        k(   68) = (   0.1428571   0.2857143   0.4285714), wk =   0.0174927
        k(   69) = (   0.1428571   0.3571429   0.0000000), wk =   0.0087464
        k(   70) = (   0.1428571   0.3571429   0.1428571), wk =   0.0174927
        k(   71) = (   0.1428571   0.3571429   0.2857143), wk =   0.0174927
        k(   72) = (   0.1428571   0.3571429   0.4285714), wk =   0.0174927
        k(   73) = (   0.1428571   0.4285714   0.0000000), wk =   0.0043732
        k(   74) = (   0.1428571   0.4285714   0.1428571), wk =   0.0087464
        k(   75) = (   0.1428571   0.4285714   0.2857143), wk =   0.0087464
        k(   76) = (   0.1428571   0.4285714   0.4285714), wk =   0.0087464
        k(   77) = (   0.2142857   0.2142857   0.0000000), wk =   0.0043732
        k(   78) = (   0.2142857   0.2142857   0.1428571), wk =   0.0087464
        k(   79) = (   0.2142857   0.2142857   0.2857143), wk =   0.0087464
        k(   80) = (   0.2142857   0.2142857   0.4285714), wk =   0.0087464
        k(   81) = (   0.2142857   0.2857143   0.0000000), wk =   0.0087464
        k(   82) = (   0.2142857   0.2857143   0.1428571), wk =   0.0174927
        k(   83) = (   0.2142857   0.2857143   0.2857143), wk =   0.0174927
        k(   84) = (   0.2142857   0.2857143   0.4285714), wk =   0.0174927
        k(   85) = (   0.2142857   0.3571429   0.0000000), wk =   0.0087464
        k(   86) = (   0.2142857   0.3571429   0.1428571), wk =   0.0174927
        k(   87) = (   0.2142857   0.3571429   0.2857143), wk =   0.0174927
        k(   88) = (   0.2142857   0.3571429   0.4285714), wk =   0.0174927
        k(   89) = (   0.2857143   0.2857143   0.0000000), wk =   0.0043732
        k(   90) = (   0.2857143   0.2857143   0.1428571), wk =   0.0087464
        k(   91) = (   0.2857143   0.2857143   0.2857143), wk =   0.0087464
        k(   92) = (   0.2857143   0.2857143   0.4285714), wk =   0.0087464
        k(   93) = (   0.2857143   0.3571429   0.0000000), wk =   0.0043732
        k(   94) = (   0.2857143   0.3571429   0.1428571), wk =   0.0087464
        k(   95) = (   0.2857143   0.3571429   0.2857143), wk =   0.0087464
        k(   96) = (   0.2857143   0.3571429   0.4285714), wk =   0.0087464

     Dense  grid:    16039 G-vectors     FFT dimensions: (  27,  27,  50)

     Dynamical RAM for                 wfc:       0.03 MB

     Dynamical RAM for     wfc (w. buffer):       3.36 MB

     Dynamical RAM for           str. fact:       0.02 MB

     Dynamical RAM for           local pot:       0.00 MB

     Dynamical RAM for          nlocal pot:       0.08 MB

     Dynamical RAM for                qrad:       1.34 MB

     Dynamical RAM for          rho,v,vnew:       0.24 MB

     Dynamical RAM for               rhoin:       0.08 MB

     Dynamical RAM for            rho*nmix:       0.56 MB

     Dynamical RAM for           G-vectors:       0.07 MB

     Dynamical RAM for          h,s,v(r/c):       0.05 MB

     Dynamical RAM for          <psi|beta>:       0.01 MB

     Dynamical RAM for                 psi:       0.07 MB

     Dynamical RAM for                hpsi:       0.07 MB

     Dynamical RAM for                spsi:       0.07 MB

     Dynamical RAM for      wfcinit/wfcrot:       0.08 MB

     Dynamical RAM for           addusdens:       1.66 MB

     Estimated static dynamical RAM per process >       5.36 MB

     Estimated max dynamical RAM per process >       7.58 MB

     Estimated total dynamical RAM >     204.54 MB

     Check: negative core charge=   -0.000003
     Generating pointlists ...
     new r_m :   0.4125 (alat units)  2.0831 (a.u.) for type    1

     The initial density is read from file :
     ./out/Zn.save/charge-density


     starting charge      24.1333, renormalised to      24.0000

     negative rho (up, down):  5.308E-01 5.308E-01
     Starting wfcs from file
     Checking if some PAW data can be deallocated... 

     total cpu time spent up to now is        0.5 secs

     Self-consistent Calculation

     iteration #  1     ecut=    70.00 Ry     beta= 0.70
     Davidson diagonalization with overlap

---- Real-time Memory Report at c_bands before calling an iterative solver
            58 MiB given to the printing process from OS
             0 MiB allocation reported by mallinfo(arena+hblkhd)
        149443 MiB available memory on the node where the printing process lives
------------------
     ethr =  1.00E-05,  avg # of iterations =  8.7

     negative rho (up, down):  1.277E-02 1.277E-02

     total cpu time spent up to now is        2.6 secs

     total energy              =    -487.27706071 Ry
     estimated scf accuracy    <       0.28422086 Ry

     total magnetization       =    -0.00 Bohr mag/cell
     absolute magnetization    =     0.00 Bohr mag/cell

     iteration #  2     ecut=    70.00 Ry     beta= 0.70
     Davidson diagonalization with overlap

---- Real-time Memory Report at c_bands before calling an iterative solver
            79 MiB given to the printing process from OS
             0 MiB allocation reported by mallinfo(arena+hblkhd)
        149127 MiB available memory on the node where the printing process lives
------------------
     ethr =  1.18E-03,  avg # of iterations =  1.9

     total cpu time spent up to now is        3.4 secs

     total energy              =    -487.44461485 Ry
     estimated scf accuracy    <       0.02548123 Ry

     total magnetization       =    -0.00 Bohr mag/cell
     absolute magnetization    =     0.00 Bohr mag/cell

     iteration #  3     ecut=    70.00 Ry     beta= 0.70
     Davidson diagonalization with overlap

---- Real-time Memory Report at c_bands before calling an iterative solver
            81 MiB given to the printing process from OS
             0 MiB allocation reported by mallinfo(arena+hblkhd)
        149106 MiB available memory on the node where the printing process lives
------------------
     ethr =  1.06E-04,  avg # of iterations =  2.2

     total cpu time spent up to now is        4.3 secs

     total energy              =    -487.44669742 Ry
     estimated scf accuracy    <       0.00033357 Ry

     total magnetization       =    -0.00 Bohr mag/cell
     absolute magnetization    =     0.00 Bohr mag/cell

     iteration #  4     ecut=    70.00 Ry     beta= 0.70
     Davidson diagonalization with overlap

---- Real-time Memory Report at c_bands before calling an iterative solver
            82 MiB given to the printing process from OS
             0 MiB allocation reported by mallinfo(arena+hblkhd)
        149101 MiB available memory on the node where the printing process lives
------------------
     ethr =  1.39E-06,  avg # of iterations =  5.3

     total cpu time spent up to now is        5.5 secs

     total energy              =    -487.44688158 Ry
     estimated scf accuracy    <       0.00028675 Ry

     total magnetization       =    -0.00 Bohr mag/cell
     absolute magnetization    =     0.00 Bohr mag/cell

     iteration #  5     ecut=    70.00 Ry     beta= 0.70
     Davidson diagonalization with overlap

---- Real-time Memory Report at c_bands before calling an iterative solver
            82 MiB given to the printing process from OS
             0 MiB allocation reported by mallinfo(arena+hblkhd)
        149094 MiB available memory on the node where the printing process lives
------------------
     ethr =  1.19E-06,  avg # of iterations =  2.1

     total cpu time spent up to now is        6.4 secs

     total energy              =    -487.44696204 Ry
     estimated scf accuracy    <       0.00000768 Ry

     total magnetization       =    -0.00 Bohr mag/cell
     absolute magnetization    =     0.00 Bohr mag/cell

     iteration #  6     ecut=    70.00 Ry     beta= 0.70
     Davidson diagonalization with overlap

---- Real-time Memory Report at c_bands before calling an iterative solver
            83 MiB given to the printing process from OS
             0 MiB allocation reported by mallinfo(arena+hblkhd)
        149089 MiB available memory on the node where the printing process lives
------------------
     ethr =  3.20E-08,  avg # of iterations =  2.2
 
     Magnetic moment per site  (integrated on atomic sphere of radius R)
     atom   1 (R=0.413)  charge= 10.7191  magn= -0.0000
     atom   2 (R=0.413)  charge= 10.7191  magn= -0.0000

     total cpu time spent up to now is        7.1 secs

     End of self-consistent calculation

 ------ SPIN UP ------------


          k = 0.0000 0.0000 0.0000 (  2005 PWs)   bands (ev):

     0.8076   2.7716   3.5060   3.7109   3.7109   3.7697   3.7697   4.0699
     4.0699   4.3142   4.3142   7.7429   8.6349  25.9390  28.4029  28.4031

     occupation numbers 
     1.0000   1.0000   1.0000   1.0000   1.0000   1.0000   1.0000   1.0000
     1.0000   1.0000   1.0000   1.0000   1.0000   0.0000   0.0000   0.0000

          k = 0.0000 0.0000 0.0789 (  1987 PWs)   bands (ev):

     0.9385   2.7594   3.5053   3.7079   3.7079   3.7626   3.7626   4.0880
     4.0880   4.3064   4.3064   6.3657  10.2939  23.8560  28.5331  28.5331

     occupation numbers 
     1.0000   1.0000   1.0000   1.0000   1.0000   1.0000   1.0000   1.0000
     1.0000   1.0000   1.0000   1.0000   1.0000   0.0000   0.0000   0.0000

          k = 0.0000 0.0000 0.1579 (  2004 PWs)   bands (ev):

     1.3185   2.6903   3.5181   3.7044   3.7044   3.7446   3.7446   4.1336
     4.1336   4.2824   4.2825   4.9542  12.5788  20.8279  28.9095  28.9096

     occupation numbers 
     1.0000   1.0000   1.0000   1.0000   1.0000   1.0000   1.0000   1.0000
     1.0000   1.0000   1.0000   1.0000   0.0000   0.0000   0.0000   0.0000

          k = 0.0000 0.0000 0.2368 (  2010 PWs)   bands (ev):

     1.8861   2.4320   3.6109   3.7090   3.7090   3.7239   3.7239   3.9998
     4.1899   4.1899   4.2425   4.2425  15.1183  17.8798  29.4706  29.4706

     occupation numbers 
     1.0000   1.0000   1.0000   1.0000   1.0000   1.0000   1.0000   1.0000
     1.0000   1.0000   1.0000   1.0000   0.0000   0.0000   0.0000   0.0000

          k = 0.0000 0.0825 0.0000 (  1997 PWs)   bands (ev):

     0.9576   2.8351   3.5181   3.6990   3.7462   3.7543   3.8030   4.0381
     4.0551   4.2280   4.3168   7.9864   8.7137  25.9705  26.0972  27.1427

     occupation numbers 
     1.0000   1.0000   1.0000   1.0000   1.0000   1.0000   1.0000   1.0000
     1.0000   1.0000   1.0000   1.0000   1.0000   0.0000   0.0000   0.0000

          k = 0.0000 0.0825 0.0789 (  1999 PWs)   bands (ev):

     1.0876   2.8269   3.5171   3.6926   3.7426   3.7453   3.7956   4.0612
     4.0747   4.2118   4.3082   6.5558  10.4315  23.9868  26.1208  27.2800

     occupation numbers 
     1.0000   1.0000   1.0000   1.0000   1.0000   1.0000   1.0000   1.0000
     1.0000   1.0000   1.0000   1.0000   1.0000   0.0000   0.0000   0.0000

          k = 0.0000 0.0825 0.1579 (  2010 PWs)   bands (ev):

     1.4643   2.7727   3.5244   3.6845   3.7226   3.7380   3.7773   4.1083
     4.1236   4.1560   4.2822   5.1732  12.7198  20.9622  26.5090  27.6877

     occupation numbers 
     1.0000   1.0000   1.0000   1.0000   1.0000   1.0000   1.0000   1.0000
     1.0000   1.0000   1.0000   1.0000   0.0000   0.0000   0.0000   0.0000

          k = 0.0000 0.0825 0.2368 (  2011 PWs)   bands (ev):

     2.0231   2.5445   3.5905   3.6905   3.6963   3.7419   3.7566   3.8857
     4.1834   4.2172   4.2393   4.4054  15.2580  18.0172  27.1492  28.0296

     occupation numbers 
     1.0000   1.0000   1.0000   1.0000   1.0000   1.0000   1.0000   1.0000
     1.0000   1.0000   1.0000   1.0000   0.0000   0.0000   0.0000   0.0000

          k = 0.0000 0.1650 0.0000 (  1983 PWs)   bands (ev):

     1.3975   2.9960   3.5324   3.6760   3.7460   3.8468   3.8974   3.9078
     4.0161   4.0752   4.3218   8.6490   8.9674  22.6265  25.4918  26.5026

     occupation numbers 
     1.0000   1.0000   1.0000   1.0000   1.0000   1.0000   1.0000   1.0000
     1.0000   1.0000   1.0000   1.0000   1.0000   0.0000   0.0000   0.0000

          k = 0.0000 0.1650 0.0789 (  1998 PWs)   bands (ev):

     1.5235   2.9979   3.5350   3.6597   3.7206   3.8397   3.8888   3.9289
     4.0418   4.0775   4.3113   7.0506  10.8513  22.7401  24.4170  25.6377

     occupation numbers 
     1.0000   1.0000   1.0000   1.0000   1.0000   1.0000   1.0000   1.0000
     1.0000   1.0000   1.0000   1.0000   1.0000   0.0000   0.0000   0.0000

          k = 0.0000 0.1650 0.1579 (  2007 PWs)   bands (ev):

     1.8853   2.9818   3.5372   3.6326   3.6745   3.8308   3.8695   3.8993
     4.1002   4.1371   4.2803   5.6461  13.1424  21.3350  23.2085  25.8930

     occupation numbers 
     1.0000   1.0000   1.0000   1.0000   1.0000   1.0000   1.0000   1.0000
     1.0000   1.0000   1.0000   1.0000   0.0000   0.0000   0.0000   0.0000

          k = 0.0000 0.1650 0.2368 (  2004 PWs)   bands (ev):

     2.4053   2.8387   3.5419   3.5949   3.6688   3.7681   3.8333   3.8481
     4.1678   4.2309   4.3055   4.7171  15.6737  18.4211  23.8441  24.7483

     occupation numbers 
     1.0000   1.0000   1.0000   1.0000   1.0000   1.0000   1.0000   1.0000
     1.0000   1.0000   1.0000   1.0000   0.0000   0.0000   0.0000   0.0000

          k = 0.0000 0.2474 0.0000 (  2002 PWs)   bands (ev):

     2.0765   3.1441   3.5587   3.6428   3.6835   3.8620   3.9642   3.9675
     3.9960   4.0368   4.3245   9.4422   9.6224  19.4128  24.0305  25.3317

     occupation numbers 
     1.0000   1.0000   1.0000   1.0000   1.0000   1.0000   1.0000   1.0000
     1.0000   1.0000   1.0000   1.0000   1.0000   0.0000   0.0000   0.0000

          k = 0.0000 0.2474 0.0789 (  1997 PWs)   bands (ev):

     2.1865   3.1551   3.5589   3.6126   3.6758   3.8528   3.9496   4.0164
     4.0171   4.0422   4.3124   7.7715  11.5635  19.5416  24.1003  24.1826

     occupation numbers 
     1.0000   1.0000   1.0000   1.0000   1.0000   1.0000   1.0000   1.0000
     1.0000   1.0000   1.0000   1.0000   0.0000   0.0000   0.0000   0.0000

          k = 0.0000 0.2474 0.1579 (  1999 PWs)   bands (ev):

     2.4882   3.1738   3.5369   3.5445   3.6785   3.8268   3.9437   4.0026
     4.0946   4.1704   4.2774   6.3131  13.8414  19.9018  22.0746  22.7346

     occupation numbers 
     1.0000   1.0000   1.0000   1.0000   1.0000   1.0000   1.0000   1.0000
     1.0000   1.0000   1.0000   1.0000   0.0000   0.0000   0.0000   0.0000

          k = 0.0000 0.2474 0.2368 (  2008 PWs)   bands (ev):

     2.8688   3.1234   3.4778   3.4946   3.7207   3.7796   3.9547   3.9772
     4.1604   4.2243   4.5101   5.2048  16.3479  19.0149  20.7308  21.5860

     occupation numbers 
     1.0000   1.0000   1.0000   1.0000   1.0000   1.0000   1.0000   1.0000
     1.0000   1.0000   1.0000   1.0000   0.0000   0.0000   0.0000   0.0000

          k = 0.0000 0.3299 0.0000 (  1988 PWs)   bands (ev):

     2.7575   3.1479   3.4728   3.6541   3.7512   3.8734   3.9106   4.1668
     4.1965   4.2150   4.3238  10.1935  10.8396  16.4231  22.3955  22.8308

     occupation numbers 
     1.0000   1.0000   1.0000   1.0000   1.0000   1.0000   1.0000   1.0000
     1.0000   1.0000   1.0000   1.0000   1.0000   0.0000   0.0000   0.0000

          k = 0.0000 0.3299 0.0789 (  1990 PWs)   bands (ev):

     2.8041   3.1593   3.4725   3.6039   3.7212   3.9252   4.0182   4.1702
     4.1874   4.2280   4.3132   8.7227  12.5605  16.5543  21.1664  22.9877

     occupation numbers 
     1.0000   1.0000   1.0000   1.0000   1.0000   1.0000   1.0000   1.0000
     1.0000   1.0000   1.0000   1.0000   0.0000   0.0000   0.0000   0.0000

          k = 0.0000 0.3299 0.1579 (  1987 PWs)   bands (ev):

     2.9172   3.1795   3.4478   3.4854   3.8119   3.9663   4.0888   4.1454
     4.1943   4.2861   4.4816   7.2351  14.7893  16.9415  19.8111  22.8012

     occupation numbers 
     1.0000   1.0000   1.0000   1.0000   1.0000   1.0000   1.0000   1.0000
     1.0000   1.0000   1.0000   1.0000   0.0000   0.0000   0.0000   0.0000

          k = 0.0000 0.3299 0.2368 (  1994 PWs)   bands (ev):

     3.0479   3.1530   3.4042   3.4266   3.9280   4.0257   4.0268   4.0905
     4.2204   4.2526   5.0953   6.0184  17.1270  17.5378  18.7950  20.1407

     occupation numbers 
     1.0000   1.0000   1.0000   1.0000   1.0000   1.0000   1.0000   1.0000
     1.0000   1.0000   1.0000   1.0000   0.0000   0.0000   0.0000   0.0000

          k = 0.0000 0.4124 0.0000 (  2002 PWs)   bands (ev):

     2.9941   3.0909   3.3156   3.7549   3.7929   3.8647   3.9830   4.3208
     4.3244   4.3468   5.2053  11.2008  12.2606  13.7576  19.6633  20.6608

     occupation numbers 
     1.0000   1.0000   1.0000   1.0000   1.0000   1.0000   1.0000   1.0000
     1.0000   1.0000   1.0000   1.0000   0.0000   0.0000   0.0000   0.0000

          k = 0.0000 0.4124 0.0789 (  1995 PWs)   bands (ev):

     2.9860   3.0874   3.3450   3.6194   3.8293   3.8845   4.1172   4.2845
     4.3271   4.3581   5.2931   9.9126  13.6349  14.0141  18.5100  21.9658

     occupation numbers 
     1.0000   1.0000   1.0000   1.0000   1.0000   1.0000   1.0000   1.0000
     1.0000   1.0000   1.0000   1.0000   0.0000   0.0000   0.0000   0.0000

          k = 0.0000 0.4124 0.1579 (  1995 PWs)   bands (ev):

     2.9849   3.0951   3.3637   3.4463   3.9407   3.9539   4.2121   4.2326
     4.3347   4.3614   5.6214   8.4461  14.2184  15.7250  17.4266  22.5705

     occupation numbers 
     1.0000   1.0000   1.0000   1.0000   1.0000   1.0000   1.0000   1.0000
     1.0000   1.0000   1.0000   1.0000   0.0000   0.0000   0.0000   0.0000

          k = 0.0000 0.4124 0.2368 (  1993 PWs)   bands (ev):

     3.0220   3.0781   3.3447   3.3566   4.0240   4.1062   4.1201   4.2177
     4.3451   4.3553   6.2664   7.2182  14.8558  15.6718  18.7384  21.1669

     occupation numbers 
     1.0000   1.0000   1.0000   1.0000   1.0000   1.0000   1.0000   1.0000
     1.0000   1.0000   1.0000   1.0000   0.0000   0.0000   0.0000   0.0000

          k = 0.0000 0.4949 0.0000 (  2008 PWs)   bands (ev):

     2.9801   3.0614   3.2209   3.7381   3.8321   3.8340   4.1229   4.3178
     4.4337   4.4566   6.7635  10.8492  13.0474  13.8150  17.2339  18.4359

     occupation numbers 
     1.0000   1.0000   1.0000   1.0000   1.0000   1.0000   1.0000   1.0000
     1.0000   1.0000   1.0000   1.0000   0.0000   0.0000   0.0000   0.0000

          k = 0.0000 0.4949 0.0789 (  2001 PWs)   bands (ev):

     2.9823   3.0216   3.2696   3.6085   3.8560   3.8884   4.2192   4.2904
     4.4357   4.4570   6.8691  10.6544  12.1329  14.8603  16.5807  19.7100

     occupation numbers 
     1.0000   1.0000   1.0000   1.0000   1.0000   1.0000   1.0000   1.0000
     1.0000   1.0000   1.0000   1.0000   0.0000   0.0000   0.0000   0.0000

          k = 0.0000 0.4949 0.1579 (  1996 PWs)   bands (ev):

     2.9607   3.0219   3.3052   3.4221   3.9186   4.0282   4.2174   4.3227
     4.4404   4.4560   7.2080   9.7554  11.9947  14.3301  17.8914  21.4964

     occupation numbers 
     1.0000   1.0000   1.0000   1.0000   1.0000   1.0000   1.0000   1.0000
     1.0000   1.0000   1.0000   1.0000   0.0000   0.0000   0.0000   0.0000

          k = 0.0000 0.4949 0.2368 (  1990 PWs)   bands (ev):

     2.9748   3.0150   3.2984   3.3123   4.0112   4.1175   4.1978   4.3150
     4.4463   4.4521   7.8139   8.6861  12.4970  13.3124  20.0833  22.0095

     occupation numbers 
     1.0000   1.0000   1.0000   1.0000   1.0000   1.0000   1.0000   1.0000
     1.0000   1.0000   1.0000   1.0000   0.0000   0.0000   0.0000   0.0000

          k = 0.0000-0.5774 0.0000 (  1994 PWs)   bands (ev):

     2.9617   3.0505   3.1895   3.7187   3.8232   3.8598   4.1681   4.3166
     4.4725   4.4972   8.3697   9.0545  14.1714  14.8979  15.6643  17.1290

     occupation numbers 
     1.0000   1.0000   1.0000   1.0000   1.0000   1.0000   1.0000   1.0000
     1.0000   1.0000   1.0000   1.0000   0.0000   0.0000   0.0000   0.0000

          k = 0.0000-0.5774 0.0789 (  1998 PWs)   bands (ev):

     2.9725   2.9951   3.2445   3.6003   3.8459   3.9094   4.2566   4.2898
     4.4745   4.4961   8.4820   9.1145  13.4568  13.6148  17.2288  18.0698

     occupation numbers 
     1.0000   1.0000   1.0000   1.0000   1.0000   1.0000   1.0000   1.0000
     1.0000   1.0000   1.0000   1.0000   0.0000   0.0000   0.0000   0.0000

          k = 0.0000-0.5774 0.1579 (  1996 PWs)   bands (ev):

     2.9473   2.9941   3.2845   3.4130   3.9104   4.0508   4.2168   4.3552
     4.4788   4.4932   8.8041   9.2788  12.3291  12.3537  19.3204  19.8683

     occupation numbers 
     1.0000   1.0000   1.0000   1.0000   1.0000   1.0000   1.0000   1.0000
     1.0000   1.0000   1.0000   1.0000   0.0000   0.0000   0.0000   0.0000

          k = 0.0000-0.5774 0.2368 (  2008 PWs)   bands (ev):

     2.9556   2.9917   3.2808   3.2977   4.0058   4.1149   4.2252   4.3459
     4.4838   4.4889   9.2324   9.4264  11.5299  11.5493  21.3568  21.6272

     occupation numbers 
     1.0000   1.0000   1.0000   1.0000   1.0000   1.0000   1.0000   1.0000
     1.0000   1.0000   1.0000   1.0000   0.0000   0.0000   0.0000   0.0000

          k = 0.0714 0.1237 0.0000 (  1983 PWs)   bands (ev):

     1.2530   2.9493   3.5296   3.6874   3.7235   3.8188   3.8745   3.9812
     3.9910   4.1270   4.3174   8.4372   8.8802  24.2600  24.4548  26.3894

     occupation numbers 
     1.0000   1.0000   1.0000   1.0000   1.0000   1.0000   1.0000   1.0000
     1.0000   1.0000   1.0000   1.0000   1.0000   0.0000   0.0000   0.0000

          k = 0.0714 0.1237 0.0789 (  2000 PWs)   bands (ev):

     1.3806   2.9483   3.5311   3.6702   3.7105   3.8127   3.8659   3.9896
     4.0271   4.1192   4.3081   6.8945  10.7105  24.1364  24.3954  24.7418

     occupation numbers 
     1.0000   1.0000   1.0000   1.0000   1.0000   1.0000   1.0000   1.0000
     1.0000   1.0000   1.0000   1.0000   1.0000   0.0000   0.0000   0.0000

          k = 0.0714 0.1237 0.1579 (  2001 PWs)   bands (ev):

     1.7486   2.9208   3.5346   3.6470   3.6762   3.8046   3.8468   3.9522
     4.1176   4.1276   4.2807   5.5023  13.0018  21.2215  24.7993  25.0290

     occupation numbers 
     1.0000   1.0000   1.0000   1.0000   1.0000   1.0000   1.0000   1.0000
     1.0000   1.0000   1.0000   1.0000   0.0000   0.0000   0.0000   0.0000

          k = 0.0714 0.1237 0.2368 (  2013 PWs)   bands (ev):

     2.2846   2.7506   3.5564   3.6247   3.6632   3.7741   3.8216   3.8265
     4.1764   4.2252   4.2794   4.6223  15.5360  18.2885  25.4642  25.6683

     occupation numbers 
     1.0000   1.0000   1.0000   1.0000   1.0000   1.0000   1.0000   1.0000
     1.0000   1.0000   1.0000   1.0000   0.0000   0.0000   0.0000   0.0000

          k = 0.0714 0.2062 0.0000 (  1986 PWs)   bands (ev):

     1.8192   3.1213   3.5187   3.6619   3.7447   3.7813   3.9244   3.9537
     4.0175   4.0532   4.3159   9.2467   9.2480  21.0785  22.9258  26.6312

     occupation numbers 
     1.0000   1.0000   1.0000   1.0000   1.0000   1.0000   1.0000   1.0000
     1.0000   1.0000   1.0000   1.0000   1.0000   0.0000   0.0000   0.0000

          k = 0.0714 0.2062 0.0789 (  1997 PWs)   bands (ev):

     1.9383   3.1309   3.5268   3.6347   3.6903   3.8044   3.9340   3.9765
     4.0118   4.0755   4.3066   7.4932  11.2786  21.2053  23.0463  24.7937

     occupation numbers 
     1.0000   1.0000   1.0000   1.0000   1.0000   1.0000   1.0000   1.0000
     1.0000   1.0000   1.0000   1.0000   1.0000   0.0000   0.0000   0.0000

          k = 0.0714 0.2062 0.1579 (  1997 PWs)   bands (ev):

     2.2742   3.1436   3.5440   3.5727   3.6203   3.7848   3.9169   3.9837
     4.1045   4.1385   4.2829   6.0548  13.5641  21.3854  21.9800  23.5216

     occupation numbers 
     1.0000   1.0000   1.0000   1.0000   1.0000   1.0000   1.0000   1.0000
     1.0000   1.0000   1.0000   1.0000   0.0000   0.0000   0.0000   0.0000

          k = 0.0714 0.2062 0.2368 (  2007 PWs)   bands (ev):

     2.7316   3.0683   3.5067   3.5166   3.6291   3.7062   3.9298   3.9559
     4.1697   4.2191   4.4243   5.0093  16.0840  18.8090  22.3229  23.2268

     occupation numbers 
     1.0000   1.0000   1.0000   1.0000   1.0000   1.0000   1.0000   1.0000
     1.0000   1.0000   1.0000   1.0000   0.0000   0.0000   0.0000   0.0000

          k = 0.0714 0.2887 0.0000 (  1987 PWs)   bands (ev):

     2.5444   3.2059   3.5643   3.5760   3.6416   3.8551   3.8939   3.9809
     4.1214   4.2493   4.3129   9.8679  10.3355  17.9795  21.7144  23.9414

     occupation numbers 
     1.0000   1.0000   1.0000   1.0000   1.0000   1.0000   1.0000   1.0000
     1.0000   1.0000   1.0000   1.0000   1.0000   0.0000   0.0000   0.0000

          k = 0.0714 0.2887 0.0789 (  1992 PWs)   bands (ev):

     2.6274   3.2202   3.5330   3.5956   3.6111   3.8632   3.9456   3.9880
     4.1405   4.2255   4.3246   8.3242  12.1389  18.1107  21.8498  22.6987

     occupation numbers 
     1.0000   1.0000   1.0000   1.0000   1.0000   1.0000   1.0000   1.0000
     1.0000   1.0000   1.0000   1.0000   0.0000   0.0000   0.0000   0.0000

          k = 0.0714 0.2887 0.1579 (  1992 PWs)   bands (ev):

     2.8369   3.2516   3.4675   3.5330   3.6658   3.8361   3.9709   4.1312
     4.1459   4.2245   4.3953   6.8466  14.3956  18.4938  21.3309  22.1272

     occupation numbers 
     1.0000   1.0000   1.0000   1.0000   1.0000   1.0000   1.0000   1.0000
     1.0000   1.0000   1.0000   1.0000   0.0000   0.0000   0.0000   0.0000

          k = 0.0714 0.2887 0.2368 (  1996 PWs)   bands (ev):

     3.0680   3.2261   3.4278   3.4738   3.7297   3.7890   4.0106   4.0753
     4.2122   4.2432   4.8295   5.6680  16.8628  18.9220  19.9153  20.1995

     occupation numbers 
     1.0000   1.0000   1.0000   1.0000   1.0000   1.0000   1.0000   1.0000
     1.0000   1.0000   1.0000   1.0000   0.0000   0.0000   0.0000   0.0000

          k = 0.0714 0.3712 0.0000 (  2002 PWs)   bands (ev):

     3.0078   3.1579   3.3879   3.7092   3.7931   3.8064   3.9075   4.1380
     4.2823   4.3082   4.8169  10.7827  11.6508  15.1298  20.7650  21.0980

     occupation numbers 
     1.0000   1.0000   1.0000   1.0000   1.0000   1.0000   1.0000   1.0000
     1.0000   1.0000   1.0000   1.0000   0.0000   0.0000   0.0000   0.0000

          k = 0.0714 0.3712 0.0789 (  1997 PWs)   bands (ev):

     3.0102   3.1669   3.4098   3.5975   3.7544   3.9081   4.0195   4.1307
     4.2738   4.3001   4.8801   9.4066  13.2636  15.2620  19.8931  20.9069

     occupation numbers 
     1.0000   1.0000   1.0000   1.0000   1.0000   1.0000   1.0000   1.0000
     1.0000   1.0000   1.0000   1.0000   0.0000   0.0000   0.0000   0.0000

          k = 0.0714 0.3712 0.1579 (  1989 PWs)   bands (ev):

     3.0340   3.1859   3.4117   3.4625   3.8317   3.9529   4.0925   4.1960
     4.2179   4.3216   5.1528   7.9262  15.4043  15.6702  18.5815  21.3157

     occupation numbers 
     1.0000   1.0000   1.0000   1.0000   1.0000   1.0000   1.0000   1.0000
     1.0000   1.0000   1.0000   1.0000   0.0000   0.0000   0.0000   0.0000

          k = 0.0714 0.3712 0.2368 (  1989 PWs)   bands (ev):

     3.0924   3.1648   3.3773   3.4064   3.9456   4.0058   4.0504   4.1030
     4.3002   4.3311   5.7625   6.7005  16.2723  16.9249  18.3755  20.6891

     occupation numbers 
     1.0000   1.0000   1.0000   1.0000   1.0000   1.0000   1.0000   1.0000
     1.0000   1.0000   1.0000   1.0000   0.0000   0.0000   0.0000   0.0000

          k = 0.0714 0.4536 0.0000 (  2000 PWs)   bands (ev):

     3.0435   3.1189   3.2684   3.7474   3.8026   3.8469   4.0128   4.3034
     4.3289   4.4005   6.0880  11.6520  12.9217  13.1509  18.5034  19.5929

     occupation numbers 
     1.0000   1.0000   1.0000   1.0000   1.0000   1.0000   1.0000   1.0000
     1.0000   1.0000   1.0000   0.0000   0.0000   0.0000   0.0000   0.0000

          k = 0.0714 0.4536 0.0789 (  1997 PWs)   bands (ev):

     3.0384   3.0904   3.3190   3.6073   3.8232   3.8933   4.1298   4.2730
     4.3276   4.4056   6.1904  10.6553  12.7524  14.5915  17.4496  20.2527

     occupation numbers 
     1.0000   1.0000   1.0000   1.0000   1.0000   1.0000   1.0000   1.0000
     1.0000   1.0000   1.0000   1.0000   0.0000   0.0000   0.0000   0.0000

          k = 0.0714 0.4536 0.1579 (  1992 PWs)   bands (ev):

     3.0180   3.0973   3.3545   3.4326   3.8774   4.0096   4.1972   4.2495
     4.3259   4.4150   6.5293   9.2655  13.0987  15.4474  17.3765  20.6809

     occupation numbers 
     1.0000   1.0000   1.0000   1.0000   1.0000   1.0000   1.0000   1.0000
     1.0000   1.0000   1.0000   1.0000   0.0000   0.0000   0.0000   0.0000

          k = 0.0714 0.4536 0.2368 (  2002 PWs)   bands (ev):

     3.0387   3.0871   3.3346   3.3452   3.9781   4.0913   4.1388   4.2304
     4.3721   4.4083   7.1544   8.0750  13.7182  14.5671  19.4641  21.2773

     occupation numbers 
     1.0000   1.0000   1.0000   1.0000   1.0000   1.0000   1.0000   1.0000
     1.0000   1.0000   1.0000   1.0000   0.0000   0.0000   0.0000   0.0000

          k = 0.0714 0.5361 0.0000 (  1997 PWs)   bands (ev):

     3.0072   3.1000   3.2089   3.7236   3.8122   3.8555   4.1156   4.3004
     4.4289   4.4554   7.8028   9.9404  13.8373  14.6604  16.3063  17.6345

     occupation numbers 
     1.0000   1.0000   1.0000   1.0000   1.0000   1.0000   1.0000   1.0000
     1.0000   1.0000   1.0000   1.0000   0.0000   0.0000   0.0000   0.0000

          k = 0.0714 0.5361 0.0789 (  1994 PWs)   bands (ev):

     3.0167   3.0410   3.2733   3.6037   3.8104   3.9237   4.2098   4.2720
     4.4263   4.4551   7.9110   9.9845  12.7823  14.5277  16.8555  18.7976

     occupation numbers 
     1.0000   1.0000   1.0000   1.0000   1.0000   1.0000   1.0000   1.0000
     1.0000   1.0000   1.0000   1.0000   0.0000   0.0000   0.0000   0.0000

          k = 0.0714 0.5361 0.1579 (  1998 PWs)   bands (ev):

     2.9899   3.0444   3.3169   3.4212   3.8635   4.0636   4.1944   4.3252
     4.4150   4.4519   8.2415   9.9728  11.7815  13.3942  18.7684  20.3507

     occupation numbers 
     1.0000   1.0000   1.0000   1.0000   1.0000   1.0000   1.0000   1.0000
     1.0000   1.0000   1.0000   1.0000   0.0000   0.0000   0.0000   0.0000

          k = 0.0714 0.5361 0.2368 (  2001 PWs)   bands (ev):

     3.0012   3.0417   3.3077   3.3143   3.9660   4.0850   4.2227   4.3348
     4.4158   4.4386   8.7931   9.4900  11.7141  12.3761  20.8574  21.0570

     occupation numbers 
     1.0000   1.0000   1.0000   1.0000   1.0000   1.0000   1.0000   1.0000
     1.0000   1.0000   1.0000   1.0000   0.0000   0.0000   0.0000   0.0000

          k = 0.1429 0.2474 0.0000 (  1985 PWs)   bands (ev):

     2.4605   3.2756   3.4614   3.6121   3.6527   3.7735   3.8283   4.0214
     4.1160   4.2666   4.2998   9.7652  10.1640  19.6341  19.9276  25.7197

     occupation numbers 
     1.0000   1.0000   1.0000   1.0000   1.0000   1.0000   1.0000   1.0000
     1.0000   1.0000   1.0000   1.0000   1.0000   0.0000   0.0000   0.0000

          k = 0.1429 0.2474 0.0789 (  1995 PWs)   bands (ev):

     2.5563   3.2928   3.4713   3.5638   3.6801   3.6942   3.9426   3.9922
     4.1476   4.2214   4.3324   8.1937  11.9991  19.7719  20.0519  24.3337

     occupation numbers 
     1.0000   1.0000   1.0000   1.0000   1.0000   1.0000   1.0000   1.0000
     1.0000   1.0000   1.0000   1.0000   0.0000   0.0000   0.0000   0.0000

          k = 0.1429 0.2474 0.1579 (  1994 PWs)   bands (ev):

     2.8087   3.3398   3.4780   3.5025   3.6031   3.6823   3.9700   4.1244
     4.1574   4.1948   4.4087   6.7234  14.2634  20.1829  20.3777  22.5212

     occupation numbers 
     1.0000   1.0000   1.0000   1.0000   1.0000   1.0000   1.0000   1.0000
     1.0000   1.0000   1.0000   1.0000   0.0000   0.0000   0.0000   0.0000

          k = 0.1429 0.2474 0.2368 (  1997 PWs)   bands (ev):

     3.1066   3.3252   3.4291   3.5095   3.5605   3.6302   4.0016   4.0693
     4.2303   4.2361   4.7752   5.5668  16.7522  19.3739  20.8596  21.3175

     occupation numbers 
     1.0000   1.0000   1.0000   1.0000   1.0000   1.0000   1.0000   1.0000
     1.0000   1.0000   1.0000   1.0000   0.0000   0.0000   0.0000   0.0000

          k = 0.1429 0.3299 0.0000 (  2002 PWs)   bands (ev):

     3.0797   3.2961   3.4519   3.5247   3.6788   3.7594   3.8927   3.9592
     4.2750   4.2833   4.7619  10.5750  11.3409  16.7990  18.7460  22.7859

     occupation numbers 
     1.0000   1.0000   1.0000   1.0000   1.0000   1.0000   1.0000   1.0000
     1.0000   1.0000   1.0000   1.0000   0.7382   0.0000   0.0000   0.0000

          k = 0.1429 0.3299 0.0789 (  1997 PWs)   bands (ev):

     3.1016   3.3121   3.4369   3.5302   3.6406   3.8064   3.9410   3.9690
     4.2514   4.2921   4.8143   9.1592  13.0048  16.9326  18.8805  21.5434

     occupation numbers 
     1.0000   1.0000   1.0000   1.0000   1.0000   1.0000   1.0000   1.0000
     1.0000   1.0000   1.0000   1.0000   0.0000   0.0000   0.0000   0.0000

          k = 0.1429 0.3299 0.1579 (  1994 PWs)   bands (ev):

     3.1552   3.3602   3.3766   3.5520   3.6263   3.7894   3.9456   4.1583
     4.1744   4.3228   5.0332   7.6821  15.2174  17.3275  19.2732  20.1811

     occupation numbers 
     1.0000   1.0000   1.0000   1.0000   1.0000   1.0000   1.0000   1.0000
     1.0000   1.0000   1.0000   1.0000   0.0000   0.0000   0.0000   0.0000

          k = 0.1429 0.3299 0.2368 (  1991 PWs)   bands (ev):

     3.2240   3.3000   3.4323   3.5069   3.6781   3.7393   3.9900   4.0752
     4.2975   4.3363   5.5744   6.4741  17.5487  17.9435  19.1249  19.7587

     occupation numbers 
     1.0000   1.0000   1.0000   1.0000   1.0000   1.0000   1.0000   1.0000
     1.0000   1.0000   1.0000   1.0000   0.0000   0.0000   0.0000   0.0000

          k = 0.1429 0.4124 0.0000 (  1997 PWs)   bands (ev):

     3.2025   3.2511   3.3310   3.7194   3.7561   3.7980   3.8816   4.0832
     4.2698   4.3831   5.7784  11.6642  12.7389  14.1269  17.9665  20.0669

     occupation numbers 
     1.0000   1.0000   1.0000   1.0000   1.0000   1.0000   1.0000   1.0000
     1.0000   1.0000   1.0000   0.0000   0.0000   0.0000   0.0000   0.0000

          k = 0.1429 0.4124 0.0789 (  1995 PWs)   bands (ev):

     3.1843   3.2315   3.3959   3.5702   3.7468   3.8928   3.9800   4.0795
     4.2394   4.3933   5.8747  10.3897  14.0939  14.3955  18.1046  18.8937

     occupation numbers 
     1.0000   1.0000   1.0000   1.0000   1.0000   1.0000   1.0000   1.0000
     1.0000   1.0000   1.0000   1.0000   0.0000   0.0000   0.0000   0.0000

          k = 0.1429 0.4124 0.1579 (  1998 PWs)   bands (ev):

     3.1536   3.2591   3.3992   3.4770   3.7696   3.9316   4.0386   4.1539
     4.2005   4.4099   6.1986   8.9382  14.6155  16.1904  17.7656  18.5122

     occupation numbers 
     1.0000   1.0000   1.0000   1.0000   1.0000   1.0000   1.0000   1.0000
     1.0000   1.0000   1.0000   1.0000   0.0000   0.0000   0.0000   0.0000

          k = 0.1429 0.4124 0.2368 (  1984 PWs)   bands (ev):

     3.1725   3.2333   3.3821   3.4375   3.8631   3.9515   4.0108   4.0601
     4.3364   4.4014   6.8115   7.7319  15.2616  16.1001  18.9883  19.1540

     occupation numbers 
     1.0000   1.0000   1.0000   1.0000   1.0000   1.0000   1.0000   1.0000
     1.0000   1.0000   1.0000   1.0000   0.0000   0.0000   0.0000   0.0000

          k = 0.1429 0.4949 0.0000 (  1990 PWs)   bands (ev):

     3.1378   3.2348   3.2581   3.7116   3.8079   3.8418   3.9553   4.2608
     4.2618   4.4180   7.3067  11.3528  13.4378  14.2916  17.4832  17.6361

     occupation numbers 
     1.0000   1.0000   1.0000   1.0000   1.0000   1.0000   1.0000   1.0000
     1.0000   1.0000   1.0000   0.0099   0.0000   0.0000   0.0000   0.0000

          k = 0.1429 0.4949 0.0789 (  1992 PWs)   bands (ev):

     3.1420   3.1613   3.3562   3.5943   3.7595   3.9201   4.0668   4.2295
     4.2558   4.4227   7.4190  11.2167  12.4758  15.3575  16.9229  17.6289

     occupation numbers 
     1.0000   1.0000   1.0000   1.0000   1.0000   1.0000   1.0000   1.0000
     1.0000   1.0000   1.0000   1.0000   0.0000   0.0000   0.0000   0.0000

          k = 0.1429 0.4949 0.1579 (  2001 PWs)   bands (ev):

     3.1052   3.1850   3.4093   3.4354   3.7714   4.0283   4.1364   4.2071
     4.2475   4.4266   7.7686  10.3302  12.3407  14.7719  18.0436  18.2451

     occupation numbers 
     1.0000   1.0000   1.0000   1.0000   1.0000   1.0000   1.0000   1.0000
     1.0000   1.0000   1.0000   1.0000   0.0000   0.0000   0.0000   0.0000

          k = 0.1429 0.4949 0.2368 (  1999 PWs)   bands (ev):

     3.1222   3.1780   3.3565   3.3899   3.8741   4.0079   4.1280   4.1899
     4.3359   4.4038   8.3780   9.2506  12.8787  13.7222  18.7124  19.5185

     occupation numbers 
     1.0000   1.0000   1.0000   1.0000   1.0000   1.0000   1.0000   1.0000
     1.0000   1.0000   1.0000   1.0000   0.0000   0.0000   0.0000   0.0000

          k = 0.1429 0.5774 0.0000 (  1988 PWs)   bands (ev):

     3.1135   3.2225   3.2340   3.7240   3.7665   3.8694   4.0099   4.2575
     4.3644   4.3874   8.9818   9.4517  14.6698  15.4118  15.9982  17.3271

     occupation numbers 
     1.0000   1.0000   1.0000   1.0000   1.0000   1.0000   1.0000   1.0000
     1.0000   1.0000   1.0000   1.0000   0.0000   0.0000   0.0000   0.0000

          k = 0.1429 0.5774 0.0789 (  1997 PWs)   bands (ev):

     3.1272   3.1316   3.3398   3.6078   3.7361   3.9461   4.1011   4.2259
     4.3618   4.3877   9.1039   9.5306  13.9208  14.0354  17.4659  17.6467

     occupation numbers 
     1.0000   1.0000   1.0000   1.0000   1.0000   1.0000   1.0000   1.0000
     1.0000   1.0000   1.0000   1.0000   0.0000   0.0000   0.0000   0.0000

          k = 0.1429 0.5774 0.1579 (  2003 PWs)   bands (ev):

     3.0866   3.1583   3.3968   3.4370   3.7564   4.0822   4.1295   4.2185
     4.3540   4.3814   9.4514   9.7574  12.7259  12.7485  17.8850  19.7499

     occupation numbers 
     1.0000   1.0000   1.0000   1.0000   1.0000   1.0000   1.0000   1.0000
     1.0000   1.0000   1.0000   1.0000   0.0000   0.0000   0.0000   0.0000

          k = 0.1429 0.5774 0.2368 (  2006 PWs)   bands (ev):

     3.1036   3.1568   3.3492   3.3736   3.8646   4.0034   4.2141   4.2683
     4.3428   4.3531   9.9059  10.0267  11.8619  11.8701  18.5608  19.4495

     occupation numbers 
     1.0000   1.0000   1.0000   1.0000   1.0000   1.0000   1.0000   1.0000
     1.0000   1.0000   1.0000   1.0000   0.0000   0.0000   0.0000   0.0000

          k = 0.2143 0.3712 0.0000 (  1997 PWs)   bands (ev):

     3.3340   3.3639   3.4045   3.5566   3.6964   3.7410   3.9034   3.9481
     4.2504   4.3802   5.7010  11.5961  12.5999  15.7531  16.0716  21.8203

     occupation numbers 
     1.0000   1.0000   1.0000   1.0000   1.0000   1.0000   1.0000   1.0000
     1.0000   1.0000   1.0000   0.0000   0.0000   0.0000   0.0000   0.0000

          k = 0.2143 0.3712 0.0789 (  1997 PWs)   bands (ev):

     3.3243   3.3457   3.4558   3.4651   3.7255   3.7871   3.8976   4.0056
     4.2196   4.3920   5.7943  10.2868  14.1404  15.8902  16.2050  20.4882

     occupation numbers 
     1.0000   1.0000   1.0000   1.0000   1.0000   1.0000   1.0000   1.0000
     1.0000   1.0000   1.0000   1.0000   0.0000   0.0000   0.0000   0.0000

          k = 0.2143 0.3712 0.1579 (  1991 PWs)   bands (ev):

     3.2901   3.3283   3.4193   3.5472   3.6844   3.8001   3.9026   4.1319
     4.1883   4.4107   6.1090   8.8296  16.2200  16.3275  16.5973  19.0796

     occupation numbers 
     1.0000   1.0000   1.0000   1.0000   1.0000   1.0000   1.0000   1.0000
     1.0000   1.0000   1.0000   1.0000   0.0000   0.0000   0.0000   0.0000

          k = 0.2143 0.3712 0.2368 (  1987 PWs)   bands (ev):

     3.2754   3.2856   3.4813   3.5521   3.6953   3.7577   3.9466   4.0329
     4.3345   4.4029   6.7112   7.6249  16.9681  17.2124  17.7501  17.9008

     occupation numbers 
     1.0000   1.0000   1.0000   1.0000   1.0000   1.0000   1.0000   1.0000
     1.0000   1.0000   1.0000   1.0000   0.0000   0.0000   0.0000   0.0000

          k = 0.2143 0.4536 0.0000 (  1997 PWs)   bands (ev):

     3.3068   3.3125   3.3952   3.6745   3.7399   3.8271   3.8281   4.0721
     4.2247   4.4061   7.0797  12.6846  13.5842  14.0732  15.3067  19.3114

     occupation numbers 
     1.0000   1.0000   1.0000   1.0000   1.0000   1.0000   1.0000   1.0000
     1.0000   1.0000   1.0000   0.0000   0.0000   0.0000   0.0000   0.0000

          k = 0.2143 0.4536 0.0789 (  1996 PWs)   bands (ev):

     3.2714   3.3288   3.4491   3.5501   3.7372   3.8622   3.9054   4.0931
     4.1924   4.4144   7.1937  11.6465  13.5065  15.4118  15.5140  18.1821

     occupation numbers 
     1.0000   1.0000   1.0000   1.0000   1.0000   1.0000   1.0000   1.0000
     1.0000   1.0000   1.0000   0.0000   0.0000   0.0000   0.0000   0.0000

          k = 0.2143 0.4536 0.1579 (  1992 PWs)   bands (ev):

     3.2429   3.3737   3.3985   3.5528   3.6857   3.8957   3.9573   4.1068
     4.2044   4.4245   7.5490  10.2547  13.8784  15.8420  16.3716  17.8007

     occupation numbers 
     1.0000   1.0000   1.0000   1.0000   1.0000   1.0000   1.0000   1.0000
     1.0000   1.0000   1.0000   1.0000   0.0000   0.0000   0.0000   0.0000

          k = 0.2143 0.4536 0.2368 (  1992 PWs)   bands (ev):

     3.2525   3.3048   3.4437   3.5212   3.7568   3.8646   3.9713   4.0207
     4.3313   4.4052   8.1727   9.0785  14.5228  15.4037  16.5104  17.3782

     occupation numbers 
     1.0000   1.0000   1.0000   1.0000   1.0000   1.0000   1.0000   1.0000
     1.0000   1.0000   1.0000   1.0000   0.0000   0.0000   0.0000   0.0000

          k = 0.2143 0.5361 0.0000 (  1993 PWs)   bands (ev):

     3.2779   3.2795   3.3833   3.6949   3.7510   3.8284   3.8775   4.2109
     4.2177   4.3568   8.8142  10.8662  14.6772  15.0134  15.6204  17.0780

     occupation numbers 
     1.0000   1.0000   1.0000   1.0000   1.0000   1.0000   1.0000   1.0000
     1.0000   1.0000   1.0000   1.0000   0.0000   0.0000   0.0000   0.0000

          k = 0.2143 0.5361 0.0789 (  2000 PWs)   bands (ev):

     3.2428   3.2935   3.4491   3.5957   3.6873   3.9094   3.9449   4.1775
     4.2229   4.3639   8.9333  10.9555  13.5977  15.1013  15.4779  17.5637

     occupation numbers 
     1.0000   1.0000   1.0000   1.0000   1.0000   1.0000   1.0000   1.0000
     1.0000   1.0000   1.0000   1.0000   0.0000   0.0000   0.0000   0.0000

          k = 0.2143 0.5361 0.1579 (  2000 PWs)   bands (ev):

     3.2178   3.3346   3.4494   3.5382   3.6412   3.9662   4.0292   4.1073
     4.2502   4.3736   9.2913  11.1012  12.4623  14.2372  15.5394  18.1453

     occupation numbers 
     1.0000   1.0000   1.0000   1.0000   1.0000   1.0000   1.0000   1.0000
     1.0000   1.0000   1.0000   1.0000   0.0000   0.0000   0.0000   0.0000

          k = 0.2143 0.5361 0.2368 (  1995 PWs)   bands (ev):

     3.2410   3.3130   3.4170   3.4897   3.7493   3.8911   4.0653   4.0879
     4.3101   4.3602   9.8832  10.6472  12.4003  13.1588  16.2042  17.1071

     occupation numbers 
     1.0000   1.0000   1.0000   1.0000   1.0000   1.0000   1.0000   1.0000
     1.0000   1.0000   1.0000   1.0000   0.0000   0.0000   0.0000   0.0000

          k = 0.2857 0.4949 0.0000 (  1999 PWs)   bands (ev):

     3.3053   3.4068   3.4652   3.6656   3.7011   3.7587   3.8797   4.1242
     4.1899   4.3500   8.6947  12.5868  12.9527  14.6866  15.6066  18.6724

     occupation numbers 
     1.0000   1.0000   1.0000   1.0000   1.0000   1.0000   1.0000   1.0000
     1.0000   1.0000   1.0000   0.0000   0.0000   0.0000   0.0000   0.0000

          k = 0.2857 0.4949 0.0789 (  1998 PWs)   bands (ev):

     3.3062   3.4142   3.4925   3.5580   3.7230   3.7971   3.8973   4.1492
     4.1562   4.3594   8.8165  12.5500  13.0916  13.6492  16.6282  17.4662

     occupation numbers 
     1.0000   1.0000   1.0000   1.0000   1.0000   1.0000   1.0000   1.0000
     1.0000   1.0000   1.0000   0.0000   0.0000   0.0000   0.0000   0.0000

          k = 0.2857 0.4949 0.1579 (  1996 PWs)   bands (ev):

     3.3116   3.4115   3.4875   3.5648   3.6581   3.8406   3.9238   4.0733
     4.2240   4.3732   9.1856  11.7682  13.4266  13.5013  16.0516  16.1262

     occupation numbers 
     1.0000   1.0000   1.0000   1.0000   1.0000   1.0000   1.0000   1.0000
     1.0000   1.0000   1.0000   0.0000   0.0000   0.0000   0.0000   0.0000

          k = 0.2857 0.4949 0.2368 (  1995 PWs)   bands (ev):

     3.3273   3.3620   3.5158   3.5717   3.6905   3.7951   3.9512   3.9942
     4.3102   4.3630   9.8098  10.6877  13.9783  14.1491  14.9146  15.0969

     occupation numbers 
     1.0000   1.0000   1.0000   1.0000   1.0000   1.0000   1.0000   1.0000
     1.0000   1.0000   1.0000   1.0000   0.0000   0.0000   0.0000   0.0000

          k = 0.2857 0.5774 0.0000 (  1993 PWs)   bands (ev):

     3.3082   3.4412   3.4917   3.6735   3.6869   3.7074   3.9072   4.1771
     4.2028   4.2694  10.5779  10.6188  12.6533  16.0802  16.8847  17.0961

     occupation numbers 
     1.0000   1.0000   1.0000   1.0000   1.0000   1.0000   1.0000   1.0000
     1.0000   1.0000   1.0000   1.0000   0.0000   0.0000   0.0000   0.0000

          k = 0.2857 0.5774 0.0789 (  1992 PWs)   bands (ev):

     3.3204   3.4457   3.4886   3.6027   3.6859   3.7611   3.9185   4.1427
     4.2191   4.2839  10.7120  10.7256  12.7760  15.2761  15.3341  17.2184

     occupation numbers 
     1.0000   1.0000   1.0000   1.0000   1.0000   1.0000   1.0000   1.0000
     1.0000   1.0000   1.0000   1.0000   0.0000   0.0000   0.0000   0.0000

          k = 0.2857 0.5774 0.1579 (  1998 PWs)   bands (ev):

     3.3429   3.4434   3.5036   3.5376   3.6847   3.7930   3.9380   4.0593
     4.2616   4.3125  11.0442  11.0964  13.0807  14.0386  14.0498  15.9723

     occupation numbers 
     1.0000   1.0000   1.0000   1.0000   1.0000   1.0000   1.0000   1.0000
     1.0000   1.0000   1.0000   1.0000   0.0000   0.0000   0.0000   0.0000

          k = 0.2857 0.5774 0.2368 (  1991 PWs)   bands (ev):

     3.3657   3.4035   3.5321   3.5330   3.7095   3.7704   3.9536   3.9837
     4.3063   4.3258  11.5257  11.6129  12.8046  13.0051  14.0077  14.8587

     occupation numbers 
     1.0000   1.0000   1.0000   1.0000   1.0000   1.0000   1.0000   1.0000
     1.0000   1.0000   0.0000   0.0000   0.0000   0.0000   0.0000   0.0000

 ------ SPIN DOWN ----------


          k = 0.0000 0.0000 0.0000 (  2005 PWs)   bands (ev):

     0.8076   2.7716   3.5060   3.7109   3.7109   3.7697   3.7697   4.0699
     4.0699   4.3142   4.3142   7.7428   8.6349  25.9390  28.4029  28.4031

     occupation numbers 
     1.0000   1.0000   1.0000   1.0000   1.0000   1.0000   1.0000   1.0000
     1.0000   1.0000   1.0000   1.0000   1.0000   0.0000   0.0000   0.0000

          k = 0.0000 0.0000 0.0789 (  1987 PWs)   bands (ev):

     0.9385   2.7593   3.5053   3.7079   3.7079   3.7626   3.7626   4.0880
     4.0880   4.3064   4.3064   6.3657  10.2939  23.8560  28.5331  28.5331

     occupation numbers 
     1.0000   1.0000   1.0000   1.0000   1.0000   1.0000   1.0000   1.0000
     1.0000   1.0000   1.0000   1.0000   1.0000   0.0000   0.0000   0.0000

          k = 0.0000 0.0000 0.1579 (  2004 PWs)   bands (ev):

     1.3185   2.6903   3.5181   3.7044   3.7044   3.7446   3.7446   4.1336
     4.1336   4.2824   4.2824   4.9542  12.5788  20.8278  28.9095  28.9096

     occupation numbers 
     1.0000   1.0000   1.0000   1.0000   1.0000   1.0000   1.0000   1.0000
     1.0000   1.0000   1.0000   1.0000   0.0000   0.0000   0.0000   0.0000

          k = 0.0000 0.0000 0.2368 (  2010 PWs)   bands (ev):

     1.8861   2.4320   3.6109   3.7090   3.7090   3.7239   3.7239   3.9997
     4.1899   4.1899   4.2425   4.2425  15.1182  17.8797  29.4706  29.4706

     occupation numbers 
     1.0000   1.0000   1.0000   1.0000   1.0000   1.0000   1.0000   1.0000
     1.0000   1.0000   1.0000   1.0000   0.0000   0.0000   0.0000   0.0000

          k = 0.0000 0.0825 0.0000 (  1997 PWs)   bands (ev):

     0.9575   2.8351   3.5181   3.6990   3.7462   3.7543   3.8030   4.0381
     4.0551   4.2280   4.3168   7.9863   8.7137  25.9705  26.0972  27.1427

     occupation numbers 
     1.0000   1.0000   1.0000   1.0000   1.0000   1.0000   1.0000   1.0000
     1.0000   1.0000   1.0000   1.0000   1.0000   0.0000   0.0000   0.0000

          k = 0.0000 0.0825 0.0789 (  1999 PWs)   bands (ev):

     1.0875   2.8269   3.5171   3.6926   3.7426   3.7453   3.7956   4.0612
     4.0747   4.2118   4.3082   6.5558  10.4315  23.9868  26.1208  27.2800

     occupation numbers 
     1.0000   1.0000   1.0000   1.0000   1.0000   1.0000   1.0000   1.0000
     1.0000   1.0000   1.0000   1.0000   1.0000   0.0000   0.0000   0.0000

          k = 0.0000 0.0825 0.1579 (  2010 PWs)   bands (ev):

     1.4642   2.7727   3.5244   3.6845   3.7226   3.7380   3.7773   4.1083
     4.1236   4.1560   4.2822   5.1732  12.7198  20.9622  26.5089  27.6877

     occupation numbers 
     1.0000   1.0000   1.0000   1.0000   1.0000   1.0000   1.0000   1.0000
     1.0000   1.0000   1.0000   1.0000   0.0000   0.0000   0.0000   0.0000

          k = 0.0000 0.0825 0.2368 (  2011 PWs)   bands (ev):

     2.0231   2.5445   3.5904   3.6905   3.6963   3.7419   3.7566   3.8857
     4.1834   4.2172   4.2393   4.4054  15.2580  18.0172  27.1492  28.0295

     occupation numbers 
     1.0000   1.0000   1.0000   1.0000   1.0000   1.0000   1.0000   1.0000
     1.0000   1.0000   1.0000   1.0000   0.0000   0.0000   0.0000   0.0000

          k = 0.0000 0.1650 0.0000 (  1983 PWs)   bands (ev):

     1.3975   2.9960   3.5324   3.6760   3.7460   3.8468   3.8974   3.9078
     4.0161   4.0752   4.3218   8.6490   8.9674  22.6265  25.4918  26.5025

     occupation numbers 
     1.0000   1.0000   1.0000   1.0000   1.0000   1.0000   1.0000   1.0000
     1.0000   1.0000   1.0000   1.0000   1.0000   0.0000   0.0000   0.0000

          k = 0.0000 0.1650 0.0789 (  1998 PWs)   bands (ev):

     1.5235   2.9979   3.5349   3.6597   3.7206   3.8397   3.8888   3.9289
[...]

     occupation numbers 
     1.0000   1.0000   1.0000   1.0000   1.0000   1.0000   1.0000   1.0000
     1.0000   1.0000   1.0000   1.0000   1.0000   0.0000   0.0000   0.0000

          k = 0.1429 0.2474 0.0789 (  1995 PWs)   bands (ev):

     2.5563   3.2928   3.4713   3.5638   3.6801   3.6942   3.9426   3.9922
     4.1476   4.2214   4.3324   8.1937  11.9991  19.7719  20.0519  24.3337

     occupation numbers 
     1.0000   1.0000   1.0000   1.0000   1.0000   1.0000   1.0000   1.0000
     1.0000   1.0000   1.0000   1.0000   0.0000   0.0000   0.0000   0.0000

          k = 0.1429 0.2474 0.1579 (  1994 PWs)   bands (ev):

     2.8087   3.3398   3.4780   3.5025   3.6031   3.6823   3.9700   4.1243
     4.1574   4.1948   4.4087   6.7234  14.2634  20.1828  20.3777  22.5212

     occupation numbers 
     1.0000   1.0000   1.0000   1.0000   1.0000   1.0000   1.0000   1.0000
     1.0000   1.0000   1.0000   1.0000   0.0000   0.0000   0.0000   0.0000

          k = 0.1429 0.2474 0.2368 (  1997 PWs)   bands (ev):

     3.1066   3.3252   3.4291   3.5095   3.5604   3.6302   4.0016   4.0693
     4.2303   4.2361   4.7752   5.5667  16.7521  19.3738  20.8596  21.3175

     occupation numbers 
     1.0000   1.0000   1.0000   1.0000   1.0000   1.0000   1.0000   1.0000
     1.0000   1.0000   1.0000   1.0000   0.0000   0.0000   0.0000   0.0000

          k = 0.1429 0.3299 0.0000 (  2002 PWs)   bands (ev):

     3.0797   3.2961   3.4519   3.5247   3.6788   3.7594   3.8927   3.9592
     4.2750   4.2833   4.7619  10.5750  11.3409  16.7989  18.7460  22.7859

     occupation numbers 
     1.0000   1.0000   1.0000   1.0000   1.0000   1.0000   1.0000   1.0000
     1.0000   1.0000   1.0000   1.0000   0.7419   0.0000   0.0000   0.0000

          k = 0.1429 0.3299 0.0789 (  1997 PWs)   bands (ev):

     3.1016   3.3121   3.4369   3.5302   3.6406   3.8064   3.9410   3.9690
     4.2514   4.2920   4.8143   9.1592  13.0048  16.9326  18.8805  21.5433

     occupation numbers 
     1.0000   1.0000   1.0000   1.0000   1.0000   1.0000   1.0000   1.0000
     1.0000   1.0000   1.0000   1.0000   0.0000   0.0000   0.0000   0.0000

          k = 0.1429 0.3299 0.1579 (  1994 PWs)   bands (ev):

     3.1552   3.3602   3.3766   3.5520   3.6263   3.7894   3.9456   4.1583
     4.1744   4.3228   5.0332   7.6821  15.2174  17.3275  19.2732  20.1811

     occupation numbers 
     1.0000   1.0000   1.0000   1.0000   1.0000   1.0000   1.0000   1.0000
     1.0000   1.0000   1.0000   1.0000   0.0000   0.0000   0.0000   0.0000

          k = 0.1429 0.3299 0.2368 (  1991 PWs)   bands (ev):

     3.2239   3.3000   3.4323   3.5069   3.6781   3.7393   3.9900   4.0752
     4.2975   4.3363   5.5743   6.4741  17.5486  17.9435  19.1249  19.7587

     occupation numbers 
     1.0000   1.0000   1.0000   1.0000   1.0000   1.0000   1.0000   1.0000
     1.0000   1.0000   1.0000   1.0000   0.0000   0.0000   0.0000   0.0000

          k = 0.1429 0.4124 0.0000 (  1997 PWs)   bands (ev):

     3.2025   3.2511   3.3310   3.7194   3.7561   3.7980   3.8816   4.0832
     4.2698   4.3831   5.7783  11.6642  12.7388  14.1269  17.9665  20.0669

     occupation numbers 
     1.0000   1.0000   1.0000   1.0000   1.0000   1.0000   1.0000   1.0000
     1.0000   1.0000   1.0000   0.0000   0.0000   0.0000   0.0000   0.0000

          k = 0.1429 0.4124 0.0789 (  1995 PWs)   bands (ev):

     3.1843   3.2315   3.3958   3.5702   3.7468   3.8928   3.9800   4.0795
     4.2394   4.3933   5.8747  10.3896  14.0939  14.3955  18.1046  18.8937

     occupation numbers 
     1.0000   1.0000   1.0000   1.0000   1.0000   1.0000   1.0000   1.0000
     1.0000   1.0000   1.0000   1.0000   0.0000   0.0000   0.0000   0.0000

          k = 0.1429 0.4124 0.1579 (  1998 PWs)   bands (ev):

     3.1536   3.2591   3.3992   3.4770   3.7696   3.9316   4.0386   4.1539
     4.2005   4.4099   6.1986   8.9382  14.6155  16.1904  17.7656  18.5122

     occupation numbers 
     1.0000   1.0000   1.0000   1.0000   1.0000   1.0000   1.0000   1.0000
     1.0000   1.0000   1.0000   1.0000   0.0000   0.0000   0.0000   0.0000

          k = 0.1429 0.4124 0.2368 (  1984 PWs)   bands (ev):

     3.1725   3.2333   3.3821   3.4375   3.8631   3.9515   4.0108   4.0601
     4.3364   4.4014   6.8115   7.7318  15.2616  16.1001  18.9883  19.1539

     occupation numbers 
     1.0000   1.0000   1.0000   1.0000   1.0000   1.0000   1.0000   1.0000
     1.0000   1.0000   1.0000   1.0000   0.0000   0.0000   0.0000   0.0000

          k = 0.1429 0.4949 0.0000 (  1990 PWs)   bands (ev):

     3.1378   3.2348   3.2581   3.7116   3.8079   3.8418   3.9553   4.2608
     4.2618   4.4180   7.3067  11.3528  13.4378  14.2915  17.4831  17.6361

     occupation numbers 
     1.0000   1.0000   1.0000   1.0000   1.0000   1.0000   1.0000   1.0000
     1.0000   1.0000   1.0000   0.0100   0.0000   0.0000   0.0000   0.0000

          k = 0.1429 0.4949 0.0789 (  1992 PWs)   bands (ev):

     3.1419   3.1613   3.3562   3.5943   3.7595   3.9201   4.0668   4.2295
     4.2558   4.4227   7.4190  11.2167  12.4758  15.3574  16.9228  17.6289

     occupation numbers 
     1.0000   1.0000   1.0000   1.0000   1.0000   1.0000   1.0000   1.0000
     1.0000   1.0000   1.0000   1.0000   0.0000   0.0000   0.0000   0.0000

          k = 0.1429 0.4949 0.1579 (  2001 PWs)   bands (ev):

     3.1052   3.1850   3.4093   3.4354   3.7714   4.0283   4.1364   4.2071
     4.2475   4.4266   7.7685  10.3302  12.3407  14.7719  18.0435  18.2451

     occupation numbers 
     1.0000   1.0000   1.0000   1.0000   1.0000   1.0000   1.0000   1.0000
     1.0000   1.0000   1.0000   1.0000   0.0000   0.0000   0.0000   0.0000

          k = 0.1429 0.4949 0.2368 (  1999 PWs)   bands (ev):

     3.1222   3.1780   3.3565   3.3899   3.8741   4.0079   4.1280   4.1899
     4.3359   4.4038   8.3780   9.2506  12.8787  13.7222  18.7124  19.5185

     occupation numbers 
     1.0000   1.0000   1.0000   1.0000   1.0000   1.0000   1.0000   1.0000
     1.0000   1.0000   1.0000   1.0000   0.0000   0.0000   0.0000   0.0000

          k = 0.1429 0.5774 0.0000 (  1988 PWs)   bands (ev):

     3.1135   3.2225   3.2340   3.7240   3.7665   3.8694   4.0099   4.2575
     4.3644   4.3874   8.9818   9.4517  14.6698  15.4118  15.9982  17.3271

     occupation numbers 
     1.0000   1.0000   1.0000   1.0000   1.0000   1.0000   1.0000   1.0000
     1.0000   1.0000   1.0000   1.0000   0.0000   0.0000   0.0000   0.0000

          k = 0.1429 0.5774 0.0789 (  1997 PWs)   bands (ev):

     3.1272   3.1315   3.3398   3.6078   3.7360   3.9461   4.1011   4.2259
     4.3618   4.3877   9.1039   9.5306  13.9208  14.0353  17.4659  17.6467

     occupation numbers 
     1.0000   1.0000   1.0000   1.0000   1.0000   1.0000   1.0000   1.0000
     1.0000   1.0000   1.0000   1.0000   0.0000   0.0000   0.0000   0.0000

          k = 0.1429 0.5774 0.1579 (  2003 PWs)   bands (ev):

     3.0866   3.1583   3.3968   3.4370   3.7564   4.0822   4.1295   4.2185
     4.3540   4.3814   9.4514   9.7574  12.7259  12.7485  17.8850  19.7499

     occupation numbers 
     1.0000   1.0000   1.0000   1.0000   1.0000   1.0000   1.0000   1.0000
     1.0000   1.0000   1.0000   1.0000   0.0000   0.0000   0.0000   0.0000

          k = 0.1429 0.5774 0.2368 (  2006 PWs)   bands (ev):

     3.1036   3.1567   3.3492   3.3736   3.8646   4.0034   4.2141   4.2683
     4.3428   4.3531   9.9058  10.0267  11.8619  11.8701  18.5608  19.4495

     occupation numbers 
     1.0000   1.0000   1.0000   1.0000   1.0000   1.0000   1.0000   1.0000
     1.0000   1.0000   1.0000   1.0000   0.0000   0.0000   0.0000   0.0000

          k = 0.2143 0.3712 0.0000 (  1997 PWs)   bands (ev):

     3.3340   3.3639   3.4045   3.5566   3.6964   3.7410   3.9034   3.9481
     4.2504   4.3802   5.7010  11.5961  12.5998  15.7530  16.0716  21.8203

     occupation numbers 
     1.0000   1.0000   1.0000   1.0000   1.0000   1.0000   1.0000   1.0000
     1.0000   1.0000   1.0000   0.0000   0.0000   0.0000   0.0000   0.0000

          k = 0.2143 0.3712 0.0789 (  1997 PWs)   bands (ev):

     3.3243   3.3457   3.4558   3.4651   3.7255   3.7871   3.8976   4.0056
     4.2196   4.3920   5.7943  10.2868  14.1404  15.8901  16.2050  20.4882

     occupation numbers 
     1.0000   1.0000   1.0000   1.0000   1.0000   1.0000   1.0000   1.0000
     1.0000   1.0000   1.0000   1.0000   0.0000   0.0000   0.0000   0.0000

          k = 0.2143 0.3712 0.1579 (  1991 PWs)   bands (ev):

     3.2901   3.3283   3.4193   3.5472   3.6844   3.8001   3.9026   4.1319
     4.1883   4.4107   6.1090   8.8296  16.2200  16.3274  16.5973  19.0795

     occupation numbers 
     1.0000   1.0000   1.0000   1.0000   1.0000   1.0000   1.0000   1.0000
     1.0000   1.0000   1.0000   1.0000   0.0000   0.0000   0.0000   0.0000

          k = 0.2143 0.3712 0.2368 (  1987 PWs)   bands (ev):

     3.2754   3.2855   3.4813   3.5521   3.6953   3.7577   3.9466   4.0329
     4.3345   4.4029   6.7112   7.6249  16.9680  17.2124  17.7501  17.9007

     occupation numbers 
     1.0000   1.0000   1.0000   1.0000   1.0000   1.0000   1.0000   1.0000
     1.0000   1.0000   1.0000   1.0000   0.0000   0.0000   0.0000   0.0000

          k = 0.2143 0.4536 0.0000 (  1997 PWs)   bands (ev):

     3.3068   3.3125   3.3952   3.6745   3.7399   3.8271   3.8281   4.0721
     4.2246   4.4061   7.0797  12.6846  13.5842  14.0732  15.3067  19.3114

     occupation numbers 
     1.0000   1.0000   1.0000   1.0000   1.0000   1.0000   1.0000   1.0000
     1.0000   1.0000   1.0000   0.0000   0.0000   0.0000   0.0000   0.0000

          k = 0.2143 0.4536 0.0789 (  1996 PWs)   bands (ev):

     3.2714   3.3288   3.4491   3.5501   3.7372   3.8621   3.9054   4.0931
     4.1924   4.4144   7.1936  11.6465  13.5065  15.4118  15.5140  18.1821

     occupation numbers 
     1.0000   1.0000   1.0000   1.0000   1.0000   1.0000   1.0000   1.0000
     1.0000   1.0000   1.0000   0.0000   0.0000   0.0000   0.0000   0.0000

          k = 0.2143 0.4536 0.1579 (  1992 PWs)   bands (ev):

     3.2429   3.3737   3.3985   3.5528   3.6857   3.8957   3.9573   4.1068
     4.2044   4.4245   7.5490  10.2547  13.8784  15.8420  16.3716  17.8007

     occupation numbers 
     1.0000   1.0000   1.0000   1.0000   1.0000   1.0000   1.0000   1.0000
     1.0000   1.0000   1.0000   1.0000   0.0000   0.0000   0.0000   0.0000

          k = 0.2143 0.4536 0.2368 (  1992 PWs)   bands (ev):

     3.2525   3.3048   3.4437   3.5212   3.7568   3.8646   3.9713   4.0207
     4.3313   4.4052   8.1727   9.0785  14.5228  15.4036  16.5104  17.3781

     occupation numbers 
     1.0000   1.0000   1.0000   1.0000   1.0000   1.0000   1.0000   1.0000
     1.0000   1.0000   1.0000   1.0000   0.0000   0.0000   0.0000   0.0000

          k = 0.2143 0.5361 0.0000 (  1993 PWs)   bands (ev):

     3.2779   3.2795   3.3833   3.6949   3.7510   3.8284   3.8775   4.2109
     4.2177   4.3568   8.8142  10.8662  14.6772  15.0134  15.6203  17.0780

     occupation numbers 
     1.0000   1.0000   1.0000   1.0000   1.0000   1.0000   1.0000   1.0000
     1.0000   1.0000   1.0000   1.0000   0.0000   0.0000   0.0000   0.0000

          k = 0.2143 0.5361 0.0789 (  2000 PWs)   bands (ev):

     3.2428   3.2935   3.4491   3.5956   3.6873   3.9094   3.9449   4.1775
     4.2229   4.3639   8.9333  10.9555  13.5977  15.1013  15.4779  17.5636

     occupation numbers 
     1.0000   1.0000   1.0000   1.0000   1.0000   1.0000   1.0000   1.0000
     1.0000   1.0000   1.0000   1.0000   0.0000   0.0000   0.0000   0.0000

          k = 0.2143 0.5361 0.1579 (  2000 PWs)   bands (ev):

     3.2178   3.3346   3.4494   3.5382   3.6412   3.9662   4.0292   4.1073
     4.2502   4.3736   9.2912  11.1012  12.4622  14.2372  15.5394  18.1452

     occupation numbers 
     1.0000   1.0000   1.0000   1.0000   1.0000   1.0000   1.0000   1.0000
     1.0000   1.0000   1.0000   1.0000   0.0000   0.0000   0.0000   0.0000

          k = 0.2143 0.5361 0.2368 (  1995 PWs)   bands (ev):

     3.2410   3.3130   3.4170   3.4897   3.7493   3.8911   4.0653   4.0879
     4.3101   4.3602   9.8832  10.6471  12.4003  13.1588  16.2042  17.1071

     occupation numbers 
     1.0000   1.0000   1.0000   1.0000   1.0000   1.0000   1.0000   1.0000
     1.0000   1.0000   1.0000   1.0000   0.0000   0.0000   0.0000   0.0000

          k = 0.2857 0.4949 0.0000 (  1999 PWs)   bands (ev):

     3.3053   3.4068   3.4652   3.6656   3.7011   3.7587   3.8797   4.1242
     4.1899   4.3500   8.6947  12.5868  12.9527  14.6866  15.6066  18.6724

     occupation numbers 
     1.0000   1.0000   1.0000   1.0000   1.0000   1.0000   1.0000   1.0000
     1.0000   1.0000   1.0000   0.0000   0.0000   0.0000   0.0000   0.0000

          k = 0.2857 0.4949 0.0789 (  1998 PWs)   bands (ev):

     3.3062   3.4142   3.4924   3.5580   3.7230   3.7971   3.8973   4.1492
     4.1562   4.3594   8.8165  12.5499  13.0916  13.6492  16.6282  17.4661

     occupation numbers 
     1.0000   1.0000   1.0000   1.0000   1.0000   1.0000   1.0000   1.0000
     1.0000   1.0000   1.0000   0.0000   0.0000   0.0000   0.0000   0.0000

          k = 0.2857 0.4949 0.1579 (  1996 PWs)   bands (ev):

     3.3116   3.4115   3.4875   3.5648   3.6581   3.8406   3.9238   4.0733
     4.2240   4.3732   9.1856  11.7682  13.4266  13.5013  16.0516  16.1262

     occupation numbers 
     1.0000   1.0000   1.0000   1.0000   1.0000   1.0000   1.0000   1.0000
     1.0000   1.0000   1.0000   0.0000   0.0000   0.0000   0.0000   0.0000

          k = 0.2857 0.4949 0.2368 (  1995 PWs)   bands (ev):

     3.3273   3.3620   3.5158   3.5717   3.6905   3.7951   3.9512   3.9942
     4.3102   4.3630   9.8097  10.6877  13.9783  14.1491  14.9146  15.0969

     occupation numbers 
     1.0000   1.0000   1.0000   1.0000   1.0000   1.0000   1.0000   1.0000
     1.0000   1.0000   1.0000   1.0000   0.0000   0.0000   0.0000   0.0000

          k = 0.2857 0.5774 0.0000 (  1993 PWs)   bands (ev):

     3.3082   3.4412   3.4917   3.6735   3.6869   3.7074   3.9072   4.1771
     4.2028   4.2694  10.5779  10.6188  12.6533  16.0802  16.8846  17.0961

     occupation numbers 
     1.0000   1.0000   1.0000   1.0000   1.0000   1.0000   1.0000   1.0000
     1.0000   1.0000   1.0000   1.0000   0.0000   0.0000   0.0000   0.0000

          k = 0.2857 0.5774 0.0789 (  1992 PWs)   bands (ev):

     3.3204   3.4457   3.4886   3.6027   3.6859   3.7611   3.9185   4.1427
     4.2191   4.2839  10.7120  10.7256  12.7760  15.2761  15.3341  17.2184

     occupation numbers 
     1.0000   1.0000   1.0000   1.0000   1.0000   1.0000   1.0000   1.0000
     1.0000   1.0000   1.0000   1.0000   0.0000   0.0000   0.0000   0.0000

          k = 0.2857 0.5774 0.1579 (  1998 PWs)   bands (ev):

     3.3429   3.4434   3.5036   3.5376   3.6847   3.7930   3.9380   4.0593
     4.2616   4.3125  11.0441  11.0964  13.0807  14.0386  14.0498  15.9723

     occupation numbers 
     1.0000   1.0000   1.0000   1.0000   1.0000   1.0000   1.0000   1.0000
     1.0000   1.0000   1.0000   1.0000   0.0000   0.0000   0.0000   0.0000

          k = 0.2857 0.5774 0.2368 (  1991 PWs)   bands (ev):

     3.3657   3.4035   3.5321   3.5330   3.7095   3.7704   3.9536   3.9837
     4.3063   4.3258  11.5257  11.6129  12.8046  13.0051  14.0077  14.8587

     occupation numbers 
     1.0000   1.0000   1.0000   1.0000   1.0000   1.0000   1.0000   1.0000
     1.0000   1.0000   0.0000   0.0000   0.0000   0.0000   0.0000   0.0000

     the Fermi energy is    11.3441 ev

!    total energy              =    -487.44696248 Ry
     total all-electron energy =     -7184.241008 Ry
     estimated scf accuracy    <       0.00000119 Ry
     smearing contrib. (-TS)   =      -0.00000094 Ry
     internal energy E=F+TS    =    -487.44696154 Ry

     The total energy is F=E-TS. E is the sum of the following terms:
     one-electron contribution =    -114.52991109 Ry
     hartree contribution      =      90.68285341 Ry
     xc contribution           =     -94.37075994 Ry
     ewald contribution        =    -178.35723023 Ry
     one-center paw contrib.   =    -190.87191369 Ry
      -> PAW hartree energy AE =     122.02435172 Ry
      -> PAW hartree energy PS =    -121.40074778 Ry
      -> PAW xc energy AE      =    -143.07799985 Ry
      -> PAW xc energy PS      =      47.01843907 Ry
      -> total E_H with PAW    =      91.30645735 Ry
      -> total E_XC with PAW   =    -190.43032072 Ry

     total magnetization       =    -0.00 Bohr mag/cell
     absolute magnetization    =     0.00 Bohr mag/cell

     convergence has been achieved in   6 iterations

     Writing all to output data dir ./out/Zn.save/
 
     init_run     :      0.27s CPU      0.38s WALL (       1 calls)
     electrons    :      6.08s CPU      6.63s WALL (       1 calls)

     Called by init_run:
     wfcinit      :      0.12s CPU      0.19s WALL (       1 calls)
     potinit      :      0.10s CPU      0.13s WALL (       1 calls)
     hinit0       :      0.04s CPU      0.04s WALL (       1 calls)

     Called by electrons:
     c_bands      :      4.87s CPU      5.27s WALL (       6 calls)
     sum_band     :      0.62s CPU      0.66s WALL (       6 calls)
     v_of_rho     :      0.02s CPU      0.02s WALL (       7 calls)
     v_h          :      0.00s CPU      0.00s WALL (       7 calls)
     v_xc         :      0.02s CPU      0.02s WALL (       7 calls)
     newd         :      0.01s CPU      0.01s WALL (       7 calls)
     PAW_pot      :      0.64s CPU      0.77s WALL (       7 calls)
     mix_rho      :      0.00s CPU      0.00s WALL (       6 calls)

     Called by c_bands:
     init_us_2    :      0.04s CPU      0.04s WALL (    1152 calls)
     init_us_2:cp :      0.04s CPU      0.04s WALL (    1152 calls)
     cegterg      :      4.61s CPU      4.88s WALL (     576 calls)

     Called by sum_band:
     sum_band:wei :      0.01s CPU      0.01s WALL (       6 calls)
     sum_band:loo :      0.59s CPU      0.62s WALL (       6 calls)
     sum_band:buf :      0.00s CPU      0.00s WALL (     576 calls)
     sum_band:ini :      0.02s CPU      0.02s WALL (     576 calls)
     sum_band:cal :      0.04s CPU      0.05s WALL (     576 calls)
     sum_band:bec :      0.00s CPU      0.00s WALL (     576 calls)
     addusdens    :      0.02s CPU      0.02s WALL (       6 calls)
                                        0.00s GPU  (       6 calls)
     addusd:skk   :      0.00s CPU      0.00s WALL (       6 calls)
                                        0.00s GPU  (       6 calls)

     Called by *egterg:
     cdiaghg      :      0.74s CPU      0.79s WALL (    2636 calls)
     cegterg:over :      0.12s CPU      0.13s WALL (    2156 calls)
     cegterg:upda :      0.03s CPU      0.03s WALL (    2156 calls)
     cegterg:last :      0.05s CPU      0.05s WALL (    1710 calls)
     h_psi        :      3.50s CPU      3.70s WALL (    2732 calls)
     s_psi        :      0.06s CPU      0.07s WALL (    2732 calls)
     g_psi        :      0.01s CPU      0.01s WALL (    2156 calls)

     Called by h_psi:
     h_psi:calbec :      0.16s CPU      0.17s WALL (    2732 calls)
     vloc_psi     :      3.25s CPU      3.43s WALL (    2732 calls)
     add_vuspsi   :      0.06s CPU      0.06s WALL (    2732 calls)

     General routines
     calbec       :      0.20s CPU      0.21s WALL (    3308 calls)
     fft          :      0.01s CPU      0.01s WALL (     145 calls)
     ffts         :      0.00s CPU      0.00s WALL (      12 calls)
     fftw         :      3.49s CPU      3.68s WALL (   71472 calls)
 
     Parallel routines

     PAW routines
     PAW_pot      :      0.64s CPU      0.77s WALL (       7 calls)
     PAW_symme    :      0.01s CPU      0.01s WALL (      12 calls)
 
     PWSCF        :      6.61s CPU      7.56s WALL

 
   This run was terminated on:   3:27:43  13Mar2024            

=------------------------------------------------------------------------------=
   JOB DONE.
=------------------------------------------------------------------------------=
