
     Program PWSCF v.7.2 starts on  1Jul2024 at 11:26: 8 

     This program is part of the open-source Quantum ESPRESSO suite
     for quantum simulation of materials; please cite
         "P. Giannozzi et al., J. Phys.:Condens. Matter 21 395502 (2009);
         "P. Giannozzi et al., J. Phys.:Condens. Matter 29 465901 (2017);
         "P. Giannozzi et al., J. Chem. Phys. 152 154105 (2020);
          URL http://www.quantum-espresso.org", 
     in publications or presentations arising from this work. More details at
     http://www.quantum-espresso.org/quote

     Parallel version (MPI), running on  1120 processors

     MPI processes distributed on    10 nodes
     234308 MiB available memory on the printing compute node when the environment starts
 
     Waiting for input...
     Reading input from standard input

     Current dimensions of program PWSCF are:
     Max number of different atomic species (ntypx) = 10
     Max number of k-points (npk) =  40000
     Max angular momentum in pseudopotentials (lmaxx) =  4
     file S.pbe-n-kjpaw_psl.1.0.0.UPF: wavefunction(s)  3S 3P renormalized
     file Zn.pbe-dnl-kjpaw_psl.1.0.0.UPF: wavefunction(s)  4S 3D renormalized
     Found identity + (  0.0000  0.2500  0.2500) symmetry
     This is a supercell, fractional translations are disabled
 
     K-points division:     npool     =      10
     R & G space division:  proc/nbgrp/npool/nimage =     112
     Subspace diagonalization in iterative solution of the eigenvalue problem:
     one sub-group per band group will be used
     scalapack distributed-memory algorithm (size of sub-group:  3*  3 procs)

 
     Parallelization info
     --------------------
     sticks:   dense  smooth     PW     G-vecs:    dense   smooth      PW
     Min         126     126     33                11287    11287    1523
     Max         128     128     34                11292    11292    1528
     Sum       14137   14137   3721              1264415  1264415  170709
 
     Using Slab Decomposition
 


     bravais-lattice index     =            1
     lattice parameter (alat)  =      20.5686  a.u.
     unit-cell volume          =    8701.8437 (a.u.)^3
     number of atoms/cell      =           64
     number of atomic types    =            2
     number of electrons       =       576.00
     number of Kohn-Sham states=          345
     kinetic-energy cutoff     =     105.0000  Ry
     charge density cutoff     =     420.0000  Ry
     scf convergence threshold =      1.0E-06
     mixing beta               =       0.7000
     number of iterations used =            8  plain     mixing
     Exchange-correlation= SLA  PW   PBX  PBC
                           (   1   4   3   4   0   0   0)
     Hubbard projectors: ortho-atomic
     Hubbard parameters of DFT+U (Dudarev formulation) in eV:
     U(Zn-3d) =  6.0000

     Internal variables: lda_plus_u = T, lda_plus_u_kind = 0

     celldm(1)=  20.568554  celldm(2)=   0.000000  celldm(3)=   0.000000
     celldm(4)=   0.000000  celldm(5)=   0.000000  celldm(6)=   0.000000

     crystal axes: (cart. coord. in units of alat)
               a(1) = (   1.000000   0.000000   0.000000 )  
               a(2) = (   0.000000   1.000000   0.000000 )  
               a(3) = (   0.000000   0.000000   1.000000 )  

     reciprocal axes: (cart. coord. in units 2 pi/alat)
               b(1) = (  1.000000  0.000000  0.000000 )  
               b(2) = (  0.000000  1.000000  0.000000 )  
               b(3) = (  0.000000  0.000000  1.000000 )  


     PseudoPot. # 1 for S  read from file:
     /arf/home/amuhaymin/pseudo/S.pbe-n-kjpaw_psl.1.0.0.UPF
     MD5 check sum: fb45dfebcf3e72a4e1bd4a866ec2e262
     Pseudo is Projector augmented-wave + core cor, Zval =  6.0
     Generated using &quot;atomic&quot; code by A. Dal Corso  v.6.3
     Shape of augmentation charge: PSQ
     Using radial grid of 1151 points,  6 beta functions with: 
                l(1) =   0
                l(2) =   0
                l(3) =   1
                l(4) =   1
                l(5) =   2
                l(6) =   2
     Q(r) pseudized with 0 coefficients 


     PseudoPot. # 2 for Zn read from file:
     /arf/home/amuhaymin/pseudo/Zn.pbe-dnl-kjpaw_psl.1.0.0.UPF
     MD5 check sum: c608214d9520ac179f507641260889e3
     Pseudo is Projector augmented-wave + core cor, Zval = 12.0
     Generated using &quot;atomic&quot; code by A. Dal Corso  v.6.2.2
     Shape of augmentation charge: PSQ
     Using radial grid of 1201 points,  6 beta functions with: 
                l(1) =   0
                l(2) =   0
                l(3) =   1
                l(4) =   1
                l(5) =   2
                l(6) =   2
     Q(r) pseudized with 0 coefficients 


     atomic species   valence    mass     pseudopotential
        S              6.00    32.06500     S ( 1.00)
        Zn            12.00    65.38000     Zn( 1.00)

     24 Sym. Ops. (no inversion) found


                                    s                        frac. trans.

      isym =  1     identity                                     

 cryst.   s( 1) = (     1          0          0      )
                  (     0          1          0      )
                  (     0          0          1      )

 cart.    s( 1) = (  1.0000000  0.0000000  0.0000000 )
                  (  0.0000000  1.0000000  0.0000000 )
                  (  0.0000000  0.0000000  1.0000000 )


      isym =  2     180 deg rotation - cart. axis [0,0,1]        

 cryst.   s( 2) = (    -1          0          0      )
                  (     0         -1          0      )
                  (     0          0          1      )

 cart.    s( 2) = ( -1.0000000  0.0000000  0.0000000 )
                  (  0.0000000 -1.0000000  0.0000000 )
                  (  0.0000000  0.0000000  1.0000000 )


      isym =  3     180 deg rotation - cart. axis [0,1,0]        

 cryst.   s( 3) = (    -1          0          0      )
                  (     0          1          0      )
                  (     0          0         -1      )

 cart.    s( 3) = ( -1.0000000  0.0000000  0.0000000 )
                  (  0.0000000  1.0000000  0.0000000 )
                  (  0.0000000  0.0000000 -1.0000000 )


      isym =  4     180 deg rotation - cart. axis [1,0,0]        

 cryst.   s( 4) = (     1          0          0      )
                  (     0         -1          0      )
                  (     0          0         -1      )

 cart.    s( 4) = (  1.0000000  0.0000000  0.0000000 )
                  (  0.0000000 -1.0000000  0.0000000 )
                  (  0.0000000  0.0000000 -1.0000000 )


      isym =  5     120 deg rotation - cart. axis [-1,-1,-1]     

 cryst.   s( 5) = (     0          0          1      )
                  (     1          0          0      )
                  (     0          1          0      )

 cart.    s( 5) = (  0.0000000  1.0000000  0.0000000 )
                  (  0.0000000  0.0000000  1.0000000 )
                  (  1.0000000  0.0000000  0.0000000 )


      isym =  6     120 deg rotation - cart. axis [-1,1,1]       

 cryst.   s( 6) = (     0          0         -1      )
                  (    -1          0          0      )
                  (     0          1          0      )

 cart.    s( 6) = (  0.0000000 -1.0000000  0.0000000 )
                  (  0.0000000  0.0000000  1.0000000 )
                  ( -1.0000000  0.0000000  0.0000000 )


      isym =  7     120 deg rotation - cart. axis [1,1,-1]       

 cryst.   s( 7) = (     0          0         -1      )
                  (     1          0          0      )
                  (     0         -1          0      )

 cart.    s( 7) = (  0.0000000  1.0000000  0.0000000 )
                  (  0.0000000  0.0000000 -1.0000000 )
                  ( -1.0000000  0.0000000  0.0000000 )


      isym =  8     120 deg rotation - cart. axis [1,-1,1]       

 cryst.   s( 8) = (     0          0          1      )
                  (    -1          0          0      )
                  (     0         -1          0      )

 cart.    s( 8) = (  0.0000000 -1.0000000  0.0000000 )
                  (  0.0000000  0.0000000 -1.0000000 )
                  (  1.0000000  0.0000000  0.0000000 )


      isym =  9     120 deg rotation - cart. axis [1,1,1]        

 cryst.   s( 9) = (     0          1          0      )
                  (     0          0          1      )
                  (     1          0          0      )

 cart.    s( 9) = (  0.0000000  0.0000000  1.0000000 )
                  (  1.0000000  0.0000000  0.0000000 )
                  (  0.0000000  1.0000000  0.0000000 )


      isym = 10     120 deg rotation - cart. axis [-1,1,-1]      

 cryst.   s(10) = (     0         -1          0      )
                  (     0          0         -1      )
                  (     1          0          0      )

 cart.    s(10) = (  0.0000000  0.0000000  1.0000000 )
                  ( -1.0000000  0.0000000  0.0000000 )
                  (  0.0000000 -1.0000000  0.0000000 )


      isym = 11     120 deg rotation - cart. axis [1,-1,-1]      

 cryst.   s(11) = (     0         -1          0      )
                  (     0          0          1      )
                  (    -1          0          0      )

 cart.    s(11) = (  0.0000000  0.0000000 -1.0000000 )
                  ( -1.0000000  0.0000000  0.0000000 )
                  (  0.0000000  1.0000000  0.0000000 )


      isym = 12     120 deg rotation - cart. axis [-1,-1,1]      

 cryst.   s(12) = (     0          1          0      )
                  (     0          0         -1      )
                  (    -1          0          0      )

 cart.    s(12) = (  0.0000000  0.0000000 -1.0000000 )
                  (  1.0000000  0.0000000  0.0000000 )
                  (  0.0000000 -1.0000000  0.0000000 )


      isym = 13     inv. 180 deg rotation - cart. axis [1,1,0]   

 cryst.   s(13) = (     0         -1          0      )
                  (    -1          0          0      )
                  (     0          0          1      )

 cart.    s(13) = (  0.0000000 -1.0000000  0.0000000 )
                  ( -1.0000000  0.0000000  0.0000000 )
                  (  0.0000000  0.0000000  1.0000000 )


      isym = 14     inv. 180 deg rotation - cart. axis [1,-1,0]  

 cryst.   s(14) = (     0          1          0      )
                  (     1          0          0      )
                  (     0          0          1      )

 cart.    s(14) = (  0.0000000  1.0000000  0.0000000 )
                  (  1.0000000  0.0000000  0.0000000 )
                  (  0.0000000  0.0000000  1.0000000 )


      isym = 15     inv.  90 deg rotation - cart. axis [0,0,-1]  

 cryst.   s(15) = (     0          1          0      )
                  (    -1          0          0      )
                  (     0          0         -1      )

 cart.    s(15) = (  0.0000000 -1.0000000  0.0000000 )
                  (  1.0000000  0.0000000  0.0000000 )
                  (  0.0000000  0.0000000 -1.0000000 )


      isym = 16     inv.  90 deg rotation - cart. axis [0,0,1]   

 cryst.   s(16) = (     0         -1          0      )
                  (     1          0          0      )
                  (     0          0         -1      )

 cart.    s(16) = (  0.0000000  1.0000000  0.0000000 )
                  ( -1.0000000  0.0000000  0.0000000 )
                  (  0.0000000  0.0000000 -1.0000000 )


      isym = 17     inv. 180 deg rotation - cart. axis [1,0,1]   

 cryst.   s(17) = (     0          0         -1      )
                  (     0          1          0      )
                  (    -1          0          0      )

 cart.    s(17) = (  0.0000000  0.0000000 -1.0000000 )
                  (  0.0000000  1.0000000  0.0000000 )
                  ( -1.0000000  0.0000000  0.0000000 )


      isym = 18     inv. 180 deg rotation - cart. axis [-1,0,1]  

 cryst.   s(18) = (     0          0          1      )
                  (     0          1          0      )
                  (     1          0          0      )

 cart.    s(18) = (  0.0000000  0.0000000  1.0000000 )
                  (  0.0000000  1.0000000  0.0000000 )
                  (  1.0000000  0.0000000  0.0000000 )


      isym = 19     inv.  90 deg rotation - cart. axis [0,1,0]   

 cryst.   s(19) = (     0          0          1      )
                  (     0         -1          0      )
                  (    -1          0          0      )

 cart.    s(19) = (  0.0000000  0.0000000 -1.0000000 )
                  (  0.0000000 -1.0000000  0.0000000 )
                  (  1.0000000  0.0000000  0.0000000 )


      isym = 20     inv.  90 deg rotation - cart. axis [0,-1,0]  

 cryst.   s(20) = (     0          0         -1      )
                  (     0         -1          0      )
                  (     1          0          0      )

 cart.    s(20) = (  0.0000000  0.0000000  1.0000000 )
                  (  0.0000000 -1.0000000  0.0000000 )
                  ( -1.0000000  0.0000000  0.0000000 )


      isym = 21     inv. 180 deg rotation - cart. axis [0,1,1]   

 cryst.   s(21) = (     1          0          0      )
                  (     0          0         -1      )
                  (     0         -1          0      )

 cart.    s(21) = (  1.0000000  0.0000000  0.0000000 )
                  (  0.0000000  0.0000000 -1.0000000 )
                  (  0.0000000 -1.0000000  0.0000000 )


      isym = 22     inv. 180 deg rotation - cart. axis [0,1,-1]  

 cryst.   s(22) = (     1          0          0      )
                  (     0          0          1      )
                  (     0          1          0      )

 cart.    s(22) = (  1.0000000  0.0000000  0.0000000 )
                  (  0.0000000  0.0000000  1.0000000 )
                  (  0.0000000  1.0000000  0.0000000 )


      isym = 23     inv.  90 deg rotation - cart. axis [-1,0,0]  

 cryst.   s(23) = (    -1          0          0      )
                  (     0          0          1      )
                  (     0         -1          0      )

 cart.    s(23) = ( -1.0000000  0.0000000  0.0000000 )
                  (  0.0000000  0.0000000 -1.0000000 )
                  (  0.0000000  1.0000000  0.0000000 )


      isym = 24     inv.  90 deg rotation - cart. axis [1,0,0]   

 cryst.   s(24) = (    -1          0          0      )
                  (     0          0         -1      )
                  (     0          1          0      )

 cart.    s(24) = ( -1.0000000  0.0000000  0.0000000 )
                  (  0.0000000  0.0000000  1.0000000 )
                  (  0.0000000 -1.0000000  0.0000000 )


     point group T_d (-43m) 
     there are  5 classes
     the character table:

       E     8C3   3C2   6S4   6s_d 
A_1    1.00  1.00  1.00  1.00  1.00
A_2    1.00  1.00  1.00 -1.00 -1.00
E      2.00 -1.00  2.00  0.00  0.00
T_1    3.00  0.00 -1.00  1.00 -1.00
T_2    3.00  0.00 -1.00 -1.00  1.00

     the symmetry operations in each class and the name of the first element:

     E        1
          identity                                               
     8C3      5    7    8    6   12    9   10   11
          120 deg rotation - cart. axis [-1,-1,-1]               
     3C2      2    3    4
          180 deg rotation - cart. axis [0,0,1]                  
     6S4     15   16   20   19   23   24
          inv.  90 deg rotation - cart. axis [0,0,-1]            
     6s_d    13   14   17   18   21   22
          inv. 180 deg rotation - cart. axis [1,1,0]             

   Cartesian axes

     site n.     atom                  positions (alat units)
         1           Zn  tau(   1) = (   0.0000000   0.0000000   0.0000000  )
         2           Zn  tau(   2) = (   0.0000000   0.2500000   0.2500000  )
         3           Zn  tau(   3) = (   0.2500000   0.0000000   0.2500000  )
         4           Zn  tau(   4) = (   0.2500000   0.2500000   0.0000000  )
         5           S   tau(   5) = (   0.1250000   0.3750000   0.3750000  )
         6           S   tau(   6) = (   0.1250000   0.1250000   0.1250000  )
         7           S   tau(   7) = (   0.3750000   0.3750000   0.1250000  )
         8           S   tau(   8) = (   0.3750000   0.1250000   0.3750000  )
         9           Zn  tau(   9) = (   0.0000000   0.0000000   0.5000000  )
        10           Zn  tau(  10) = (   0.0000000   0.2500000   0.7500000  )
        11           Zn  tau(  11) = (   0.2500000   0.0000000   0.7500000  )
        12           Zn  tau(  12) = (   0.2500000   0.2500000   0.5000000  )
        13           S   tau(  13) = (   0.1250000   0.3750000   0.8750000  )
        14           S   tau(  14) = (   0.1250000   0.1250000   0.6250000  )
        15           S   tau(  15) = (   0.3750000   0.3750000   0.6250000  )
        16           S   tau(  16) = (   0.3750000   0.1250000   0.8750000  )
        17           Zn  tau(  17) = (   0.0000000   0.5000000   0.0000000  )
        18           Zn  tau(  18) = (   0.0000000   0.7500000   0.2500000  )
        19           Zn  tau(  19) = (   0.2500000   0.5000000   0.2500000  )
        20           Zn  tau(  20) = (   0.2500000   0.7500000   0.0000000  )
        21           S   tau(  21) = (   0.1250000   0.8750000   0.3750000  )
        22           S   tau(  22) = (   0.1250000   0.6250000   0.1250000  )
        23           S   tau(  23) = (   0.3750000   0.8750000   0.1250000  )
        24           S   tau(  24) = (   0.3750000   0.6250000   0.3750000  )
        25           Zn  tau(  25) = (   0.0000000   0.5000000   0.5000000  )
        26           Zn  tau(  26) = (   0.0000000   0.7500000   0.7500000  )
        27           Zn  tau(  27) = (   0.2500000   0.5000000   0.7500000  )
        28           Zn  tau(  28) = (   0.2500000   0.7500000   0.5000000  )
        29           S   tau(  29) = (   0.1250000   0.8750000   0.8750000  )
        30           S   tau(  30) = (   0.1250000   0.6250000   0.6250000  )
        31           S   tau(  31) = (   0.3750000   0.8750000   0.6250000  )
        32           S   tau(  32) = (   0.3750000   0.6250000   0.8750000  )
        33           Zn  tau(  33) = (   0.5000000   0.0000000   0.0000000  )
        34           Zn  tau(  34) = (   0.5000000   0.2500000   0.2500000  )
        35           Zn  tau(  35) = (   0.7500000   0.0000000   0.2500000  )
        36           Zn  tau(  36) = (   0.7500000   0.2500000   0.0000000  )
        37           S   tau(  37) = (   0.6250000   0.3750000   0.3750000  )
        38           S   tau(  38) = (   0.6250000   0.1250000   0.1250000  )
        39           S   tau(  39) = (   0.8750000   0.3750000   0.1250000  )
        40           S   tau(  40) = (   0.8750000   0.1250000   0.3750000  )
        41           Zn  tau(  41) = (   0.5000000   0.0000000   0.5000000  )
        42           Zn  tau(  42) = (   0.5000000   0.2500000   0.7500000  )
        43           Zn  tau(  43) = (   0.7500000   0.0000000   0.7500000  )
        44           Zn  tau(  44) = (   0.7500000   0.2500000   0.5000000  )
        45           S   tau(  45) = (   0.6250000   0.3750000   0.8750000  )
        46           S   tau(  46) = (   0.6250000   0.1250000   0.6250000  )
        47           S   tau(  47) = (   0.8750000   0.3750000   0.6250000  )
        48           S   tau(  48) = (   0.8750000   0.1250000   0.8750000  )
        49           Zn  tau(  49) = (   0.5000000   0.5000000   0.0000000  )
        50           Zn  tau(  50) = (   0.5000000   0.7500000   0.2500000  )
        51           Zn  tau(  51) = (   0.7500000   0.5000000   0.2500000  )
        52           Zn  tau(  52) = (   0.7500000   0.7500000   0.0000000  )
        53           S   tau(  53) = (   0.6250000   0.8750000   0.3750000  )
        54           S   tau(  54) = (   0.6250000   0.6250000   0.1250000  )
        55           S   tau(  55) = (   0.8750000   0.8750000   0.1250000  )
        56           S   tau(  56) = (   0.8750000   0.6250000   0.3750000  )
        57           Zn  tau(  57) = (   0.5000000   0.5000000   0.5000000  )
        58           Zn  tau(  58) = (   0.5000000   0.7500000   0.7500000  )
        59           Zn  tau(  59) = (   0.7500000   0.5000000   0.7500000  )
        60           Zn  tau(  60) = (   0.7500000   0.7500000   0.5000000  )
        61           S   tau(  61) = (   0.6250000   0.8750000   0.8750000  )
        62           S   tau(  62) = (   0.6250000   0.6250000   0.6250000  )
        63           S   tau(  63) = (   0.8750000   0.8750000   0.6250000  )
        64           S   tau(  64) = (   0.8750000   0.6250000   0.8750000  )

   Crystallographic axes

     site n.     atom                  positions (cryst. coord.)
         1           Zn  tau(   1) = (  0.0000000  0.0000000  0.0000000  )
         2           Zn  tau(   2) = (  0.0000000  0.2500000  0.2500000  )
         3           Zn  tau(   3) = (  0.2500000  0.0000000  0.2500000  )
         4           Zn  tau(   4) = (  0.2500000  0.2500000  0.0000000  )
         5           S   tau(   5) = (  0.1250000  0.3750000  0.3750000  )
         6           S   tau(   6) = (  0.1250000  0.1250000  0.1250000  )
         7           S   tau(   7) = (  0.3750000  0.3750000  0.1250000  )
         8           S   tau(   8) = (  0.3750000  0.1250000  0.3750000  )
         9           Zn  tau(   9) = (  0.0000000  0.0000000  0.5000000  )
        10           Zn  tau(  10) = (  0.0000000  0.2500000  0.7500000  )
        11           Zn  tau(  11) = (  0.2500000  0.0000000  0.7500000  )
        12           Zn  tau(  12) = (  0.2500000  0.2500000  0.5000000  )
        13           S   tau(  13) = (  0.1250000  0.3750000  0.8750000  )
        14           S   tau(  14) = (  0.1250000  0.1250000  0.6250000  )
        15           S   tau(  15) = (  0.3750000  0.3750000  0.6250000  )
        16           S   tau(  16) = (  0.3750000  0.1250000  0.8750000  )
        17           Zn  tau(  17) = (  0.0000000  0.5000000  0.0000000  )
        18           Zn  tau(  18) = (  0.0000000  0.7500000  0.2500000  )
        19           Zn  tau(  19) = (  0.2500000  0.5000000  0.2500000  )
        20           Zn  tau(  20) = (  0.2500000  0.7500000  0.0000000  )
        21           S   tau(  21) = (  0.1250000  0.8750000  0.3750000  )
        22           S   tau(  22) = (  0.1250000  0.6250000  0.1250000  )
        23           S   tau(  23) = (  0.3750000  0.8750000  0.1250000  )
        24           S   tau(  24) = (  0.3750000  0.6250000  0.3750000  )
        25           Zn  tau(  25) = (  0.0000000  0.5000000  0.5000000  )
        26           Zn  tau(  26) = (  0.0000000  0.7500000  0.7500000  )
        27           Zn  tau(  27) = (  0.2500000  0.5000000  0.7500000  )
        28           Zn  tau(  28) = (  0.2500000  0.7500000  0.5000000  )
        29           S   tau(  29) = (  0.1250000  0.8750000  0.8750000  )
        30           S   tau(  30) = (  0.1250000  0.6250000  0.6250000  )
        31           S   tau(  31) = (  0.3750000  0.8750000  0.6250000  )
        32           S   tau(  32) = (  0.3750000  0.6250000  0.8750000  )
        33           Zn  tau(  33) = (  0.5000000  0.0000000  0.0000000  )
        34           Zn  tau(  34) = (  0.5000000  0.2500000  0.2500000  )
        35           Zn  tau(  35) = (  0.7500000  0.0000000  0.2500000  )
        36           Zn  tau(  36) = (  0.7500000  0.2500000  0.0000000  )
        37           S   tau(  37) = (  0.6250000  0.3750000  0.3750000  )
        38           S   tau(  38) = (  0.6250000  0.1250000  0.1250000  )
        39           S   tau(  39) = (  0.8750000  0.3750000  0.1250000  )
        40           S   tau(  40) = (  0.8750000  0.1250000  0.3750000  )
        41           Zn  tau(  41) = (  0.5000000  0.0000000  0.5000000  )
        42           Zn  tau(  42) = (  0.5000000  0.2500000  0.7500000  )
        43           Zn  tau(  43) = (  0.7500000  0.0000000  0.7500000  )
        44           Zn  tau(  44) = (  0.7500000  0.2500000  0.5000000  )
        45           S   tau(  45) = (  0.6250000  0.3750000  0.8750000  )
        46           S   tau(  46) = (  0.6250000  0.1250000  0.6250000  )
        47           S   tau(  47) = (  0.8750000  0.3750000  0.6250000  )
        48           S   tau(  48) = (  0.8750000  0.1250000  0.8750000  )
        49           Zn  tau(  49) = (  0.5000000  0.5000000  0.0000000  )
        50           Zn  tau(  50) = (  0.5000000  0.7500000  0.2500000  )
        51           Zn  tau(  51) = (  0.7500000  0.5000000  0.2500000  )
        52           Zn  tau(  52) = (  0.7500000  0.7500000  0.0000000  )
        53           S   tau(  53) = (  0.6250000  0.8750000  0.3750000  )
        54           S   tau(  54) = (  0.6250000  0.6250000  0.1250000  )
        55           S   tau(  55) = (  0.8750000  0.8750000  0.1250000  )
        56           S   tau(  56) = (  0.8750000  0.6250000  0.3750000  )
        57           Zn  tau(  57) = (  0.5000000  0.5000000  0.5000000  )
        58           Zn  tau(  58) = (  0.5000000  0.7500000  0.7500000  )
        59           Zn  tau(  59) = (  0.7500000  0.5000000  0.7500000  )
        60           Zn  tau(  60) = (  0.7500000  0.7500000  0.5000000  )
        61           S   tau(  61) = (  0.6250000  0.8750000  0.8750000  )
        62           S   tau(  62) = (  0.6250000  0.6250000  0.6250000  )
        63           S   tau(  63) = (  0.8750000  0.8750000  0.6250000  )
        64           S   tau(  64) = (  0.8750000  0.6250000  0.8750000  )

     number of k points=    10
                       cart. coord. in units 2pi/alat
        k(    1) = (   0.0000000   0.0000000   0.0000000), wk =   0.0312500
        k(    2) = (   0.0000000   0.0000000   0.2500000), wk =   0.1875000
        k(    3) = (   0.0000000   0.0000000  -0.5000000), wk =   0.0937500
        k(    4) = (   0.0000000   0.2500000   0.2500000), wk =   0.3750000
        k(    5) = (   0.0000000   0.2500000  -0.5000000), wk =   0.3750000
        k(    6) = (   0.0000000  -0.5000000  -0.5000000), wk =   0.0937500
        k(    7) = (   0.2500000   0.2500000   0.2500000), wk =   0.2500000
        k(    8) = (   0.2500000   0.2500000  -0.5000000), wk =   0.3750000
        k(    9) = (   0.2500000  -0.5000000  -0.5000000), wk =   0.1875000
        k(   10) = (  -0.5000000  -0.5000000  -0.5000000), wk =   0.0312500

                       cryst. coord.
        k(    1) = (   0.0000000   0.0000000   0.0000000), wk =   0.0312500
        k(    2) = (   0.0000000   0.0000000   0.2500000), wk =   0.1875000
        k(    3) = (   0.0000000   0.0000000  -0.5000000), wk =   0.0937500
        k(    4) = (   0.0000000   0.2500000   0.2500000), wk =   0.3750000
        k(    5) = (   0.0000000   0.2500000  -0.5000000), wk =   0.3750000
        k(    6) = (   0.0000000  -0.5000000  -0.5000000), wk =   0.0937500
        k(    7) = (   0.2500000   0.2500000   0.2500000), wk =   0.2500000
        k(    8) = (   0.2500000   0.2500000  -0.5000000), wk =   0.3750000
        k(    9) = (   0.2500000  -0.5000000  -0.5000000), wk =   0.1875000
        k(   10) = (  -0.5000000  -0.5000000  -0.5000000), wk =   0.0312500

     Dense  grid:  1264415 G-vectors     FFT dimensions: ( 135, 135, 135)

     Dynamical RAM for                 wfc:       7.43 MB

     Dynamical RAM for     wfc (w. buffer):       7.43 MB

     Dynamical RAM for             U proj.:       3.44 MB

     Dynamical RAM for  U proj. (w. buff.):       3.44 MB

     Dynamical RAM for           str. fact:       0.34 MB

     Dynamical RAM for           local pot:       0.00 MB

     Dynamical RAM for          nlocal pot:      24.80 MB

     Dynamical RAM for                qrad:       3.29 MB

     Dynamical RAM for          rho,v,vnew:       1.35 MB

     Dynamical RAM for               rhoin:       0.45 MB

     Dynamical RAM for            rho*nmix:       2.76 MB

     Dynamical RAM for           G-vectors:       0.73 MB

     Dynamical RAM for          h,s,v(r/c):       2.42 MB

     Dynamical RAM for          <psi|beta>:       6.06 MB

     Dynamical RAM for                 psi:      14.86 MB

     Dynamical RAM for                hpsi:      14.86 MB

     Dynamical RAM for                spsi:      14.86 MB

     Dynamical RAM for      wfcinit/wfcrot:      21.88 MB

     Dynamical RAM for           addusdens:       3.91 MB

     Estimated static dynamical RAM per process >      43.75 MB

     Estimated max dynamical RAM per process >      99.56 MB

     Estimated total dynamical RAM >     106.18 GB

     Initial potential from superposition of free atoms

     starting charge     575.8798, renormalised to     576.0000

     HUBBARD ENERGY =    2.0533  (Ry)

     STARTING HUBBARD OCCUPATIONS:

     =================== HUBBARD OCCUPATIONS ===================
     ------------------------ ATOM    1 ------------------------
     Tr[ns(  1)] =   9.70000
     eigenvalues:
       0.970  0.970  0.970  0.970  0.970
     eigenvectors (columns):
       1.000  0.000  0.000  0.000  0.000
       0.000  1.000  0.000  0.000  0.000
       0.000  0.000  1.000  0.000  0.000
       0.000  0.000  0.000  1.000  0.000
       0.000  0.000  0.000  0.000  1.000
     occupation matrix ns (before diag.):
       0.970  0.000  0.000  0.000  0.000
       0.000  0.970  0.000  0.000  0.000
       0.000  0.000  0.970  0.000  0.000
       0.000  0.000  0.000  0.970  0.000
       0.000  0.000  0.000  0.000  0.970
     ------------------------ ATOM    2 ------------------------
     Tr[ns(  2)] =   9.70000
     eigenvalues:
       0.970  0.970  0.970  0.970  0.970
     eigenvectors (columns):
       1.000  0.000  0.000  0.000  0.000
       0.000  1.000  0.000  0.000  0.000
       0.000  0.000  1.000  0.000  0.000
       0.000  0.000  0.000  1.000  0.000
       0.000  0.000  0.000  0.000  1.000
     occupation matrix ns (before diag.):
       0.970  0.000  0.000  0.000  0.000
       0.000  0.970  0.000  0.000  0.000
       0.000  0.000  0.970  0.000  0.000
       0.000  0.000  0.000  0.970  0.000
       0.000  0.000  0.000  0.000  0.970
     ------------------------ ATOM    3 ------------------------
     Tr[ns(  3)] =   9.70000
     eigenvalues:
       0.970  0.970  0.970  0.970  0.970
     eigenvectors (columns):
       1.000  0.000  0.000  0.000  0.000
       0.000  1.000  0.000  0.000  0.000
       0.000  0.000  1.000  0.000  0.000
       0.000  0.000  0.000  1.000  0.000
       0.000  0.000  0.000  0.000  1.000
     occupation matrix ns (before diag.):
       0.970  0.000  0.000  0.000  0.000
       0.000  0.970  0.000  0.000  0.000
       0.000  0.000  0.970  0.000  0.000
       0.000  0.000  0.000  0.970  0.000
       0.000  0.000  0.000  0.000  0.970
     ------------------------ ATOM    4 ------------------------
     Tr[ns(  4)] =   9.70000
     eigenvalues:
       0.970  0.970  0.970  0.970  0.970
     eigenvectors (columns):
       1.000  0.000  0.000  0.000  0.000
       0.000  1.000  0.000  0.000  0.000
       0.000  0.000  1.000  0.000  0.000
       0.000  0.000  0.000  1.000  0.000
       0.000  0.000  0.000  0.000  1.000
     occupation matrix ns (before diag.):
       0.970  0.000  0.000  0.000  0.000
       0.000  0.970  0.000  0.000  0.000
       0.000  0.000  0.970  0.000  0.000
       0.000  0.000  0.000  0.970  0.000
       0.000  0.000  0.000  0.000  0.970
     ------------------------ ATOM    9 ------------------------
     Tr[ns(  9)] =   9.70000
     eigenvalues:
       0.970  0.970  0.970  0.970  0.970
     eigenvectors (columns):
       1.000  0.000  0.000  0.000  0.000
       0.000  1.000  0.000  0.000  0.000
       0.000  0.000  1.000  0.000  0.000
       0.000  0.000  0.000  1.000  0.000
       0.000  0.000  0.000  0.000  1.000
     occupation matrix ns (before diag.):
       0.970  0.000  0.000  0.000  0.000
       0.000  0.970  0.000  0.000  0.000
       0.000  0.000  0.970  0.000  0.000
       0.000  0.000  0.000  0.970  0.000
       0.000  0.000  0.000  0.000  0.970
     ------------------------ ATOM   10 ------------------------
     Tr[ns( 10)] =   9.70000
     eigenvalues:
       0.970  0.970  0.970  0.970  0.970
     eigenvectors (columns):
       1.000  0.000  0.000  0.000  0.000
       0.000  1.000  0.000  0.000  0.000
       0.000  0.000  1.000  0.000  0.000
       0.000  0.000  0.000  1.000  0.000
       0.000  0.000  0.000  0.000  1.000
     occupation matrix ns (before diag.):
       0.970  0.000  0.000  0.000  0.000
       0.000  0.970  0.000  0.000  0.000
       0.000  0.000  0.970  0.000  0.000
       0.000  0.000  0.000  0.970  0.000
       0.000  0.000  0.000  0.000  0.970
     ------------------------ ATOM   11 ------------------------
     Tr[ns( 11)] =   9.70000
     eigenvalues:
       0.970  0.970  0.970  0.970  0.970
     eigenvectors (columns):
       1.000  0.000  0.000  0.000  0.000
       0.000  1.000  0.000  0.000  0.000
       0.000  0.000  1.000  0.000  0.000
       0.000  0.000  0.000  1.000  0.000
       0.000  0.000  0.000  0.000  1.000
     occupation matrix ns (before diag.):
       0.970  0.000  0.000  0.000  0.000
       0.000  0.970  0.000  0.000  0.000
       0.000  0.000  0.970  0.000  0.000
       0.000  0.000  0.000  0.970  0.000
       0.000  0.000  0.000  0.000  0.970
     ------------------------ ATOM   12 ------------------------
     Tr[ns( 12)] =   9.70000
     eigenvalues:
       0.970  0.970  0.970  0.970  0.970
     eigenvectors (columns):
       1.000  0.000  0.000  0.000  0.000
       0.000  1.000  0.000  0.000  0.000
       0.000  0.000  1.000  0.000  0.000
       0.000  0.000  0.000  1.000  0.000
       0.000  0.000  0.000  0.000  1.000
     occupation matrix ns (before diag.):
       0.970  0.000  0.000  0.000  0.000
       0.000  0.970  0.000  0.000  0.000
       0.000  0.000  0.970  0.000  0.000
       0.000  0.000  0.000  0.970  0.000
       0.000  0.000  0.000  0.000  0.970
     ------------------------ ATOM   17 ------------------------
     Tr[ns( 17)] =   9.70000
     eigenvalues:
       0.970  0.970  0.970  0.970  0.970
     eigenvectors (columns):
       1.000  0.000  0.000  0.000  0.000
       0.000  1.000  0.000  0.000  0.000
       0.000  0.000  1.000  0.000  0.000
       0.000  0.000  0.000  1.000  0.000
       0.000  0.000  0.000  0.000  1.000
     occupation matrix ns (before diag.):
       0.970  0.000  0.000  0.000  0.000
       0.000  0.970  0.000  0.000  0.000
       0.000  0.000  0.970  0.000  0.000
       0.000  0.000  0.000  0.970  0.000
       0.000  0.000  0.000  0.000  0.970
     ------------------------ ATOM   18 ------------------------
     Tr[ns( 18)] =   9.70000
     eigenvalues:
       0.970  0.970  0.970  0.970  0.970
     eigenvectors (columns):
       1.000  0.000  0.000  0.000  0.000
       0.000  1.000  0.000  0.000  0.000
       0.000  0.000  1.000  0.000  0.000
       0.000  0.000  0.000  1.000  0.000
       0.000  0.000  0.000  0.000  1.000
     occupation matrix ns (before diag.):
       0.970  0.000  0.000  0.000  0.000
       0.000  0.970  0.000  0.000  0.000
       0.000  0.000  0.970  0.000  0.000
       0.000  0.000  0.000  0.970  0.000
       0.000  0.000  0.000  0.000  0.970
     ------------------------ ATOM   19 ------------------------
     Tr[ns( 19)] =   9.70000
     eigenvalues:
       0.970  0.970  0.970  0.970  0.970
     eigenvectors (columns):
       1.000  0.000  0.000  0.000  0.000
       0.000  1.000  0.000  0.000  0.000
       0.000  0.000  1.000  0.000  0.000
       0.000  0.000  0.000  1.000  0.000
       0.000  0.000  0.000  0.000  1.000
     occupation matrix ns (before diag.):
       0.970  0.000  0.000  0.000  0.000
       0.000  0.970  0.000  0.000  0.000
       0.000  0.000  0.970  0.000  0.000
       0.000  0.000  0.000  0.970  0.000
       0.000  0.000  0.000  0.000  0.970
     ------------------------ ATOM   20 ------------------------
     Tr[ns( 20)] =   9.70000
     eigenvalues:
       0.970  0.970  0.970  0.970  0.970
     eigenvectors (columns):
       1.000  0.000  0.000  0.000  0.000
       0.000  1.000  0.000  0.000  0.000
       0.000  0.000  1.000  0.000  0.000
       0.000  0.000  0.000  1.000  0.000
       0.000  0.000  0.000  0.000  1.000
     occupation matrix ns (before diag.):
       0.970  0.000  0.000  0.000  0.000
       0.000  0.970  0.000  0.000  0.000
       0.000  0.000  0.970  0.000  0.000
       0.000  0.000  0.000  0.970  0.000
       0.000  0.000  0.000  0.000  0.970
     ------------------------ ATOM   25 ------------------------
     Tr[ns( 25)] =   9.70000
     eigenvalues:
       0.970  0.970  0.970  0.970  0.970
     eigenvectors (columns):
       1.000  0.000  0.000  0.000  0.000
       0.000  1.000  0.000  0.000  0.000
       0.000  0.000  1.000  0.000  0.000
       0.000  0.000  0.000  1.000  0.000
       0.000  0.000  0.000  0.000  1.000
     occupation matrix ns (before diag.):
       0.970  0.000  0.000  0.000  0.000
       0.000  0.970  0.000  0.000  0.000
       0.000  0.000  0.970  0.000  0.000
       0.000  0.000  0.000  0.970  0.000
       0.000  0.000  0.000  0.000  0.970
     ------------------------ ATOM   26 ------------------------
     Tr[ns( 26)] =   9.70000
     eigenvalues:
       0.970  0.970  0.970  0.970  0.970
     eigenvectors (columns):
       1.000  0.000  0.000  0.000  0.000
       0.000  1.000  0.000  0.000  0.000
       0.000  0.000  1.000  0.000  0.000
       0.000  0.000  0.000  1.000  0.000
       0.000  0.000  0.000  0.000  1.000
     occupation matrix ns (before diag.):
       0.970  0.000  0.000  0.000  0.000
       0.000  0.970  0.000  0.000  0.000
       0.000  0.000  0.970  0.000  0.000
       0.000  0.000  0.000  0.970  0.000
       0.000  0.000  0.000  0.000  0.970
     ------------------------ ATOM   27 ------------------------
     Tr[ns( 27)] =   9.70000
     eigenvalues:
       0.970  0.970  0.970  0.970  0.970
     eigenvectors (columns):
       1.000  0.000  0.000  0.000  0.000
       0.000  1.000  0.000  0.000  0.000
       0.000  0.000  1.000  0.000  0.000
       0.000  0.000  0.000  1.000  0.000
       0.000  0.000  0.000  0.000  1.000
     occupation matrix ns (before diag.):
       0.970  0.000  0.000  0.000  0.000
       0.000  0.970  0.000  0.000  0.000
       0.000  0.000  0.970  0.000  0.000
       0.000  0.000  0.000  0.970  0.000
       0.000  0.000  0.000  0.000  0.970
     ------------------------ ATOM   28 ------------------------
     Tr[ns( 28)] =   9.70000
     eigenvalues:
       0.970  0.970  0.970  0.970  0.970
     eigenvectors (columns):
       1.000  0.000  0.000  0.000  0.000
       0.000  1.000  0.000  0.000  0.000
       0.000  0.000  1.000  0.000  0.000
       0.000  0.000  0.000  1.000  0.000
       0.000  0.000  0.000  0.000  1.000
     occupation matrix ns (before diag.):
       0.970  0.000  0.000  0.000  0.000
       0.000  0.970  0.000  0.000  0.000
       0.000  0.000  0.970  0.000  0.000
       0.000  0.000  0.000  0.970  0.000
       0.000  0.000  0.000  0.000  0.970
     ------------------------ ATOM   33 ------------------------
     Tr[ns( 33)] =   9.70000
     eigenvalues:
       0.970  0.970  0.970  0.970  0.970
     eigenvectors (columns):
       1.000  0.000  0.000  0.000  0.000
       0.000  1.000  0.000  0.000  0.000
       0.000  0.000  1.000  0.000  0.000
       0.000  0.000  0.000  1.000  0.000
       0.000  0.000  0.000  0.000  1.000
     occupation matrix ns (before diag.):
       0.970  0.000  0.000  0.000  0.000
       0.000  0.970  0.000  0.000  0.000
       0.000  0.000  0.970  0.000  0.000
       0.000  0.000  0.000  0.970  0.000
       0.000  0.000  0.000  0.000  0.970
     ------------------------ ATOM   34 ------------------------
     Tr[ns( 34)] =   9.70000
     eigenvalues:
       0.970  0.970  0.970  0.970  0.970
     eigenvectors (columns):
       1.000  0.000  0.000  0.000  0.000
       0.000  1.000  0.000  0.000  0.000
       0.000  0.000  1.000  0.000  0.000
       0.000  0.000  0.000  1.000  0.000
       0.000  0.000  0.000  0.000  1.000
     occupation matrix ns (before diag.):
       0.970  0.000  0.000  0.000  0.000
       0.000  0.970  0.000  0.000  0.000
       0.000  0.000  0.970  0.000  0.000
       0.000  0.000  0.000  0.970  0.000
       0.000  0.000  0.000  0.000  0.970
     ------------------------ ATOM   35 ------------------------
     Tr[ns( 35)] =   9.70000
     eigenvalues:
       0.970  0.970  0.970  0.970  0.970
     eigenvectors (columns):
       1.000  0.000  0.000  0.000  0.000
       0.000  1.000  0.000  0.000  0.000
       0.000  0.000  1.000  0.000  0.000
       0.000  0.000  0.000  1.000  0.000
       0.000  0.000  0.000  0.000  1.000
     occupation matrix ns (before diag.):
       0.970  0.000  0.000  0.000  0.000
       0.000  0.970  0.000  0.000  0.000
       0.000  0.000  0.970  0.000  0.000
       0.000  0.000  0.000  0.970  0.000
       0.000  0.000  0.000  0.000  0.970
     ------------------------ ATOM   36 ------------------------
     Tr[ns( 36)] =   9.70000
     eigenvalues:
       0.970  0.970  0.970  0.970  0.970
     eigenvectors (columns):
       1.000  0.000  0.000  0.000  0.000
       0.000  1.000  0.000  0.000  0.000
       0.000  0.000  1.000  0.000  0.000
       0.000  0.000  0.000  1.000  0.000
       0.000  0.000  0.000  0.000  1.000
     occupation matrix ns (before diag.):
       0.970  0.000  0.000  0.000  0.000
       0.000  0.970  0.000  0.000  0.000
       0.000  0.000  0.970  0.000  0.000
       0.000  0.000  0.000  0.970  0.000
       0.000  0.000  0.000  0.000  0.970
     ------------------------ ATOM   41 ------------------------
     Tr[ns( 41)] =   9.70000
     eigenvalues:
       0.970  0.970  0.970  0.970  0.970
     eigenvectors (columns):
       1.000  0.000  0.000  0.000  0.000
       0.000  1.000  0.000  0.000  0.000
       0.000  0.000  1.000  0.000  0.000
       0.000  0.000  0.000  1.000  0.000
       0.000  0.000  0.000  0.000  1.000
     occupation matrix ns (before diag.):
       0.970  0.000  0.000  0.000  0.000
       0.000  0.970  0.000  0.000  0.000
       0.000  0.000  0.970  0.000  0.000
       0.000  0.000  0.000  0.970  0.000
       0.000  0.000  0.000  0.000  0.970
     ------------------------ ATOM   42 ------------------------
     Tr[ns( 42)] =   9.70000
     eigenvalues:
       0.970  0.970  0.970  0.970  0.970
     eigenvectors (columns):
       1.000  0.000  0.000  0.000  0.000
       0.000  1.000  0.000  0.000  0.000
       0.000  0.000  1.000  0.000  0.000
       0.000  0.000  0.000  1.000  0.000
       0.000  0.000  0.000  0.000  1.000
     occupation matrix ns (before diag.):
       0.970  0.000  0.000  0.000  0.000
       0.000  0.970  0.000  0.000  0.000
       0.000  0.000  0.970  0.000  0.000
       0.000  0.000  0.000  0.970  0.000
       0.000  0.000  0.000  0.000  0.970
     ------------------------ ATOM   43 ------------------------
     Tr[ns( 43)] =   9.70000
     eigenvalues:
       0.970  0.970  0.970  0.970  0.970
     eigenvectors (columns):
       1.000  0.000  0.000  0.000  0.000
       0.000  1.000  0.000  0.000  0.000
       0.000  0.000  1.000  0.000  0.000
       0.000  0.000  0.000  1.000  0.000
       0.000  0.000  0.000  0.000  1.000
     occupation matrix ns (before diag.):
       0.970  0.000  0.000  0.000  0.000
       0.000  0.970  0.000  0.000  0.000
       0.000  0.000  0.970  0.000  0.000
       0.000  0.000  0.000  0.970  0.000
       0.000  0.000  0.000  0.000  0.970
     ------------------------ ATOM   44 ------------------------
     Tr[ns( 44)] =   9.70000
     eigenvalues:
       0.970  0.970  0.970  0.970  0.970
     eigenvectors (columns):
       1.000  0.000  0.000  0.000  0.000
       0.000  1.000  0.000  0.000  0.000
       0.000  0.000  1.000  0.000  0.000
       0.000  0.000  0.000  1.000  0.000
       0.000  0.000  0.000  0.000  1.000
     occupation matrix ns (before diag.):
       0.970  0.000  0.000  0.000  0.000
       0.000  0.970  0.000  0.000  0.000
       0.000  0.000  0.970  0.000  0.000
       0.000  0.000  0.000  0.970  0.000
       0.000  0.000  0.000  0.000  0.970
     ------------------------ ATOM   49 ------------------------
     Tr[ns( 49)] =   9.70000
     eigenvalues:
       0.970  0.970  0.970  0.970  0.970
     eigenvectors (columns):
       1.000  0.000  0.000  0.000  0.000
       0.000  1.000  0.000  0.000  0.000
       0.000  0.000  1.000  0.000  0.000
       0.000  0.000  0.000  1.000  0.000
       0.000  0.000  0.000  0.000  1.000
     occupation matrix ns (before diag.):
       0.970  0.000  0.000  0.000  0.000
       0.000  0.970  0.000  0.000  0.000
       0.000  0.000  0.970  0.000  0.000
       0.000  0.000  0.000  0.970  0.000
       0.000  0.000  0.000  0.000  0.970
     ------------------------ ATOM   50 ------------------------
     Tr[ns( 50)] =   9.70000
     eigenvalues:
       0.970  0.970  0.970  0.970  0.970
     eigenvectors (columns):
       1.000  0.000  0.000  0.000  0.000
       0.000  1.000  0.000  0.000  0.000
       0.000  0.000  1.000  0.000  0.000
       0.000  0.000  0.000  1.000  0.000
       0.000  0.000  0.000  0.000  1.000
     occupation matrix ns (before diag.):
       0.970  0.000  0.000  0.000  0.000
       0.000  0.970  0.000  0.000  0.000
       0.000  0.000  0.970  0.000  0.000
       0.000  0.000  0.000  0.970  0.000
       0.000  0.000  0.000  0.000  0.970
     ------------------------ ATOM   51 ------------------------
     Tr[ns( 51)] =   9.70000
     eigenvalues:
       0.970  0.970  0.970  0.970  0.970
     eigenvectors (columns):
       1.000  0.000  0.000  0.000  0.000
       0.000  1.000  0.000  0.000  0.000
       0.000  0.000  1.000  0.000  0.000
       0.000  0.000  0.000  1.000  0.000
       0.000  0.000  0.000  0.000  1.000
     occupation matrix ns (before diag.):
       0.970  0.000  0.000  0.000  0.000
       0.000  0.970  0.000  0.000  0.000
       0.000  0.000  0.970  0.000  0.000
       0.000  0.000  0.000  0.970  0.000
       0.000  0.000  0.000  0.000  0.970
     ------------------------ ATOM   52 ------------------------
     Tr[ns( 52)] =   9.70000
     eigenvalues:
       0.970  0.970  0.970  0.970  0.970
     eigenvectors (columns):
       1.000  0.000  0.000  0.000  0.000
       0.000  1.000  0.000  0.000  0.000
       0.000  0.000  1.000  0.000  0.000
       0.000  0.000  0.000  1.000  0.000
       0.000  0.000  0.000  0.000  1.000
     occupation matrix ns (before diag.):
       0.970  0.000  0.000  0.000  0.000
       0.000  0.970  0.000  0.000  0.000
       0.000  0.000  0.970  0.000  0.000
       0.000  0.000  0.000  0.970  0.000
       0.000  0.000  0.000  0.000  0.970
     ------------------------ ATOM   57 ------------------------
     Tr[ns( 57)] =   9.70000
     eigenvalues:
       0.970  0.970  0.970  0.970  0.970
     eigenvectors (columns):
       1.000  0.000  0.000  0.000  0.000
       0.000  1.000  0.000  0.000  0.000
       0.000  0.000  1.000  0.000  0.000
       0.000  0.000  0.000  1.000  0.000
       0.000  0.000  0.000  0.000  1.000
     occupation matrix ns (before diag.):
       0.970  0.000  0.000  0.000  0.000
       0.000  0.970  0.000  0.000  0.000
       0.000  0.000  0.970  0.000  0.000
       0.000  0.000  0.000  0.970  0.000
       0.000  0.000  0.000  0.000  0.970
     ------------------------ ATOM   58 ------------------------
     Tr[ns( 58)] =   9.70000
     eigenvalues:
       0.970  0.970  0.970  0.970  0.970
     eigenvectors (columns):
       1.000  0.000  0.000  0.000  0.000
       0.000  1.000  0.000  0.000  0.000
       0.000  0.000  1.000  0.000  0.000
       0.000  0.000  0.000  1.000  0.000
       0.000  0.000  0.000  0.000  1.000
     occupation matrix ns (before diag.):
       0.970  0.000  0.000  0.000  0.000
       0.000  0.970  0.000  0.000  0.000
       0.000  0.000  0.970  0.000  0.000
       0.000  0.000  0.000  0.970  0.000
       0.000  0.000  0.000  0.000  0.970
     ------------------------ ATOM   59 ------------------------
     Tr[ns( 59)] =   9.70000
     eigenvalues:
       0.970  0.970  0.970  0.970  0.970
     eigenvectors (columns):
       1.000  0.000  0.000  0.000  0.000
       0.000  1.000  0.000  0.000  0.000
       0.000  0.000  1.000  0.000  0.000
       0.000  0.000  0.000  1.000  0.000
       0.000  0.000  0.000  0.000  1.000
     occupation matrix ns (before diag.):
       0.970  0.000  0.000  0.000  0.000
       0.000  0.970  0.000  0.000  0.000
       0.000  0.000  0.970  0.000  0.000
       0.000  0.000  0.000  0.970  0.000
       0.000  0.000  0.000  0.000  0.970
     ------------------------ ATOM   60 ------------------------
     Tr[ns( 60)] =   9.70000
     eigenvalues:
       0.970  0.970  0.970  0.970  0.970
     eigenvectors (columns):
       1.000  0.000  0.000  0.000  0.000
       0.000  1.000  0.000  0.000  0.000
       0.000  0.000  1.000  0.000  0.000
       0.000  0.000  0.000  1.000  0.000
       0.000  0.000  0.000  0.000  1.000
     occupation matrix ns (before diag.):
       0.970  0.000  0.000  0.000  0.000
       0.000  0.970  0.000  0.000  0.000
       0.000  0.000  0.970  0.000  0.000
       0.000  0.000  0.000  0.970  0.000
       0.000  0.000  0.000  0.000  0.970

     Number of occupied Hubbard levels =  310.4000

     Atomic wfc used for Hubbard projectors are orthogonalized

     Starting wfcs are  416 randomized atomic wfcs
     Checking if some PAW data can be deallocated... 
       PAW data deallocated on  560 nodes for type:  1
       PAW data deallocated on  560 nodes for type:  2

     total cpu time spent up to now is       18.2 secs

     Self-consistent Calculation

     iteration #  1     ecut=   105.00 Ry     beta= 0.70
     Davidson diagonalization with overlap

---- Real-time Memory Report at c_bands before calling an iterative solver
           441 MiB given to the printing process from OS
             0 MiB allocation reported by mallinfo(arena+hblkhd)
        219730 MiB available memory on the node where the printing process lives
------------------
     ethr =  1.00E-02,  avg # of iterations =  4.6

     =================== HUBBARD OCCUPATIONS ===================
     ------------------------ ATOM    1 ------------------------
     Tr[ns(  1)] =   9.97880
     eigenvalues:
       0.997  0.997  0.997  0.999  0.999
     eigenvectors (columns):
      -0.000 -0.000  0.000 -0.102 -0.995
      -0.349  0.135  0.927  0.000  0.000
      -0.609  0.720 -0.334  0.000  0.000
       0.000  0.000 -0.000  0.995 -0.102
       0.712  0.681  0.169 -0.000 -0.000
     occupation matrix ns (before diag.):
       0.999 -0.000 -0.000  0.000  0.000
      -0.000  0.997 -0.000  0.000  0.000
      -0.000 -0.000  0.997  0.000  0.000
       0.000  0.000  0.000  0.999 -0.000
       0.000  0.000  0.000 -0.000  0.997
     ------------------------ ATOM    2 ------------------------
     Tr[ns(  2)] =   9.97890
     eigenvalues:
       0.997  0.997  0.997  0.999  0.999
     eigenvectors (columns):
      -0.000 -0.001  0.000 -0.866 -0.500
      -0.088 -0.707 -0.702  0.001 -0.000
       0.992  0.000 -0.124  0.000 -0.000
       0.000 -0.000 -0.000 -0.500  0.866
       0.088 -0.707  0.702  0.001  0.000
     occupation matrix ns (before diag.):
       0.999 -0.000  0.000 -0.000 -0.000
      -0.000  0.997  0.000 -0.000 -0.000
       0.000  0.000  0.997 -0.000 -0.000
      -0.000 -0.000 -0.000  0.999 -0.000
      -0.000 -0.000 -0.000 -0.000  0.997
     ------------------------ ATOM    3 ------------------------
     Tr[ns(  3)] =   9.97890
     eigenvalues:
       0.997  0.997  0.997  0.999  0.999
     eigenvectors (columns):
      -0.000  0.001 -0.000 -0.866 -0.500
       0.992 -0.000  0.124  0.000 -0.000
      -0.088  0.707  0.702  0.001 -0.000
      -0.000 -0.000 -0.000  0.500 -0.866
       0.088  0.707 -0.702  0.001  0.000
     occupation matrix ns (before diag.):
       0.999  0.000 -0.000  0.000 -0.000
       0.000  0.997  0.000  0.000 -0.000
      -0.000  0.000  0.997  0.000 -0.000
       0.000  0.000  0.000  0.999  0.000
      -0.000 -0.000 -0.000  0.000  0.997
     ------------------------ ATOM    4 ------------------------
     Tr[ns(  4)] =   9.97890
     eigenvalues:
       0.997  0.997  0.997  0.999  0.999
     eigenvectors (columns):
      -0.000 -0.000 -0.000 -0.000 -1.000
       0.088 -0.707 -0.702 -0.001  0.000
       0.088  0.707 -0.702  0.001  0.000
       0.000 -0.001  0.000  1.000 -0.000
       0.992 -0.000  0.124 -0.000 -0.000
     occupation matrix ns (before diag.):
       0.999 -0.000 -0.000  0.000  0.000
      -0.000  0.997  0.000 -0.000 -0.000
      -0.000  0.000  0.997  0.000 -0.000
       0.000 -0.000  0.000  0.999 -0.000
       0.000 -0.000 -0.000 -0.000  0.997
     ------------------------ ATOM    9 ------------------------
     Tr[ns(  9)] =   9.97887
     eigenvalues:
       0.997  0.997  0.997  0.999  0.999
     eigenvectors (columns):
      -0.000  0.000 -0.000 -1.000  0.000
      -0.000  0.422 -0.907  0.000  0.000
      -0.000  0.907  0.422  0.000  0.000
       0.000 -0.000  0.000  0.000  1.000
       1.000  0.000 -0.000 -0.000 -0.000
     occupation matrix ns (before diag.):
       0.999 -0.000 -0.000  0.000  0.000
      -0.000  0.997 -0.000  0.000  0.000
      -0.000 -0.000  0.997  0.000  0.000
       0.000  0.000  0.000  0.999 -0.000
       0.000  0.000  0.000 -0.000  0.997
     ------------------------ ATOM   10 ------------------------
     Tr[ns( 10)] =   9.97890
     eigenvalues:
       0.997  0.997  0.997  0.999  0.999
     eigenvectors (columns):
      -0.000 -0.001  0.000 -0.866 -0.500
      -0.088 -0.707 -0.702  0.001 -0.000
      -0.992  0.000  0.124  0.000  0.000
       0.000 -0.000 -0.000 -0.500  0.866
      -0.088  0.707 -0.702 -0.001 -0.000
     occupation matrix ns (before diag.):
       0.999 -0.000 -0.000 -0.000  0.000
      -0.000  0.997 -0.000 -0.000  0.000
      -0.000 -0.000  0.997  0.000 -0.000
      -0.000 -0.000  0.000  0.999  0.000
       0.000  0.000 -0.000  0.000  0.997
     ------------------------ ATOM   11 ------------------------
     Tr[ns( 11)] =   9.97890
     eigenvalues:
       0.997  0.997  0.997  0.999  0.999
     eigenvectors (columns):
      -0.000 -0.001  0.000 -0.866 -0.500
      -0.992  0.000  0.124  0.000  0.000
      -0.088 -0.707 -0.702  0.001 -0.000
      -0.000  0.000  0.000  0.500 -0.866
      -0.088  0.707 -0.702 -0.001 -0.000
     occupation matrix ns (before diag.):
       0.999 -0.000 -0.000  0.000  0.000
      -0.000  0.997 -0.000 -0.000 -0.000
      -0.000 -0.000  0.997  0.000  0.000
       0.000 -0.000  0.000  0.999 -0.000
       0.000 -0.000  0.000 -0.000  0.997
     ------------------------ ATOM   12 ------------------------
     Tr[ns( 12)] =   9.97887
     eigenvalues:
       0.997  0.997  0.997  0.999  0.999
     eigenvectors (columns):
      -0.001 -0.003  0.000 -0.000  1.000
      -0.496  0.504 -0.707  0.001  0.001
      -0.496  0.504  0.707 -0.001  0.001
       0.000  0.000  0.002  1.000  0.000
       0.712  0.702 -0.000 -0.000  0.003
     occupation matrix ns (before diag.):
       0.999  0.000  0.000  0.000  0.000
       0.000  0.997 -0.000  0.000  0.000
       0.000 -0.000  0.997 -0.000  0.000
       0.000  0.000 -0.000  0.999 -0.000
       0.000  0.000  0.000 -0.000  0.997
     ------------------------ ATOM   17 ------------------------
     Tr[ns( 17)] =   9.97887
     eigenvalues:
       0.997  0.997  0.997  0.999  0.999
     eigenvectors (columns):
       0.000 -0.000 -0.000 -0.500  0.866
       1.000  0.000 -0.000 -0.000 -0.000
       0.000 -0.653  0.758 -0.000 -0.000
      -0.000  0.000  0.000 -0.866 -0.500
      -0.000  0.758  0.653  0.000  0.000
     occupation matrix ns (before diag.):
       0.999 -0.000 -0.000 -0.000  0.000
      -0.000  0.997 -0.000  0.000  0.000
      -0.000 -0.000  0.997  0.000  0.000
      -0.000  0.000  0.000  0.999 -0.000
       0.000  0.000  0.000 -0.000  0.997
     ------------------------ ATOM   18 ------------------------
     Tr[ns( 18)] =   9.97890
     eigenvalues:
       0.997  0.997  0.997  0.999  0.999
     eigenvectors (columns):
      -0.000  0.001 -0.000 -0.866 -0.500
       0.088 -0.707 -0.702 -0.001  0.000
      -0.992  0.000 -0.124  0.000  0.000
       0.000  0.000  0.000 -0.500  0.866
       0.088  0.707 -0.702  0.001  0.000
     occupation matrix ns (before diag.):
       0.999  0.000 -0.000 -0.000 -0.000
       0.000  0.997  0.000  0.000  0.000
      -0.000  0.000  0.997  0.000  0.000
      -0.000  0.000  0.000  0.999 -0.000
      -0.000  0.000  0.000 -0.000  0.997
     ------------------------ ATOM   19 ------------------------
     Tr[ns( 19)] =   9.97887
     eigenvalues:
       0.997  0.997  0.997  0.999  0.999
     eigenvectors (columns):
      -0.000 -0.001 -0.001  0.866  0.500
       0.712  0.702 -0.000 -0.000  0.003
       0.496 -0.504  0.707  0.001 -0.001
      -0.001 -0.003  0.001 -0.500  0.866
      -0.496  0.504  0.707  0.001  0.001
     occupation matrix ns (before diag.):
       0.999  0.000  0.000  0.000  0.000
       0.000  0.997 -0.000  0.000  0.000
       0.000 -0.000  0.997 -0.000  0.000
       0.000  0.000 -0.000  0.999  0.000
       0.000  0.000  0.000  0.000  0.997
     ------------------------ ATOM   20 ------------------------
     Tr[ns( 20)] =   9.97890
     eigenvalues:
       0.997  0.997  0.997  0.999  0.999
     eigenvectors (columns):
       0.000 -0.000  0.000  0.000 -1.000
       0.088 -0.707 -0.702 -0.001 -0.000
      -0.088 -0.707  0.702 -0.001  0.000
       0.000  0.001  0.000 -1.000 -0.000
       0.992 -0.000  0.124  0.000  0.000
     occupation matrix ns (before diag.):
       0.999  0.000 -0.000  0.000 -0.000
       0.000  0.997 -0.000  0.000 -0.000
      -0.000 -0.000  0.997  0.000  0.000
       0.000  0.000  0.000  0.999 -0.000
      -0.000 -0.000  0.000 -0.000  0.997
     ------------------------ ATOM   25 ------------------------
     Tr[ns( 25)] =   9.97892
     eigenvalues:
       0.997  0.997  0.997  0.999  0.999
     eigenvectors (columns):
      -0.000 -0.000 -0.000  0.500 -0.866
      -0.382 -0.924  0.000 -0.000  0.000
      -0.000 -0.000 -1.000 -0.000  0.000
       0.000  0.000  0.000 -0.866 -0.500
       0.924 -0.382 -0.000  0.000  0.000
     occupation matrix ns (before diag.):
       0.999 -0.000 -0.000  0.000  0.000
      -0.000  0.997 -0.000  0.000  0.000
      -0.000 -0.000  0.997  0.000  0.000
       0.000  0.000  0.000  0.999 -0.000
       0.000  0.000  0.000 -0.000  0.997
     ------------------------ ATOM   26 ------------------------
     Tr[ns( 26)] =   9.97890
     eigenvalues:
       0.997  0.997  0.997  0.999  0.999
     eigenvectors (columns):
      -0.000  0.001 -0.000 -0.866 -0.500
       0.088 -0.707 -0.702 -0.001  0.000
       0.992 -0.000  0.124  0.000 -0.000
       0.000  0.000  0.000 -0.500  0.866
      -0.088 -0.707  0.702 -0.001 -0.000
     occupation matrix ns (before diag.):
       0.999  0.000  0.000 -0.000  0.000
       0.000  0.997 -0.000  0.000 -0.000
       0.000 -0.000  0.997 -0.000  0.000
      -0.000  0.000 -0.000  0.999  0.000
       0.000 -0.000  0.000  0.000  0.997
     ------------------------ ATOM   27 ------------------------
     Tr[ns( 27)] =   9.97887
     eigenvalues:
       0.997  0.997  0.997  0.999  0.999
     eigenvectors (columns):
      -0.000 -0.001 -0.001  0.866  0.500
      -0.712 -0.702 -0.000 -0.000 -0.003
       0.496 -0.504  0.707  0.001 -0.001
      -0.001 -0.003  0.001 -0.500  0.866
       0.496 -0.504 -0.707 -0.001 -0.001
     occupation matrix ns (before diag.):
       0.999 -0.000  0.000  0.000 -0.000
      -0.000  0.997  0.000 -0.000  0.000
       0.000  0.000  0.997 -0.000 -0.000
       0.000 -0.000 -0.000  0.999 -0.000
      -0.000  0.000 -0.000 -0.000  0.997
     ------------------------ ATOM   28 ------------------------
     Tr[ns( 28)] =   9.97887
     eigenvalues:
       0.997  0.997  0.997  0.999  0.999
     eigenvectors (columns):
      -0.001 -0.003  0.000  0.000  1.000
       0.496 -0.504  0.707 -0.001 -0.001
      -0.496  0.504  0.707 -0.001  0.001
      -0.000  0.000  0.002  1.000 -0.000
      -0.712 -0.702  0.000 -0.000 -0.003
     occupation matrix ns (before diag.):
       0.999 -0.000  0.000  0.000 -0.000
      -0.000  0.997  0.000 -0.000  0.000
       0.000  0.000  0.997 -0.000 -0.000
       0.000 -0.000 -0.000  0.999 -0.000
      -0.000  0.000 -0.000 -0.000  0.997
     ------------------------ ATOM   33 ------------------------
     Tr[ns( 33)] =   9.97887
     eigenvalues:
       0.997  0.997  0.997  0.999  0.999
     eigenvectors (columns):
      -0.000 -0.000 -0.000  0.500 -0.866
      -0.000 -0.336 -0.942 -0.000  0.000
      -1.000  0.000  0.000 -0.000  0.000
       0.000  0.000  0.000 -0.866 -0.500
       0.000  0.942 -0.336  0.000  0.000
     occupation matrix ns (before diag.):
       0.999 -0.000 -0.000  0.000  0.000
      -0.000  0.997 -0.000  0.000  0.000
      -0.000 -0.000  0.997  0.000  0.000
       0.000  0.000  0.000  0.999 -0.000
       0.000  0.000  0.000 -0.000  0.997
     ------------------------ ATOM   34 ------------------------
     Tr[ns( 34)] =   9.97887
     eigenvalues:
       0.997  0.997  0.997  0.999  0.999
     eigenvectors (columns):
      -0.000 -0.001 -0.001  0.866  0.500
       0.496 -0.504  0.707  0.001 -0.001
       0.712  0.702 -0.000 -0.000  0.003
       0.001  0.003 -0.001  0.500 -0.866
      -0.496  0.504  0.707  0.001  0.001
     occupation matrix ns (before diag.):
       0.999  0.000  0.000 -0.000  0.000
       0.000  0.997 -0.000  0.000  0.000
       0.000 -0.000  0.997 -0.000  0.000
      -0.000  0.000 -0.000  0.999 -0.000
       0.000  0.000  0.000 -0.000  0.997
     ------------------------ ATOM   35 ------------------------
     Tr[ns( 35)] =   9.97890
     eigenvalues:
       0.997  0.997  0.997  0.999  0.999
     eigenvectors (columns):
      -0.000 -0.001  0.000 -0.866 -0.500
      -0.992 -0.000  0.124  0.000  0.000
       0.088  0.707  0.702 -0.001  0.000
      -0.000  0.000  0.000  0.500 -0.866
       0.088 -0.707  0.702  0.001  0.000
     occupation matrix ns (before diag.):
       0.999 -0.000  0.000  0.000 -0.000
      -0.000  0.997  0.000 -0.000  0.000
       0.000  0.000  0.997 -0.000  0.000
       0.000 -0.000 -0.000  0.999  0.000
      -0.000  0.000  0.000  0.000  0.997
     ------------------------ ATOM   36 ------------------------
     Tr[ns( 36)] =   9.97890
     eigenvalues:
       0.997  0.997  0.997  0.999  0.999
     eigenvectors (columns):
       0.000  0.000  0.000  0.000  1.000
      -0.088  0.707  0.702 -0.001 -0.000
       0.088  0.707 -0.702 -0.001  0.000
       0.000  0.001  0.000  1.000 -0.000
       0.992  0.000  0.124 -0.000 -0.000
     occupation matrix ns (before diag.):
       0.999 -0.000  0.000  0.000 -0.000
      -0.000  0.997 -0.000 -0.000  0.000
       0.000 -0.000  0.997 -0.000 -0.000
       0.000 -0.000 -0.000  0.999 -0.000
      -0.000  0.000 -0.000 -0.000  0.997
     ------------------------ ATOM   41 ------------------------
     Tr[ns( 41)] =   9.97892
     eigenvalues:
       0.997  0.997  0.997  0.999  0.999
     eigenvectors (columns):
      -0.000 -0.000  0.000 -0.500  0.866
      -0.000 -0.000  1.000 -0.000 -0.000
      -0.678  0.735 -0.000 -0.000 -0.000
       0.000  0.000 -0.000 -0.866 -0.500
       0.735  0.678  0.000  0.000  0.000
     occupation matrix ns (before diag.):
       0.999 -0.000 -0.000 -0.000  0.000
      -0.000  0.997 -0.000  0.000  0.000
      -0.000 -0.000  0.997  0.000  0.000
      -0.000  0.000  0.000  0.999 -0.000
       0.000  0.000  0.000 -0.000  0.997
     ------------------------ ATOM   42 ------------------------
     Tr[ns( 42)] =   9.97887
     eigenvalues:
       0.997  0.997  0.997  0.999  0.999
     eigenvectors (columns):
      -0.000 -0.001 -0.001  0.866  0.500
       0.496 -0.504  0.707  0.001 -0.001
      -0.712 -0.702 -0.000  0.000 -0.003
       0.001  0.003 -0.001  0.500 -0.866
       0.496 -0.504 -0.707 -0.001 -0.001
     occupation matrix ns (before diag.):
       0.999  0.000 -0.000 -0.000 -0.000
       0.000  0.997  0.000  0.000 -0.000
      -0.000  0.000  0.997  0.000  0.000
      -0.000  0.000  0.000  0.999  0.000
      -0.000 -0.000  0.000  0.000  0.997
     ------------------------ ATOM   43 ------------------------
     Tr[ns( 43)] =   9.97890
     eigenvalues:
       0.997  0.997  0.997  0.999  0.999
     eigenvectors (columns):
      -0.000  0.001 -0.000 -0.866 -0.500
       0.992 -0.000  0.124  0.000 -0.000
       0.088 -0.707 -0.702 -0.001  0.000
      -0.000 -0.000 -0.000  0.500 -0.866
      -0.088 -0.707  0.702 -0.001 -0.000
     occupation matrix ns (before diag.):
       0.999  0.000  0.000  0.000  0.000
       0.000  0.997 -0.000  0.000  0.000
       0.000 -0.000  0.997 -0.000 -0.000
       0.000  0.000 -0.000  0.999 -0.000
       0.000  0.000 -0.000 -0.000  0.997
     ------------------------ ATOM   44 ------------------------
     Tr[ns( 44)] =   9.97887
     eigenvalues:
       0.997  0.997  0.997  0.999  0.999
     eigenvectors (columns):
       0.001  0.003  0.000 -0.000 -1.000
       0.496 -0.504  0.707  0.001 -0.001
      -0.496  0.504  0.707  0.001  0.001
       0.000  0.000 -0.002  1.000 -0.000
       0.712  0.702  0.000 -0.000  0.003
     occupation matrix ns (before diag.):
       0.999  0.000 -0.000  0.000 -0.000
       0.000  0.997  0.000  0.000 -0.000
      -0.000  0.000  0.997  0.000  0.000
       0.000  0.000  0.000  0.999 -0.000
      -0.000 -0.000  0.000 -0.000  0.997
     ------------------------ ATOM   49 ------------------------
     Tr[ns( 49)] =   9.97892
     eigenvalues:
       0.997  0.997  0.997  0.999  0.999
     eigenvectors (columns):
       0.000 -0.000  0.000 -1.000 -0.000
       0.374 -0.927 -0.000  0.000  0.000
       0.927  0.374 -0.000  0.000  0.000
      -0.000  0.000 -0.000 -0.000  1.000
      -0.000  0.000 -1.000 -0.000 -0.000
     occupation matrix ns (before diag.):
       0.999 -0.000 -0.000  0.000  0.000
      -0.000  0.997 -0.000  0.000  0.000
      -0.000 -0.000  0.997  0.000  0.000
       0.000  0.000  0.000  0.999 -0.000
       0.000  0.000  0.000 -0.000  0.997
     ------------------------ ATOM   50 ------------------------
     Tr[ns( 50)] =   9.97887
     eigenvalues:
       0.997  0.997  0.997  0.999  0.999
     eigenvectors (columns):
      -0.000 -0.001 -0.001  0.866  0.500
      -0.496  0.504 -0.707 -0.001  0.001
      -0.712 -0.702  0.000  0.000 -0.003
       0.001  0.003 -0.001  0.500 -0.866
      -0.496  0.504  0.707  0.001  0.001
     occupation matrix ns (before diag.):
       0.999 -0.000 -0.000 -0.000  0.000
      -0.000  0.997 -0.000 -0.000 -0.000
      -0.000 -0.000  0.997  0.000 -0.000
      -0.000 -0.000  0.000  0.999 -0.000
       0.000 -0.000 -0.000 -0.000  0.997
     ------------------------ ATOM   51 ------------------------
     Tr[ns( 51)] =   9.97887
     eigenvalues:
       0.997  0.997  0.997  0.999  0.999
     eigenvectors (columns):
      -0.000 -0.001 -0.001  0.866  0.500
      -0.712 -0.702  0.000 -0.000 -0.003
      -0.496  0.504 -0.707 -0.001  0.001
      -0.001 -0.003  0.001 -0.500  0.866
      -0.496  0.504  0.707  0.001  0.001
     occupation matrix ns (before diag.):
       0.999 -0.000 -0.000  0.000  0.000
      -0.000  0.997 -0.000 -0.000 -0.000
      -0.000 -0.000  0.997  0.000 -0.000
       0.000 -0.000  0.000  0.999  0.000
       0.000 -0.000 -0.000  0.000  0.997
     ------------------------ ATOM   52 ------------------------
     Tr[ns( 52)] =   9.97890
     eigenvalues:
       0.997  0.997  0.997  0.999  0.999
     eigenvectors (columns):
      -0.000 -0.000 -0.000 -0.000  1.000
      -0.088 -0.707  0.702  0.001  0.000
      -0.088  0.707  0.702 -0.001  0.000
       0.000  0.001 -0.000  1.000  0.000
       0.992  0.000  0.124 -0.000  0.000
     occupation matrix ns (before diag.):
       0.999  0.000  0.000  0.000  0.000
       0.000  0.997  0.000  0.000  0.000
       0.000  0.000  0.997 -0.000  0.000
       0.000  0.000 -0.000  0.999 -0.000
       0.000  0.000  0.000 -0.000  0.997
     ------------------------ ATOM   57 ------------------------
     Tr[ns( 57)] =   9.97903
     eigenvalues:
       0.997  0.997  0.997  0.999  0.999
     eigenvectors (columns):
      -0.000 -0.000  0.000 -0.041 -0.999
      -0.347  0.153  0.925  0.000  0.000
      -0.587  0.735 -0.341  0.000  0.000
       0.000  0.000 -0.000  0.999 -0.041
       0.732  0.661  0.165 -0.000 -0.000
     occupation matrix ns (before diag.):
       0.999 -0.000 -0.000  0.000  0.000
      -0.000  0.997 -0.000  0.000  0.000
      -0.000 -0.000  0.997  0.000  0.000
       0.000  0.000  0.000  0.999 -0.000
       0.000  0.000  0.000 -0.000  0.997
     ------------------------ ATOM   58 ------------------------
     Tr[ns( 58)] =   9.97887
     eigenvalues:
       0.997  0.997  0.997  0.999  0.999
     eigenvectors (columns):
      -0.000 -0.001 -0.001  0.866  0.500
      -0.496  0.504 -0.707 -0.001  0.001
       0.712  0.702 -0.000 -0.000  0.003
       0.001  0.003 -0.001  0.500 -0.866
       0.496 -0.504 -0.707 -0.001 -0.001
     occupation matrix ns (before diag.):
       0.999 -0.000  0.000 -0.000 -0.000
      -0.000  0.997  0.000 -0.000  0.000
       0.000  0.000  0.997 -0.000 -0.000
      -0.000 -0.000 -0.000  0.999  0.000
      -0.000  0.000 -0.000  0.000  0.997
     ------------------------ ATOM   59 ------------------------
     Tr[ns( 59)] =   9.97887
     eigenvalues:
       0.997  0.997  0.997  0.999  0.999
     eigenvectors (columns):
      -0.000 -0.001 -0.001  0.866  0.500
       0.712  0.702 -0.000 -0.000  0.003
      -0.496  0.504 -0.707 -0.001  0.001
      -0.001 -0.003  0.001 -0.500  0.866
       0.496 -0.504 -0.707 -0.001 -0.001
     occupation matrix ns (before diag.):
       0.999  0.000 -0.000  0.000 -0.000
       0.000  0.997  0.000  0.000 -0.000
      -0.000  0.000  0.997  0.000  0.000
       0.000  0.000  0.000  0.999 -0.000
      -0.000 -0.000  0.000 -0.000  0.997
     ------------------------ ATOM   60 ------------------------
     Tr[ns( 60)] =   9.97887
     eigenvalues:
       0.997  0.997  0.997  0.999  0.999
     eigenvectors (columns):
       0.001  0.003  0.000 -0.000 -1.000
      -0.496  0.504  0.707  0.001  0.001
      -0.496  0.504 -0.707 -0.001  0.001
      -0.000 -0.000  0.002 -1.000  0.000
      -0.712 -0.702 -0.000  0.000 -0.003
     occupation matrix ns (before diag.):
       0.999 -0.000 -0.000  0.000  0.000
      -0.000  0.997 -0.000 -0.000 -0.000
      -0.000 -0.000  0.997  0.000 -0.000
       0.000 -0.000  0.000  0.999 -0.000
       0.000 -0.000 -0.000 -0.000  0.997

     Number of occupied Hubbard levels =  319.3245

     Threshold (ethr) on eigenvalues was too large:
     Diagonalizing with lowered threshold

     Davidson diagonalization with overlap

---- Real-time Memory Report at c_bands before calling an iterative solver
           507 MiB given to the printing process from OS
             0 MiB allocation reported by mallinfo(arena+hblkhd)
        219307 MiB available memory on the node where the printing process lives
------------------
     ethr =  3.53E-04,  avg # of iterations =  3.9

     =================== HUBBARD OCCUPATIONS ===================
     ------------------------ ATOM    1 ------------------------
     Tr[ns(  1)] =   9.97581
     eigenvalues:
       0.997  0.997  0.997  0.999  0.999
     eigenvectors (columns):
      -0.000  0.000  0.000 -0.082 -0.997
      -0.350 -0.012  0.937  0.000  0.000
      -0.618 -0.749 -0.240  0.000  0.000
       0.000 -0.000 -0.000  0.997 -0.082
       0.704 -0.663  0.254 -0.000 -0.000
     occupation matrix ns (before diag.):
       0.999 -0.000 -0.000  0.000  0.000
      -0.000  0.997 -0.000  0.000  0.000
      -0.000 -0.000  0.997  0.000  0.000
       0.000  0.000  0.000  0.999 -0.000
       0.000  0.000  0.000 -0.000  0.997
     ------------------------ ATOM    2 ------------------------
     Tr[ns(  2)] =   9.97591
     eigenvalues:
       0.997  0.997  0.997  0.999  0.999
     eigenvectors (columns):
       0.000  0.001  0.000  0.866  0.500
       0.093  0.707 -0.701 -0.000  0.000
      -0.991 -0.000 -0.132 -0.000  0.000
      -0.000  0.000 -0.000  0.500 -0.866
      -0.093  0.707  0.701 -0.000 -0.000
     occupation matrix ns (before diag.):
       0.999 -0.000  0.000 -0.000 -0.000
      -0.000  0.997  0.000 -0.000 -0.000
       0.000  0.000  0.997 -0.000 -0.000
      -0.000 -0.000 -0.000  0.999  0.000
      -0.000 -0.000 -0.000  0.000  0.997
     ------------------------ ATOM    3 ------------------------
     Tr[ns(  3)] =   9.97591
     eigenvalues:
       0.997  0.997  0.997  0.999  0.999
     eigenvectors (columns):
       0.000 -0.001 -0.000  0.866  0.500
      -0.991  0.000  0.132 -0.000  0.000
       0.093 -0.707  0.701 -0.000  0.000
       0.000  0.000 -0.000 -0.500  0.866
      -0.093 -0.707 -0.701 -0.000 -0.000
     occupation matrix ns (before diag.):
       0.999  0.000 -0.000  0.000 -0.000
       0.000  0.997  0.000  0.000 -0.000
      -0.000  0.000  0.997  0.000 -0.000
       0.000  0.000  0.000  0.999 -0.000
      -0.000 -0.000 -0.000 -0.000  0.997
     ------------------------ ATOM    4 ------------------------
     Tr[ns(  4)] =   9.97591
     eigenvalues:
       0.997  0.997  0.997  0.999  0.999
     eigenvectors (columns):
      -0.000 -0.000 -0.000 -0.000 -1.000
       0.093 -0.707 -0.701 -0.000  0.000
       0.093  0.707 -0.701  0.000  0.000
       0.000 -0.001  0.000  1.000 -0.000
       0.991 -0.000  0.132 -0.000 -0.000
     occupation matrix ns (before diag.):
       0.999 -0.000 -0.000  0.000  0.000
      -0.000  0.997  0.000 -0.000 -0.000
      -0.000  0.000  0.997  0.000 -0.000
       0.000 -0.000  0.000  0.999 -0.000
       0.000 -0.000 -0.000 -0.000  0.997
     ------------------------ ATOM    9 ------------------------
     Tr[ns(  9)] =   9.97588
     eigenvalues:
       0.997  0.997  0.997  0.999  0.999
     eigenvectors (columns):
      -0.000  0.000 -0.000 -1.000  0.000
      -0.000  0.429 -0.903  0.000  0.000
      -0.000  0.903  0.429  0.000  0.000
       0.000 -0.000  0.000  0.000  1.000
       1.000  0.000 -0.000 -0.000 -0.000
     occupation matrix ns (before diag.):
       0.999 -0.000 -0.000  0.000  0.000
      -0.000  0.997 -0.000  0.000  0.000
      -0.000 -0.000  0.997  0.000  0.000
       0.000  0.000  0.000  0.999 -0.000
       0.000  0.000  0.000 -0.000  0.997
     ------------------------ ATOM   10 ------------------------
     Tr[ns( 10)] =   9.97591
     eigenvalues:
       0.997  0.997  0.997  0.999  0.999
     eigenvectors (columns):
       0.000  0.001  0.000  0.866  0.500
       0.093  0.707 -0.701 -0.000  0.000
       0.991 -0.000  0.132 -0.000 -0.000
      -0.000  0.000 -0.000  0.500 -0.866
       0.093 -0.707 -0.701  0.000  0.000
     occupation matrix ns (before diag.):
       0.999 -0.000 -0.000 -0.000  0.000
      -0.000  0.997 -0.000 -0.000  0.000
      -0.000 -0.000  0.997  0.000 -0.000
      -0.000 -0.000  0.000  0.999 -0.000
       0.000  0.000 -0.000 -0.000  0.997
     ------------------------ ATOM   11 ------------------------
     Tr[ns( 11)] =   9.97591
     eigenvalues:
       0.997  0.997  0.997  0.999  0.999
     eigenvectors (columns):
       0.000  0.001  0.000  0.866  0.500
       0.991 -0.000  0.132 -0.000 -0.000
       0.093  0.707 -0.701 -0.000  0.000
       0.000 -0.000  0.000 -0.500  0.866
       0.093 -0.707 -0.701  0.000  0.000
     occupation matrix ns (before diag.):
       0.999 -0.000 -0.000  0.000  0.000
      -0.000  0.997 -0.000 -0.000 -0.000
      -0.000 -0.000  0.997  0.000  0.000
       0.000 -0.000  0.000  0.999  0.000
       0.000 -0.000  0.000  0.000  0.997
     ------------------------ ATOM   12 ------------------------
     Tr[ns( 12)] =   9.97588
     eigenvalues:
       0.997  0.997  0.997  0.999  0.999
     eigenvectors (columns):
      -0.001  0.003 -0.000  0.000  1.000
      -0.570 -0.419 -0.707  0.001  0.001
      -0.570 -0.419  0.707 -0.001  0.001
       0.000 -0.000  0.002  1.000 -0.000
       0.592 -0.806 -0.000 -0.000  0.003
     occupation matrix ns (before diag.):
       0.999  0.000  0.000  0.000  0.000
       0.000  0.997 -0.000  0.000  0.000
       0.000 -0.000  0.997 -0.000  0.000
       0.000  0.000 -0.000  0.999 -0.000
       0.000  0.000  0.000 -0.000  0.997
     ------------------------ ATOM   17 ------------------------
     Tr[ns( 17)] =   9.97588
     eigenvalues:
       0.997  0.997  0.997  0.999  0.999
     eigenvectors (columns):
       0.000 -0.000 -0.000 -0.500  0.866
       1.000  0.000 -0.000 -0.000 -0.000
       0.000 -0.641  0.768 -0.000 -0.000
      -0.000  0.000  0.000 -0.866 -0.500
      -0.000  0.768  0.641  0.000  0.000
     occupation matrix ns (before diag.):
       0.999 -0.000 -0.000 -0.000  0.000
      -0.000  0.997 -0.000  0.000  0.000
      -0.000 -0.000  0.997  0.000  0.000
      -0.000  0.000  0.000  0.999 -0.000
       0.000  0.000  0.000 -0.000  0.997
     ------------------------ ATOM   18 ------------------------
     Tr[ns( 18)] =   9.97591
     eigenvalues:
       0.997  0.997  0.997  0.999  0.999
     eigenvectors (columns):
       0.000 -0.001 -0.000  0.866  0.500
      -0.093  0.707 -0.701  0.000 -0.000
       0.991 -0.000 -0.132 -0.000 -0.000
      -0.000 -0.000  0.000  0.500 -0.866
      -0.093 -0.707 -0.701 -0.000 -0.000
     occupation matrix ns (before diag.):
       0.999  0.000 -0.000 -0.000 -0.000
       0.000  0.997  0.000  0.000  0.000
      -0.000  0.000  0.997  0.000  0.000
      -0.000  0.000  0.000  0.999  0.000
      -0.000  0.000  0.000  0.000  0.997
     ------------------------ ATOM   19 ------------------------
     Tr[ns( 19)] =   9.97588
     eigenvalues:
       0.997  0.997  0.997  0.999  0.999
     eigenvectors (columns):
      -0.000 -0.001 -0.002  0.866  0.500
       0.592  0.806 -0.000 -0.000  0.003
       0.570 -0.419  0.707  0.001 -0.001
      -0.001 -0.003  0.001 -0.500  0.866
      -0.570  0.419  0.707  0.001  0.001
     occupation matrix ns (before diag.):
       0.999  0.000  0.000  0.000  0.000
       0.000  0.997 -0.000  0.000  0.000
       0.000 -0.000  0.997 -0.000  0.000
       0.000  0.000 -0.000  0.999  0.000
       0.000  0.000  0.000  0.000  0.997
     ------------------------ ATOM   20 ------------------------
     Tr[ns( 20)] =   9.97591
     eigenvalues:
       0.997  0.997  0.997  0.999  0.999
     eigenvectors (columns):
       0.000  0.000  0.000  0.000 -1.000
       0.093  0.707 -0.701  0.000 -0.000
      -0.093  0.707  0.701  0.000  0.000
       0.000 -0.001  0.000  1.000  0.000
       0.991  0.000  0.132 -0.000  0.000
     occupation matrix ns (before diag.):
       0.999  0.000 -0.000  0.000 -0.000
       0.000  0.997 -0.000  0.000 -0.000
      -0.000 -0.000  0.997  0.000  0.000
       0.000  0.000  0.000  0.999 -0.000
      -0.000 -0.000  0.000 -0.000  0.997
     ------------------------ ATOM   25 ------------------------
     Tr[ns( 25)] =   9.97593
     eigenvalues:
       0.997  0.997  0.997  0.999  0.999
     eigenvectors (columns):
       0.000 -0.000 -0.000 -0.866  0.500
       0.000 -0.364 -0.931  0.000 -0.000
       1.000  0.000  0.000  0.000 -0.000
      -0.000  0.000  0.000 -0.500 -0.866
      -0.000  0.931 -0.364  0.000  0.000
     occupation matrix ns (before diag.):
       0.999 -0.000 -0.000 -0.000  0.000
      -0.000  0.997 -0.000  0.000  0.000
      -0.000 -0.000  0.997  0.000  0.000
      -0.000  0.000  0.000  0.999 -0.000
       0.000  0.000  0.000 -0.000  0.997
     ------------------------ ATOM   26 ------------------------
     Tr[ns( 26)] =   9.97591
     eigenvalues:
       0.997  0.997  0.997  0.999  0.999
     eigenvectors (columns):
       0.000 -0.001 -0.000  0.866  0.500
      -0.093  0.707 -0.701  0.000 -0.000
      -0.991  0.000  0.132 -0.000  0.000
      -0.000 -0.000  0.000  0.500 -0.866
       0.093  0.707  0.701  0.000  0.000
     occupation matrix ns (before diag.):
       0.999  0.000  0.000 -0.000  0.000
       0.000  0.997 -0.000  0.000 -0.000
       0.000 -0.000  0.997 -0.000  0.000
      -0.000  0.000 -0.000  0.999 -0.000
       0.000 -0.000  0.000 -0.000  0.997
     ------------------------ ATOM   27 ------------------------
     Tr[ns( 27)] =   9.97588
     eigenvalues:
       0.997  0.997  0.997  0.999  0.999
     eigenvectors (columns):
      -0.000 -0.001 -0.002  0.866  0.500
      -0.592 -0.806 -0.000 -0.000 -0.003
[...]
     1.0000   1.0000   1.0000   1.0000   1.0000   1.0000   1.0000   1.0000
     1.0000   1.0000   1.0000   1.0000   1.0000   1.0000   1.0000   1.0000
     1.0000   1.0000   1.0000   1.0000   1.0000   1.0000   1.0000   1.0000
     1.0000   1.0000   1.0000   1.0000   1.0000   1.0000   1.0000   1.0000
     1.0000   1.0000   1.0000   1.0000   1.0000   1.0000   1.0000   1.0000
     1.0000   1.0000   1.0000   1.0000   1.0000   1.0000   1.0000   1.0000
     1.0000   1.0000   1.0000   1.0000   1.0000   1.0000   1.0000   1.0000
     1.0000   1.0000   1.0000   1.0000   1.0000   1.0000   1.0000   1.0000
     1.0000   1.0000   1.0000   1.0000   1.0000   1.0000   1.0000   1.0000
     1.0000   1.0000   1.0000   1.0000   1.0000   1.0000   1.0000   1.0000
     1.0000   1.0000   1.0000   1.0000   1.0000   1.0000   1.0000   1.0000
     1.0000   1.0000   1.0000   1.0000   1.0000   1.0000   1.0000   1.0000
     1.0000   1.0000   1.0000   1.0000   1.0000   1.0000   1.0000   1.0000
     1.0000   1.0000   1.0000   1.0000   1.0000   1.0000   1.0000   1.0000
     1.0000   1.0000   1.0000   1.0000   1.0000   1.0000   1.0000   1.0000
     1.0000   1.0000   1.0000   1.0000   1.0000   1.0000   1.0000   1.0000
     1.0000   1.0000   1.0000   1.0000   1.0000   1.0000   1.0000   1.0000
     1.0000   1.0000   1.0000   1.0000   1.0000   1.0000   1.0000   1.0000
     0.0000   0.0000   0.0000   0.0000   0.0000   0.0000   0.0000   0.0000
     0.0000   0.0000   0.0000   0.0000   0.0000   0.0000   0.0000   0.0000
     0.0000   0.0000   0.0000   0.0000   0.0000   0.0000   0.0000   0.0000
     0.0000   0.0000   0.0000   0.0000   0.0000   0.0000   0.0000   0.0000
     0.0000   0.0000   0.0000   0.0000   0.0000   0.0000   0.0000   0.0000
     0.0000   0.0000   0.0000   0.0000   0.0000   0.0000   0.0000   0.0000
     0.0000   0.0000   0.0000   0.0000   0.0000   0.0000   0.0000   0.0000
     0.0000

          k = 0.2500-0.5000-0.5000 (158052 PWs)   bands (ev):

    -7.1740  -7.1739  -7.1739  -7.1739  -6.9868  -6.9868  -6.9868  -6.9868
    -6.7199  -6.7199  -6.7198  -6.7198  -6.6108  -6.6108  -6.6108  -6.6108
    -6.6108  -6.6108  -6.6107  -6.6107  -6.6036  -6.6036  -6.6035  -6.6035
    -6.6035  -6.6035  -6.6035  -6.6035  -6.5326  -6.5326  -6.5326  -6.5326
    -3.1698  -3.1698  -3.1698  -3.1698  -3.1631  -3.1630  -3.1630  -3.1630
    -3.1511  -3.1510  -3.1510  -3.1510  -3.1427  -3.1427  -3.1427  -3.1427
    -3.1190  -3.1190  -3.1190  -3.1190  -3.1121  -3.1121  -3.1121  -3.1121
    -3.1121  -3.1121  -3.1121  -3.1120  -3.0966  -3.0966  -3.0966  -3.0966
    -3.0902  -3.0901  -3.0901  -3.0901  -3.0901  -3.0901  -3.0901  -3.0901
    -3.0881  -3.0881  -3.0881  -3.0880  -3.0866  -3.0866  -3.0865  -3.0865
    -3.0695  -3.0695  -3.0695  -3.0695  -3.0695  -3.0694  -3.0694  -3.0694
    -3.0480  -3.0479  -3.0479  -3.0479  -3.0479  -3.0479  -3.0479  -3.0478
    -3.0268  -3.0268  -3.0267  -3.0267  -2.9979  -2.9979  -2.9979  -2.9979
    -2.9978  -2.9978  -2.9978  -2.9978  -2.9824  -2.9823  -2.9823  -2.9823
    -2.9742  -2.9741  -2.9741  -2.9740  -2.9648  -2.9648  -2.9648  -2.9647
    -2.9545  -2.9545  -2.9544  -2.9544  -2.9544  -2.9544  -2.9544  -2.9544
    -2.9338  -2.9336  -2.9336  -2.9336  -2.9158  -2.9157  -2.9157  -2.9157
    -2.9118  -2.9118  -2.9118  -2.9117  -2.9071  -2.9069  -2.9069  -2.9069
    -2.8931  -2.8931  -2.8930  -2.8930  -2.8930  -2.8929  -2.8929  -2.8929
    -2.8866  -2.8865  -2.8865  -2.8865  -2.8845  -2.8844  -2.8844  -2.8843
    -2.8789  -2.8788  -2.8788  -2.8788  -2.8787  -2.8787  -2.8787  -2.8787
    -2.6567  -2.6566  -2.6566  -2.6566  -2.5547  -2.5547  -2.5547  -2.5547
    -2.5547  -2.5546  -2.5546  -2.5546  -2.4595  -2.4595  -2.4595  -2.4595
    -2.4595  -2.4594  -2.4594  -2.4594  -2.3941  -2.3940  -2.3940  -2.3940
     0.8123   0.8123   0.8124   0.8124   0.8124   0.8124   0.8124   0.8124
     0.9370   0.9370   0.9370   0.9370   1.1916   1.1916   1.1916   1.1916
     1.1926   1.1927   1.1927   1.1927   1.1927   1.1927   1.1927   1.1927
     1.9915   1.9915   1.9915   1.9915   2.6060   2.6060   2.6060   2.6060
     3.0757   3.0757   3.0757   3.0758   3.1080   3.1080   3.1080   3.1080
     3.1080   3.1080   3.1080   3.1080   3.1105   3.1105   3.1105   3.1105
     3.1106   3.1106   3.1106   3.1106   3.6912   3.6912   3.6912   3.6912
     3.7138   3.7138   3.7138   3.7138   3.7138   3.7138   3.7138   3.7138
     3.7539   3.7539   3.7539   3.7539   3.9945   3.9945   3.9945   3.9945
     3.9946   3.9946   3.9946   3.9946   4.1170   4.1170   4.1170   4.1170
     4.6780   4.6780   4.6781   4.6781   4.7616   4.7617   4.7617   4.7617
     4.7705   4.7706   4.7706   4.7706   5.1183   5.1183   5.1184   5.1184
     9.0612   9.0613   9.0613   9.0613   9.1702   9.1703   9.1703   9.1703
     9.7373   9.7373   9.7373   9.7373   9.8721   9.8721   9.8722   9.8722
     9.9140   9.9140   9.9140   9.9140   9.9140   9.9141   9.9141   9.9141
    10.1095  10.1095  10.1095  10.1095  10.1095  10.1095  10.1096  10.1096
    10.9275  10.9275  10.9275  10.9275  10.9275  10.9275  10.9275  10.9275
    11.4619  11.4619  11.4619  11.4619  11.5408  11.5408  11.5409  11.5409
    11.6499  11.6499  11.6500  11.6500  11.6500  11.6500  11.6500  11.6500
    11.8945

     occupation numbers 
     1.0000   1.0000   1.0000   1.0000   1.0000   1.0000   1.0000   1.0000
     1.0000   1.0000   1.0000   1.0000   1.0000   1.0000   1.0000   1.0000
     1.0000   1.0000   1.0000   1.0000   1.0000   1.0000   1.0000   1.0000
     1.0000   1.0000   1.0000   1.0000   1.0000   1.0000   1.0000   1.0000
     1.0000   1.0000   1.0000   1.0000   1.0000   1.0000   1.0000   1.0000
     1.0000   1.0000   1.0000   1.0000   1.0000   1.0000   1.0000   1.0000
     1.0000   1.0000   1.0000   1.0000   1.0000   1.0000   1.0000   1.0000
     1.0000   1.0000   1.0000   1.0000   1.0000   1.0000   1.0000   1.0000
     1.0000   1.0000   1.0000   1.0000   1.0000   1.0000   1.0000   1.0000
     1.0000   1.0000   1.0000   1.0000   1.0000   1.0000   1.0000   1.0000
     1.0000   1.0000   1.0000   1.0000   1.0000   1.0000   1.0000   1.0000
     1.0000   1.0000   1.0000   1.0000   1.0000   1.0000   1.0000   1.0000
     1.0000   1.0000   1.0000   1.0000   1.0000   1.0000   1.0000   1.0000
     1.0000   1.0000   1.0000   1.0000   1.0000   1.0000   1.0000   1.0000
     1.0000   1.0000   1.0000   1.0000   1.0000   1.0000   1.0000   1.0000
     1.0000   1.0000   1.0000   1.0000   1.0000   1.0000   1.0000   1.0000
     1.0000   1.0000   1.0000   1.0000   1.0000   1.0000   1.0000   1.0000
     1.0000   1.0000   1.0000   1.0000   1.0000   1.0000   1.0000   1.0000
     1.0000   1.0000   1.0000   1.0000   1.0000   1.0000   1.0000   1.0000
     1.0000   1.0000   1.0000   1.0000   1.0000   1.0000   1.0000   1.0000
     1.0000   1.0000   1.0000   1.0000   1.0000   1.0000   1.0000   1.0000
     1.0000   1.0000   1.0000   1.0000   1.0000   1.0000   1.0000   1.0000
     1.0000   1.0000   1.0000   1.0000   1.0000   1.0000   1.0000   1.0000
     1.0000   1.0000   1.0000   1.0000   1.0000   1.0000   1.0000   1.0000
     1.0000   1.0000   1.0000   1.0000   1.0000   1.0000   1.0000   1.0000
     1.0000   1.0000   1.0000   1.0000   1.0000   1.0000   1.0000   1.0000
     1.0000   1.0000   1.0000   1.0000   1.0000   1.0000   1.0000   1.0000
     1.0000   1.0000   1.0000   1.0000   1.0000   1.0000   1.0000   1.0000
     1.0000   1.0000   1.0000   1.0000   1.0000   1.0000   1.0000   1.0000
     1.0000   1.0000   1.0000   1.0000   1.0000   1.0000   1.0000   1.0000
     1.0000   1.0000   1.0000   1.0000   1.0000   1.0000   1.0000   1.0000
     1.0000   1.0000   1.0000   1.0000   1.0000   1.0000   1.0000   1.0000
     1.0000   1.0000   1.0000   1.0000   1.0000   1.0000   1.0000   1.0000
     1.0000   1.0000   1.0000   1.0000   1.0000   1.0000   1.0000   1.0000
     1.0000   1.0000   1.0000   1.0000   1.0000   1.0000   1.0000   1.0000
     1.0000   1.0000   1.0000   1.0000   1.0000   1.0000   1.0000   1.0000
     0.0000   0.0000   0.0000   0.0000   0.0000   0.0000   0.0000   0.0000
     0.0000   0.0000   0.0000   0.0000   0.0000   0.0000   0.0000   0.0000
     0.0000   0.0000   0.0000   0.0000   0.0000   0.0000   0.0000   0.0000
     0.0000   0.0000   0.0000   0.0000   0.0000   0.0000   0.0000   0.0000
     0.0000   0.0000   0.0000   0.0000   0.0000   0.0000   0.0000   0.0000
     0.0000   0.0000   0.0000   0.0000   0.0000   0.0000   0.0000   0.0000
     0.0000   0.0000   0.0000   0.0000   0.0000   0.0000   0.0000   0.0000
     0.0000

          k =-0.5000-0.5000-0.5000 (158408 PWs)   bands (ev):

    -7.0994  -7.0993  -7.0992  -7.0992  -7.0992  -7.0992  -7.0992  -7.0992
    -6.6073  -6.6073  -6.6073  -6.6073  -6.6073  -6.6073  -6.6072  -6.6072
    -6.6071  -6.6071  -6.6071  -6.6071  -6.6071  -6.6071  -6.6071  -6.6071
    -6.6071  -6.6071  -6.6071  -6.6071  -6.6071  -6.6071  -6.6071  -6.6071
    -3.1601  -3.1601  -3.1601  -3.1601  -3.1601  -3.1601  -3.1601  -3.1601
    -3.1601  -3.1601  -3.1601  -3.1600  -3.1600  -3.1600  -3.1600  -3.1600
    -3.1044  -3.1044  -3.1044  -3.1043  -3.1043  -3.1043  -3.1043  -3.1043
    -3.1043  -3.1043  -3.1043  -3.1043  -3.1043  -3.1043  -3.1043  -3.1043
    -3.1043  -3.1042  -3.1042  -3.1042  -3.1042  -3.1042  -3.1042  -3.1041
    -3.0540  -3.0539  -3.0539  -3.0539  -3.0539  -3.0539  -3.0539  -3.0539
    -3.0539  -3.0539  -3.0538  -3.0538  -3.0538  -3.0538  -3.0538  -3.0538
    -3.0538  -3.0538  -3.0537  -3.0537  -3.0537  -3.0537  -3.0537  -3.0537
    -3.0335  -3.0334  -3.0334  -3.0334  -3.0334  -3.0334  -3.0334  -3.0333
    -2.9816  -2.9816  -2.9815  -2.9815  -2.9815  -2.9815  -2.9815  -2.9815
    -2.9815  -2.9815  -2.9815  -2.9815  -2.9815  -2.9815  -2.9814  -2.9814
    -2.9814  -2.9814  -2.9814  -2.9814  -2.9813  -2.9813  -2.9813  -2.9813
    -2.9222  -2.9222  -2.9221  -2.9221  -2.9221  -2.9221  -2.9221  -2.9221
    -2.9220  -2.9220  -2.9219  -2.9219  -2.9219  -2.9219  -2.9219  -2.9219
    -2.8829  -2.8829  -2.8829  -2.8829  -2.8829  -2.8829  -2.8828  -2.8828
    -2.8828  -2.8828  -2.8828  -2.8828  -2.8828  -2.8828  -2.8827  -2.8827
    -2.8827  -2.8827  -2.8827  -2.8827  -2.8827  -2.8825  -2.8825  -2.8825
    -2.5076  -2.5076  -2.5076  -2.5076  -2.5076  -2.5076  -2.5076  -2.5076
    -2.5076  -2.5075  -2.5075  -2.5075  -2.5075  -2.5075  -2.5075  -2.5074
    -2.5074  -2.5074  -2.5074  -2.5074  -2.5074  -2.5074  -2.5074  -2.5074
     0.9958   0.9959   0.9960   0.9960   0.9960   0.9960   0.9960   0.9960
     0.9960   0.9960   0.9960   0.9960   0.9960   0.9960   0.9960   0.9960
     0.9960   0.9960   0.9960   0.9960   0.9960   0.9961   0.9961   0.9961
     2.5325   2.5325   2.5325   2.5325   2.5325   2.5325   2.5325   2.5325
     3.0837   3.0837   3.0837   3.0837   3.0837   3.0837   3.0837   3.0837
     3.0837   3.0837   3.0837   3.0837   3.0837   3.0837   3.0838   3.0838
     3.0838   3.0838   3.0838   3.0838   3.0838   3.0838   3.0838   3.0838
     3.8964   3.8964   3.8964   3.8964   3.8964   3.8964   3.8964   3.8964
     3.8964   3.8964   3.8964   3.8964   3.8964   3.8964   3.8965   3.8965
     3.8965   3.8965   3.8965   3.8965   3.8965   3.8965   3.8965   3.8965
     4.9369   4.9369   4.9369   4.9369   4.9369   4.9369   4.9369   4.9369
     4.9369   4.9369   4.9369   4.9370   4.9370   4.9370   4.9370   4.9370
     8.9677   8.9677   8.9677   8.9677   8.9677   8.9677   8.9677   8.9677
     9.8635   9.8635   9.8635   9.8635   9.8635   9.8636   9.8636   9.8636
     9.8636   9.8636   9.8636   9.8636   9.8636   9.8636   9.8636   9.8636
     9.8636   9.8636   9.8636   9.8636   9.8636   9.8636   9.8636   9.8636
    11.4739  11.4739  11.4739  11.4739  11.4739  11.4739  11.4739  11.4740
    11.4740  11.4740  11.4740  11.4740  11.4740  11.4740  11.4740  11.4740
    11.4740  11.4740  11.4740  11.4740  11.4740  11.4740  11.4740  11.4740
    12.4203

     occupation numbers 
     1.0000   1.0000   1.0000   1.0000   1.0000   1.0000   1.0000   1.0000
     1.0000   1.0000   1.0000   1.0000   1.0000   1.0000   1.0000   1.0000
     1.0000   1.0000   1.0000   1.0000   1.0000   1.0000   1.0000   1.0000
     1.0000   1.0000   1.0000   1.0000   1.0000   1.0000   1.0000   1.0000
     1.0000   1.0000   1.0000   1.0000   1.0000   1.0000   1.0000   1.0000
     1.0000   1.0000   1.0000   1.0000   1.0000   1.0000   1.0000   1.0000
     1.0000   1.0000   1.0000   1.0000   1.0000   1.0000   1.0000   1.0000
     1.0000   1.0000   1.0000   1.0000   1.0000   1.0000   1.0000   1.0000
     1.0000   1.0000   1.0000   1.0000   1.0000   1.0000   1.0000   1.0000
     1.0000   1.0000   1.0000   1.0000   1.0000   1.0000   1.0000   1.0000
     1.0000   1.0000   1.0000   1.0000   1.0000   1.0000   1.0000   1.0000
     1.0000   1.0000   1.0000   1.0000   1.0000   1.0000   1.0000   1.0000
     1.0000   1.0000   1.0000   1.0000   1.0000   1.0000   1.0000   1.0000
     1.0000   1.0000   1.0000   1.0000   1.0000   1.0000   1.0000   1.0000
     1.0000   1.0000   1.0000   1.0000   1.0000   1.0000   1.0000   1.0000
     1.0000   1.0000   1.0000   1.0000   1.0000   1.0000   1.0000   1.0000
     1.0000   1.0000   1.0000   1.0000   1.0000   1.0000   1.0000   1.0000
     1.0000   1.0000   1.0000   1.0000   1.0000   1.0000   1.0000   1.0000
     1.0000   1.0000   1.0000   1.0000   1.0000   1.0000   1.0000   1.0000
     1.0000   1.0000   1.0000   1.0000   1.0000   1.0000   1.0000   1.0000
     1.0000   1.0000   1.0000   1.0000   1.0000   1.0000   1.0000   1.0000
     1.0000   1.0000   1.0000   1.0000   1.0000   1.0000   1.0000   1.0000
     1.0000   1.0000   1.0000   1.0000   1.0000   1.0000   1.0000   1.0000
     1.0000   1.0000   1.0000   1.0000   1.0000   1.0000   1.0000   1.0000
     1.0000   1.0000   1.0000   1.0000   1.0000   1.0000   1.0000   1.0000
     1.0000   1.0000   1.0000   1.0000   1.0000   1.0000   1.0000   1.0000
     1.0000   1.0000   1.0000   1.0000   1.0000   1.0000   1.0000   1.0000
     1.0000   1.0000   1.0000   1.0000   1.0000   1.0000   1.0000   1.0000
     1.0000   1.0000   1.0000   1.0000   1.0000   1.0000   1.0000   1.0000
     1.0000   1.0000   1.0000   1.0000   1.0000   1.0000   1.0000   1.0000
     1.0000   1.0000   1.0000   1.0000   1.0000   1.0000   1.0000   1.0000
     1.0000   1.0000   1.0000   1.0000   1.0000   1.0000   1.0000   1.0000
     1.0000   1.0000   1.0000   1.0000   1.0000   1.0000   1.0000   1.0000
     1.0000   1.0000   1.0000   1.0000   1.0000   1.0000   1.0000   1.0000
     1.0000   1.0000   1.0000   1.0000   1.0000   1.0000   1.0000   1.0000
     1.0000   1.0000   1.0000   1.0000   1.0000   1.0000   1.0000   1.0000
     0.0000   0.0000   0.0000   0.0000   0.0000   0.0000   0.0000   0.0000
     0.0000   0.0000   0.0000   0.0000   0.0000   0.0000   0.0000   0.0000
     0.0000   0.0000   0.0000   0.0000   0.0000   0.0000   0.0000   0.0000
     0.0000   0.0000   0.0000   0.0000   0.0000   0.0000   0.0000   0.0000
     0.0000   0.0000   0.0000   0.0000   0.0000   0.0000   0.0000   0.0000
     0.0000   0.0000   0.0000   0.0000   0.0000   0.0000   0.0000   0.0000
     0.0000   0.0000   0.0000   0.0000   0.0000   0.0000   0.0000   0.0000
     0.0000

     highest occupied, lowest unoccupied level (ev):     5.3690    7.5799

!    total energy              =   -9924.09912631 Ry
     total all-electron energy =   -140500.039714 Ry
     estimated scf accuracy    <       0.00000039 Ry

     The total energy is the sum of the following terms:
     one-electron contribution =   -2759.03880794 Ry
     hartree contribution      =    1967.43960785 Ry
     xc contribution           =   -1675.89167348 Ry
     ewald contribution        =   -2927.19912172 Ry
     Hubbard energy            =       0.23990911 Ry
     one-center paw contrib.   =   -4529.64904013 Ry
      -> PAW hartree energy AE =     123.72005050 Ry
      -> PAW hartree energy PS =    -123.07351869 Ry
      -> PAW xc energy AE      =    -143.26101794 Ry
      -> PAW xc energy PS      =      47.19794012 Ry
      -> total E_H with PAW    =    1968.08613966 Ry
      -> total E_XC with PAW   =   -1771.95475130 Ry

     convergence has been achieved in   9 iterations

     Writing all to output data dir ./out/ZnS_hub.save/
 
     init_run     :      7.93s CPU      9.13s WALL (       1 calls)
     electrons    :     40.51s CPU     44.24s WALL (       1 calls)

     Called by init_run:
     wfcinit      :      3.95s CPU      4.36s WALL (       1 calls)
     wfcinit:atom :      0.00s CPU      0.00s WALL (       1 calls)
     wfcinit:wfcr :      3.26s CPU      3.31s WALL (       1 calls)
     potinit      :      1.04s CPU      1.27s WALL (       1 calls)
     hinit0       :      1.92s CPU      2.06s WALL (       1 calls)

     Called by electrons:
     c_bands      :     36.05s CPU     36.87s WALL (      10 calls)
     sum_band     :      3.16s CPU      3.24s WALL (      10 calls)
     v_of_rho     :      0.30s CPU      0.46s WALL (      10 calls)
     v_h          :      0.03s CPU      0.04s WALL (      10 calls)
     v_xc         :      0.27s CPU      0.41s WALL (      10 calls)
     newd         :      0.11s CPU      0.13s WALL (      10 calls)
     PAW_pot      :      0.45s CPU      0.46s WALL (      10 calls)
     mix_rho      :      0.06s CPU      0.07s WALL (      10 calls)

     Called by c_bands:
     init_us_2    :      0.35s CPU      0.37s WALL (      22 calls)
     init_us_2:cp :      0.35s CPU      0.37s WALL (      22 calls)
     cegterg      :     31.12s CPU     31.54s WALL (      10 calls)

     Called by sum_band:
     sum_band:wei :      0.01s CPU      0.01s WALL (      10 calls)
     sum_band:loo :      2.63s CPU      2.66s WALL (      10 calls)
     sum_band:buf :      0.00s CPU      0.00s WALL (      10 calls)
     sum_band:ini :      0.17s CPU      0.18s WALL (      10 calls)
     sum_band:cal :      0.86s CPU      0.88s WALL (      10 calls)
     sum_band:bec :      0.04s CPU      0.04s WALL (      10 calls)
     addusdens    :      0.07s CPU      0.08s WALL (      10 calls)
                                        0.00s GPU  (      10 calls)
     addusd:skk   :      0.00s CPU      0.00s WALL (      20 calls)
                                        0.00s GPU  (      20 calls)

     Called by *egterg:
     cdiaghg      :      4.97s CPU      5.01s WALL (      72 calls)
     cegterg:over :      2.11s CPU      2.13s WALL (      63 calls)
     cegterg:upda :      1.64s CPU      1.65s WALL (      63 calls)
     cegterg:last :      2.69s CPU      2.71s WALL (      21 calls)
     cdiaghg:chol :      0.31s CPU      0.31s WALL (      72 calls)
     cdiaghg:inve :      0.47s CPU      0.47s WALL (      72 calls)
     cdiaghg:para :      0.77s CPU      0.77s WALL (     144 calls)
     h_psi        :     19.32s CPU     19.58s WALL (      74 calls)
     s_psi        :      2.86s CPU      2.89s WALL (      75 calls)
     g_psi        :      0.06s CPU      0.06s WALL (      63 calls)

     Called by h_psi:
     h_psi:calbec :      2.69s CPU      2.71s WALL (      74 calls)
     vloc_psi     :     10.55s CPU     10.66s WALL (      74 calls)
     add_vuspsi   :      2.78s CPU      2.82s WALL (      74 calls)
     vhpsi        :      3.20s CPU      3.23s WALL (      74 calls)

     General routines
     calbec       :      4.29s CPU      4.33s WALL (     169 calls)
     fft          :      0.37s CPU      0.70s WALL (     111 calls)
     ffts         :      0.01s CPU      0.02s WALL (      10 calls)
     fftw         :     11.46s CPU     11.58s WALL (   22244 calls)
 
     Parallel routines

     Hubbard U routines
     new_ns       :      0.18s CPU      0.18s WALL (      10 calls)
     vhpsi        :      3.20s CPU      3.23s WALL (      74 calls)

     PAW routines
     PAW_pot      :      0.45s CPU      0.46s WALL (      10 calls)
     PAW_symme    :      0.07s CPU      0.07s WALL (      20 calls)
 
     PWSCF        :     58.26s CPU   1m59.59s WALL

 
   This run was terminated on:  11:28: 7   1Jul2024            

=------------------------------------------------------------------------------=
   JOB DONE.
=------------------------------------------------------------------------------=
