# E (eV) pdos(E) 
 -7.450  0.468E+00
 -7.440  0.147E+01
 -7.430  0.277E+01
 -7.420  0.360E+01
 -7.410  0.392E+01
 -7.400  0.391E+01
 -7.390  0.392E+01
 -7.380  0.400E+01
 -7.370  0.421E+01
 -7.360  0.468E+01
 -7.350  0.527E+01
 -7.340  0.587E+01
 -7.330  0.670E+01
 -7.320  0.765E+01
 -7.310  0.833E+01
 -7.300  0.869E+01
 -7.290  0.922E+01
 -7.280  0.102E+02
 -7.270  0.114E+02
 -7.260  0.117E+02
 -7.250  0.118E+02
 -7.240  0.118E+02
 -7.230  0.117E+02
 -7.220  0.115E+02
 -7.210  0.112E+02
 -7.200  0.110E+02
 -7.190  0.110E+02
 -7.180  0.118E+02
 -7.170  0.126E+02
 -7.160  0.132E+02
 -7.150  0.157E+02
 -7.140  0.178E+02
 -7.130  0.179E+02
 -7.120  0.166E+02
 -7.110  0.155E+02
 -7.100  0.158E+02
 -7.090  0.163E+02
 -7.080  0.171E+02
 -7.070  0.177E+02
 -7.060  0.180E+02
 -7.050  0.175E+02
 -7.040  0.177E+02
 -7.030  0.180E+02
 -7.020  0.190E+02
 -7.010  0.196E+02
 -7.000  0.197E+02
 -6.990  0.202E+02
 -6.980  0.239E+02
 -6.970  0.314E+02
 -6.960  0.351E+02
 -6.950  0.388E+02
 -6.940  0.366E+02
 -6.930  0.341E+02
 -6.920  0.330E+02
 -6.910  0.316E+02
 -6.900  0.319E+02
 -6.890  0.354E+02
 -6.880  0.322E+02
 -6.870  0.277E+02
 -6.860  0.242E+02
 -6.850  0.223E+02
 -6.840  0.219E+02
 -6.830  0.300E+02
 -6.820  0.377E+02
 -6.810  0.500E+02
 -6.800  0.407E+02
 -6.790  0.690E+02
 -6.780  0.606E+02
 -6.770  0.520E+02
 -6.760  0.618E+02
 -6.750  0.689E+02
 -6.740  0.705E+02
 -6.730  0.812E+02
 -6.720  0.891E+02
 -6.710  0.795E+02
 -6.700  0.765E+02
 -6.690  0.915E+02
 -6.680  0.870E+02
 -6.670  0.845E+02
 -6.660  0.842E+02
 -6.650  0.911E+02
 -6.640  0.120E+03
 -6.630  0.123E+03
 -6.620  0.104E+03
 -6.610  0.877E+02
 -6.600  0.118E+03
 -6.590  0.148E+03
 -6.580  0.102E+03
 -6.570  0.927E+02
 -6.560  0.868E+02
 -6.550  0.967E+02
 -6.540  0.998E+02
 -6.530  0.155E+03
 -6.520  0.231E+03
 -6.510  0.168E+03
 -6.500  0.152E+03
 -6.490  0.140E+03
 -6.480  0.693E+00
 -6.470  0.000E+00
 -6.460  0.000E+00
 -6.450  0.000E+00
 -6.440  0.000E+00
 -6.430  0.000E+00
 -6.420  0.000E+00
 -6.410  0.000E+00
 -6.400  0.000E+00
 -6.390  0.000E+00
 -6.380  0.000E+00
 -6.370  0.000E+00
 -6.360  0.000E+00
 -6.350  0.000E+00
 -6.340  0.000E+00
 -6.330  0.000E+00
 -6.320  0.000E+00
 -6.310  0.000E+00
 -6.300  0.000E+00
 -6.290  0.000E+00
 -6.280  0.000E+00
 -6.270  0.000E+00
 -6.260  0.000E+00
 -6.250  0.000E+00
 -6.240  0.000E+00
 -6.230  0.000E+00
 -6.220  0.000E+00
 -6.210  0.000E+00
 -6.200  0.000E+00
 -6.190  0.000E+00
 -6.180  0.000E+00
 -6.170  0.000E+00
 -6.160  0.000E+00
 -6.150  0.000E+00
 -6.140  0.000E+00
 -6.130  0.000E+00
 -6.120  0.000E+00
 -6.110  0.000E+00
 -6.100  0.000E+00
 -6.090  0.000E+00
 -6.080  0.000E+00
 -6.070  0.000E+00
 -6.060  0.000E+00
 -6.050  0.000E+00
 -6.040  0.000E+00
 -6.030  0.000E+00
 -6.020  0.000E+00
 -6.010  0.000E+00
 -6.000  0.000E+00
 -5.990  0.000E+00
 -5.980  0.000E+00
 -5.970  0.000E+00
 -5.960  0.000E+00
 -5.950  0.000E+00
 -5.940  0.000E+00
 -5.930  0.000E+00
 -5.920  0.000E+00
 -5.910  0.000E+00
 -5.900  0.000E+00
 -5.890  0.000E+00
 -5.880  0.000E+00
 -5.870  0.000E+00
 -5.860  0.000E+00
 -5.850  0.000E+00
 -5.840  0.000E+00
 -5.830  0.000E+00
 -5.820  0.000E+00
 -5.810  0.000E+00
 -5.800  0.000E+00
 -5.790  0.000E+00
 -5.780  0.000E+00
 -5.770  0.000E+00
 -5.760  0.000E+00
 -5.750  0.000E+00
 -5.740  0.000E+00
 -5.730  0.000E+00
 -5.720  0.000E+00
 -5.710  0.000E+00
 -5.700  0.000E+00
 -5.690  0.000E+00
 -5.680  0.000E+00
 -5.670  0.000E+00
 -5.660  0.000E+00
 -5.650  0.000E+00
 -5.640  0.000E+00
 -5.630  0.000E+00
 -5.620  0.000E+00
 -5.610  0.000E+00
 -5.600  0.000E+00
 -5.590  0.000E+00
 -5.580  0.000E+00
 -5.570  0.000E+00
 -5.560  0.000E+00
 -5.550  0.000E+00
 -5.540  0.000E+00
 -5.530  0.000E+00
 -5.520  0.000E+00
 -5.510  0.000E+00
 -5.500  0.000E+00
 -5.490  0.000E+00
 -5.480  0.000E+00
 -5.470  0.000E+00
 -5.460  0.000E+00
 -5.450  0.000E+00
 -5.440  0.000E+00
 -5.430  0.000E+00
 -5.420  0.000E+00
 -5.410  0.000E+00
 -5.400  0.000E+00
 -5.390  0.000E+00
 -5.380  0.000E+00
 -5.370  0.000E+00
 -5.360  0.000E+00
 -5.350  0.000E+00
 -5.340  0.000E+00
 -5.330  0.000E+00
 -5.320  0.000E+00
 -5.310  0.000E+00
 -5.300  0.000E+00
 -5.290  0.000E+00
 -5.280  0.000E+00
 -5.270  0.000E+00
 -5.260  0.000E+00
 -5.250  0.000E+00
 -5.240  0.000E+00
 -5.230  0.000E+00
 -5.220  0.000E+00
 -5.210  0.000E+00
 -5.200  0.000E+00
 -5.190  0.000E+00
 -5.180  0.000E+00
 -5.170  0.000E+00
 -5.160  0.000E+00
 -5.150  0.000E+00
 -5.140  0.000E+00
 -5.130  0.000E+00
 -5.120  0.000E+00
 -5.110  0.000E+00
 -5.100  0.000E+00
 -5.090  0.000E+00
 -5.080  0.000E+00
 -5.070  0.000E+00
 -5.060  0.000E+00
 -5.050  0.000E+00
 -5.040  0.000E+00
 -5.030  0.000E+00
 -5.020  0.000E+00
 -5.010  0.000E+00
 -5.000  0.000E+00
 -4.990  0.000E+00
 -4.980  0.000E+00
 -4.970  0.000E+00
 -4.960  0.000E+00
 -4.950  0.000E+00
 -4.940  0.000E+00
 -4.930  0.000E+00
 -4.920  0.000E+00
 -4.910  0.000E+00
 -4.900  0.000E+00
 -4.890  0.000E+00
 -4.880  0.000E+00
 -4.870  0.000E+00
 -4.860  0.000E+00
 -4.850  0.000E+00
 -4.840  0.000E+00
 -4.830  0.000E+00
 -4.820  0.000E+00
 -4.810  0.000E+00
 -4.800  0.000E+00
 -4.790  0.000E+00
 -4.780  0.000E+00
 -4.770  0.000E+00
 -4.760  0.000E+00
 -4.750  0.000E+00
 -4.740  0.000E+00
 -4.730  0.000E+00
 -4.720  0.000E+00
 -4.710  0.000E+00
 -4.700  0.000E+00
 -4.690  0.000E+00
 -4.680  0.000E+00
 -4.670  0.000E+00
 -4.660  0.000E+00
 -4.650  0.000E+00
 -4.640  0.000E+00
 -4.630  0.000E+00
 -4.620  0.000E+00
 -4.610  0.000E+00
 -4.600  0.000E+00
 -4.590  0.000E+00
 -4.580  0.000E+00
 -4.570  0.000E+00
 -4.560  0.000E+00
 -4.550  0.000E+00
 -4.540  0.000E+00
 -4.530  0.000E+00
 -4.520  0.000E+00
 -4.510  0.000E+00
 -4.500  0.000E+00
 -4.490  0.000E+00
 -4.480  0.000E+00
 -4.470  0.000E+00
 -4.460  0.000E+00
 -4.450  0.000E+00
 -4.440  0.000E+00
 -4.430  0.000E+00
 -4.420  0.000E+00
 -4.410  0.000E+00
 -4.400  0.000E+00
 -4.390  0.000E+00
 -4.380  0.000E+00
 -4.370  0.000E+00
 -4.360  0.000E+00
 -4.350  0.000E+00
 -4.340  0.000E+00
 -4.330  0.000E+00
 -4.320  0.000E+00
 -4.310  0.000E+00
 -4.300  0.000E+00
 -4.290  0.000E+00
 -4.280  0.000E+00
 -4.270  0.000E+00
 -4.260  0.000E+00
 -4.250  0.000E+00
 -4.240  0.000E+00
 -4.230  0.000E+00
 -4.220  0.000E+00
 -4.210  0.000E+00
 -4.200  0.000E+00
 -4.190  0.000E+00
 -4.180  0.000E+00
 -4.170  0.000E+00
 -4.160  0.000E+00
 -4.150  0.000E+00
 -4.140  0.000E+00
 -4.130  0.000E+00
 -4.120  0.000E+00
 -4.110  0.000E+00
 -4.100  0.000E+00
 -4.090  0.000E+00
 -4.080  0.000E+00
 -4.070  0.000E+00
 -4.060  0.000E+00
 -4.050  0.000E+00
 -4.040  0.000E+00
 -4.030  0.000E+00
 -4.020  0.000E+00
 -4.010  0.000E+00
 -4.000  0.000E+00
 -3.990  0.000E+00
 -3.980  0.000E+00
 -3.970  0.000E+00
 -3.960  0.000E+00
 -3.950  0.000E+00
 -3.940  0.000E+00
 -3.930  0.000E+00
 -3.920  0.000E+00
 -3.910  0.000E+00
 -3.900  0.000E+00
 -3.890  0.000E+00
 -3.880  0.000E+00
 -3.870  0.000E+00
 -3.860  0.000E+00
 -3.850  0.000E+00
 -3.840  0.000E+00
 -3.830  0.000E+00
 -3.820  0.000E+00
 -3.810  0.000E+00
 -3.800  0.000E+00
 -3.790  0.000E+00
 -3.780  0.000E+00
 -3.770  0.000E+00
 -3.760  0.000E+00
 -3.750  0.000E+00
 -3.740  0.000E+00
 -3.730  0.000E+00
 -3.720  0.000E+00
 -3.710  0.000E+00
 -3.700  0.000E+00
 -3.690  0.000E+00
 -3.680  0.000E+00
 -3.670  0.000E+00
 -3.660  0.000E+00
 -3.650  0.000E+00
 -3.640  0.000E+00
 -3.630  0.000E+00
 -3.620  0.000E+00
 -3.610  0.000E+00
 -3.600  0.000E+00
 -3.590  0.000E+00
 -3.580  0.000E+00
 -3.570  0.000E+00
 -3.560  0.000E+00
 -3.550  0.000E+00
 -3.540  0.000E+00
 -3.530  0.000E+00
 -3.520  0.000E+00
 -3.510  0.000E+00
 -3.500  0.000E+00
 -3.490  0.000E+00
 -3.480  0.000E+00
 -3.470  0.000E+00
 -3.460  0.000E+00
 -3.450  0.000E+00
 -3.440  0.000E+00
 -3.430  0.000E+00
 -3.420  0.000E+00
 -3.410  0.000E+00
 -3.400  0.000E+00
 -3.390  0.000E+00
 -3.380  0.000E+00
 -3.370  0.000E+00
 -3.360  0.000E+00
 -3.350  0.000E+00
 -3.340  0.000E+00
 -3.330  0.000E+00
 -3.320  0.000E+00
 -3.310  0.000E+00
 -3.300  0.000E+00
 -3.290  0.000E+00
 -3.280  0.000E+00
 -3.270  0.000E+00
 -3.260  0.000E+00
 -3.250  0.000E+00
 -3.240  0.000E+00
 -3.230  0.000E+00
 -3.220  0.000E+00
 -3.210  0.173E-05
 -3.200  0.404E+01
 -3.190  0.744E+01
 -3.180  0.109E+02
 -3.170  0.105E+02
 -3.160  0.179E+02
 -3.150  0.182E+02
 -3.140  0.429E+02
 -3.130  0.437E+02
 -3.120  0.433E+02
 -3.110  0.468E+02
 -3.100  0.531E+02
 -3.090  0.263E+02
 -3.080  0.433E+02
 -3.070  0.187E+02
 -3.060  0.204E+02
 -3.050  0.224E+02
 -3.040  0.131E+02
 -3.030  0.153E+02
 -3.020  0.906E+01
 -3.010  0.738E+01
 -3.000  0.139E+02
 -2.990  0.777E+01
 -2.980  0.573E+01
 -2.970  0.691E+01
 -2.960  0.685E+01
 -2.950  0.295E+01
 -2.940  0.199E+01
 -2.930  0.177E+01
 -2.920  0.302E+01
 -2.910  0.635E+01
 -2.900  0.354E+01
 -2.890  0.646E+00
 -2.880  0.411E+00
 -2.870  0.118E+01
 -2.860  0.424E+01
 -2.850  0.351E+01
 -2.840  0.369E+01
 -2.830  0.286E+01
 -2.820  0.204E+01
 -2.810  0.139E+01
 -2.800  0.109E+01
 -2.790  0.124E+01
 -2.780  0.198E+01
 -2.770  0.373E+01
 -2.760  0.368E+01
 -2.750  0.391E+01
 -2.740  0.441E+01
 -2.730  0.449E+01
 -2.720  0.409E+01
 -2.710  0.348E+01
 -2.700  0.310E+01
 -2.690  0.290E+01
 -2.680  0.275E+01
 -2.670  0.270E+01
 -2.660  0.280E+01
 -2.650  0.417E+01
 -2.640  0.102E+02
 -2.630  0.725E+01
 -2.620  0.552E+01
 -2.610  0.480E+01
 -2.600  0.453E+01
 -2.590  0.463E+01
 -2.580  0.526E+01
 -2.570  0.587E+01
 -2.560  0.605E+01
 -2.550  0.649E+01
 -2.540  0.713E+01
 -2.530  0.853E+01
 -2.520  0.124E+02
 -2.510  0.913E+01
 -2.500  0.818E+01
 -2.490  0.851E+01
 -2.480  0.944E+01
 -2.470  0.112E+02
 -2.460  0.121E+02
 -2.450  0.907E+01
 -2.440  0.950E+01
 -2.430  0.110E+02
 -2.420  0.163E+02
 -2.410  0.130E+02
 -2.400  0.532E+01
 -2.390  0.895E+01
 -2.380  0.971E+01
 -2.370  0.175E+02
 -2.360  0.183E+02
 -2.350  0.101E+02
 -2.340  0.688E+01
 -2.330  0.476E+01
 -2.320  0.363E+01
 -2.310  0.968E+00
 -2.300  0.430E-01
 -2.290  0.000E+00
 -2.280  0.000E+00
 -2.270  0.000E+00
 -2.260  0.000E+00
 -2.250  0.000E+00
 -2.240  0.000E+00
 -2.230  0.000E+00
 -2.220  0.000E+00
 -2.210  0.000E+00
 -2.200  0.000E+00
 -2.190  0.000E+00
 -2.180  0.000E+00
 -2.170  0.000E+00
 -2.160  0.000E+00
 -2.150  0.000E+00
 -2.140  0.000E+00
 -2.130  0.000E+00
 -2.120  0.000E+00
 -2.110  0.000E+00
 -2.100  0.000E+00
 -2.090  0.000E+00
 -2.080  0.000E+00
 -2.070  0.000E+00
 -2.060  0.000E+00
 -2.050  0.000E+00
 -2.040  0.000E+00
 -2.030  0.000E+00
 -2.020  0.000E+00
 -2.010  0.000E+00
 -2.000  0.000E+00
 -1.990  0.000E+00
 -1.980  0.000E+00
 -1.970  0.000E+00
 -1.960  0.000E+00
 -1.950  0.000E+00
 -1.940  0.000E+00
 -1.930  0.000E+00
 -1.920  0.000E+00
 -1.910  0.000E+00
 -1.900  0.000E+00
 -1.890  0.000E+00
 -1.880  0.000E+00
 -1.870  0.000E+00
 -1.860  0.000E+00
 -1.850  0.000E+00
 -1.840  0.000E+00
 -1.830  0.000E+00
 -1.820  0.000E+00
 -1.810  0.000E+00
 -1.800  0.000E+00
 -1.790  0.000E+00
 -1.780  0.000E+00
 -1.770  0.000E+00
 -1.760  0.000E+00
 -1.750  0.000E+00
 -1.740  0.000E+00
 -1.730  0.000E+00
 -1.720  0.000E+00
 -1.710  0.000E+00
 -1.700  0.000E+00
 -1.690  0.000E+00
 -1.680  0.000E+00
 -1.670  0.000E+00
 -1.660  0.000E+00
 -1.650  0.000E+00
 -1.640  0.000E+00
 -1.630  0.000E+00
 -1.620  0.000E+00
 -1.610  0.000E+00
 -1.600  0.000E+00
 -1.590  0.000E+00
 -1.580  0.000E+00
 -1.570  0.000E+00
 -1.560  0.000E+00
 -1.550  0.000E+00
 -1.540  0.000E+00
 -1.530  0.000E+00
 -1.520  0.000E+00
 -1.510  0.000E+00
 -1.500  0.000E+00
 -1.490  0.000E+00
 -1.480  0.000E+00
 -1.470  0.000E+00
 -1.460  0.000E+00
 -1.450  0.000E+00
 -1.440  0.000E+00
 -1.430  0.000E+00
 -1.420  0.000E+00
 -1.410  0.000E+00
 -1.400  0.000E+00
 -1.390  0.000E+00
 -1.380  0.000E+00
 -1.370  0.000E+00
 -1.360  0.000E+00
 -1.350  0.000E+00
 -1.340  0.000E+00
 -1.330  0.000E+00
 -1.320  0.000E+00
 -1.310  0.000E+00
 -1.300  0.000E+00
 -1.290  0.000E+00
 -1.280  0.000E+00
 -1.270  0.000E+00
 -1.260  0.000E+00
 -1.250  0.000E+00
 -1.240  0.000E+00
 -1.230  0.000E+00
 -1.220  0.000E+00
 -1.210  0.000E+00
 -1.200  0.000E+00
 -1.190  0.000E+00
 -1.180  0.000E+00
 -1.170  0.000E+00
 -1.160  0.000E+00
 -1.150  0.000E+00
 -1.140  0.000E+00
 -1.130  0.000E+00
 -1.120  0.000E+00
 -1.110  0.000E+00
 -1.100  0.000E+00
 -1.090  0.000E+00
 -1.080  0.000E+00
 -1.070  0.000E+00
 -1.060  0.000E+00
 -1.050  0.000E+00
 -1.040  0.000E+00
 -1.030  0.000E+00
 -1.020  0.000E+00
 -1.010  0.000E+00
 -1.000  0.000E+00
 -0.990  0.000E+00
 -0.980  0.000E+00
 -0.970  0.000E+00
 -0.960  0.000E+00
 -0.950  0.000E+00
 -0.940  0.000E+00
 -0.930  0.000E+00
 -0.920  0.000E+00
 -0.910  0.000E+00
 -0.900  0.000E+00
 -0.890  0.000E+00
 -0.880  0.000E+00
 -0.870  0.000E+00
 -0.860  0.000E+00
 -0.850  0.000E+00
 -0.840  0.000E+00
 -0.830  0.000E+00
 -0.820  0.000E+00
 -0.810  0.000E+00
 -0.800  0.000E+00
 -0.790  0.000E+00
 -0.780  0.000E+00
 -0.770  0.000E+00
 -0.760  0.000E+00
 -0.750  0.000E+00
 -0.740  0.000E+00
 -0.730  0.000E+00
 -0.720  0.000E+00
 -0.710  0.000E+00
 -0.700  0.000E+00
 -0.690  0.000E+00
 -0.680  0.000E+00
 -0.670  0.000E+00
 -0.660  0.000E+00
 -0.650  0.000E+00
 -0.640  0.000E+00
 -0.630  0.000E+00
 -0.620  0.000E+00
 -0.610  0.000E+00
 -0.600  0.000E+00
 -0.590  0.000E+00
 -0.580  0.000E+00
 -0.570  0.000E+00
 -0.560  0.000E+00
 -0.550  0.000E+00
 -0.540  0.000E+00
 -0.530  0.000E+00
 -0.520  0.000E+00
 -0.510  0.000E+00
 -0.500  0.000E+00
 -0.490  0.000E+00
 -0.480  0.000E+00
 -0.470  0.000E+00
 -0.460  0.000E+00
 -0.450  0.000E+00
 -0.440  0.000E+00
 -0.430  0.000E+00
 -0.420  0.000E+00
 -0.410  0.000E+00
 -0.400  0.000E+00
 -0.390  0.000E+00
 -0.380  0.000E+00
 -0.370  0.000E+00
 -0.360  0.000E+00
 -0.350  0.000E+00
 -0.340  0.000E+00
 -0.330  0.000E+00
 -0.320  0.000E+00
 -0.310  0.000E+00
 -0.300  0.000E+00
 -0.290  0.000E+00
 -0.280  0.000E+00
 -0.270  0.000E+00
 -0.260  0.000E+00
 -0.250  0.000E+00
 -0.240  0.000E+00
 -0.230  0.000E+00
 -0.220  0.000E+00
 -0.210  0.000E+00
 -0.200  0.000E+00
 -0.190  0.000E+00
 -0.180  0.000E+00
 -0.170  0.000E+00
 -0.160  0.000E+00
 -0.150  0.000E+00
 -0.140  0.000E+00
 -0.130  0.000E+00
 -0.120  0.000E+00
 -0.110  0.000E+00
 -0.100  0.000E+00
 -0.090  0.000E+00
 -0.080  0.000E+00
 -0.070  0.000E+00
 -0.060  0.000E+00
 -0.050  0.000E+00
 -0.040  0.000E+00
 -0.030  0.000E+00
 -0.020  0.000E+00
 -0.010  0.000E+00
 -0.000  0.000E+00
  0.010  0.000E+00
  0.020  0.000E+00
  0.030  0.000E+00
  0.040  0.000E+00
  0.050  0.000E+00
  0.060  0.000E+00
  0.070  0.000E+00
  0.080  0.000E+00
  0.090  0.000E+00
  0.100  0.000E+00
  0.110  0.000E+00
  0.120  0.000E+00
  0.130  0.000E+00
  0.140  0.000E+00
  0.150  0.000E+00
  0.160  0.000E+00
  0.170  0.000E+00
  0.180  0.000E+00
  0.190  0.000E+00
  0.200  0.000E+00
  0.210  0.000E+00
  0.220  0.000E+00
  0.230  0.000E+00
  0.240  0.000E+00
  0.250  0.000E+00
  0.260  0.000E+00
  0.270  0.000E+00
  0.280  0.000E+00
  0.290  0.000E+00
  0.300  0.000E+00
  0.310  0.000E+00
  0.320  0.000E+00
  0.330  0.000E+00
  0.340  0.000E+00
  0.350  0.392E-05
  0.360  0.288E-02
  0.370  0.274E-01
  0.380  0.104E+00
  0.390  0.237E+00
  0.400  0.428E+00
  0.410  0.676E+00
  0.420  0.981E+00
  0.430  0.134E+01
  0.440  0.176E+01
  0.450  0.224E+01
  0.460  0.284E+01
  0.470  0.637E+01
  0.480  0.928E+01
  0.490  0.510E+01
  0.500  0.476E+01
  0.510  0.497E+01
  0.520  0.522E+01
  0.530  0.553E+01
  0.540  0.588E+01
  0.550  0.630E+01
  0.560  0.677E+01
  0.570  0.729E+01
  0.580  0.786E+01
  0.590  0.845E+01
  0.600  0.908E+01
  0.610  0.981E+01
  0.620  0.107E+02
  0.630  0.119E+02
  0.640  0.132E+02
  0.650  0.148E+02
  0.660  0.164E+02
  0.670  0.175E+02
  0.680  0.173E+02
  0.690  0.191E+02
  0.700  0.200E+02
  0.710  0.196E+02
  0.720  0.187E+02
  0.730  0.179E+02
  0.740  0.172E+02
  0.750  0.164E+02
  0.760  0.153E+02
  0.770  0.144E+02
  0.780  0.137E+02
  0.790  0.134E+02
  0.800  0.142E+02
  0.810  0.187E+02
  0.820  0.243E+02
  0.830  0.295E+02
  0.840  0.337E+02
  0.850  0.375E+02
  0.860  0.405E+02
  0.870  0.425E+02
  0.880  0.424E+02
  0.890  0.393E+02
  0.900  0.382E+02
  0.910  0.457E+02
  0.920  0.602E+02
  0.930  0.708E+02
  0.940  0.754E+02
  0.950  0.731E+02
  0.960  0.716E+02
  0.970  0.818E+02
  0.980  0.144E+03
  0.990  0.874E+02
  1.000  0.576E+02
  1.010  0.422E+02
  1.020  0.247E+02
  1.030  0.263E+02
  1.040  0.331E+02
  1.050  0.420E+02
  1.060  0.450E+02
  1.070  0.463E+02
  1.080  0.458E+02
  1.090  0.434E+02
  1.100  0.392E+02
  1.110  0.354E+02
  1.120  0.331E+02
  1.130  0.310E+02
  1.140  0.289E+02
  1.150  0.269E+02
  1.160  0.252E+02
  1.170  0.238E+02
  1.180  0.225E+02
  1.190  0.214E+02
  1.200  0.205E+02
  1.210  0.204E+02
  1.220  0.211E+02
  1.230  0.222E+02
  1.240  0.230E+02
  1.250  0.233E+02
  1.260  0.231E+02
  1.270  0.226E+02
  1.280  0.215E+02
  1.290  0.200E+02
  1.300  0.183E+02
  1.310  0.166E+02
  1.320  0.152E+02
  1.330  0.149E+02
  1.340  0.147E+02
  1.350  0.147E+02
  1.360  0.147E+02
  1.370  0.148E+02
  1.380  0.150E+02
  1.390  0.158E+02
  1.400  0.158E+02
  1.410  0.155E+02
  1.420  0.150E+02
  1.430  0.144E+02
  1.440  0.136E+02
  1.450  0.131E+02
  1.460  0.125E+02
  1.470  0.118E+02
  1.480  0.111E+02
  1.490  0.103E+02
  1.500  0.942E+01
  1.510  0.854E+01
  1.520  0.791E+01
  1.530  0.746E+01
  1.540  0.741E+01
  1.550  0.805E+01
  1.560  0.891E+01
  1.570  0.982E+01
  1.580  0.107E+02
  1.590  0.115E+02
  1.600  0.121E+02
  1.610  0.126E+02
  1.620  0.129E+02
  1.630  0.131E+02
  1.640  0.132E+02
  1.650  0.131E+02
  1.660  0.129E+02
  1.670  0.125E+02
  1.680  0.120E+02
  1.690  0.115E+02
  1.700  0.111E+02
  1.710  0.108E+02
  1.720  0.104E+02
  1.730  0.101E+02
  1.740  0.982E+01
  1.750  0.962E+01
  1.760  0.940E+01
  1.770  0.922E+01
  1.780  0.907E+01
  1.790  0.893E+01
  1.800  0.880E+01
  1.810  0.873E+01
  1.820  0.868E+01
  1.830  0.864E+01
  1.840  0.866E+01
  1.850  0.870E+01
  1.860  0.877E+01
  1.870  0.885E+01
  1.880  0.893E+01
  1.890  0.898E+01
  1.900  0.905E+01
  1.910  0.906E+01
  1.920  0.907E+01
  1.930  0.908E+01
  1.940  0.908E+01
  1.950  0.915E+01
  1.960  0.950E+01
  1.970  0.120E+02
  1.980  0.125E+02
  1.990  0.109E+02
  2.000  0.929E+01
  2.010  0.793E+01
  2.020  0.738E+01
  2.030  0.734E+01
  2.040  0.728E+01
  2.050  0.722E+01
  2.060  0.718E+01
  2.070  0.711E+01
  2.080  0.706E+01
  2.090  0.700E+01
  2.100  0.693E+01
  2.110  0.687E+01
  2.120  0.680E+01
  2.130  0.673E+01
  2.140  0.666E+01
  2.150  0.660E+01
  2.160  0.650E+01
  2.170  0.644E+01
  2.180  0.637E+01
  2.190  0.632E+01
  2.200  0.628E+01
  2.210  0.626E+01
  2.220  0.624E+01
  2.230  0.624E+01
  2.240  0.628E+01
  2.250  0.634E+01
  2.260  0.641E+01
  2.270  0.649E+01
  2.280  0.659E+01
  2.290  0.670E+01
  2.300  0.682E+01
  2.310  0.697E+01
  2.320  0.710E+01
  2.330  0.728E+01
  2.340  0.751E+01
  2.350  0.839E+01
  2.360  0.105E+02
  2.370  0.114E+02
  2.380  0.122E+02
  2.390  0.129E+02
  2.400  0.137E+02
  2.410  0.144E+02
  2.420  0.147E+02
  2.430  0.148E+02
  2.440  0.147E+02
  2.450  0.146E+02
  2.460  0.146E+02
  2.470  0.145E+02
  2.480  0.143E+02
  2.490  0.143E+02
  2.500  0.152E+02
  2.510  0.182E+02
  2.520  0.220E+02
  2.530  0.256E+02
  2.540  0.298E+02
  2.550  0.378E+02
  2.560  0.435E+02
  2.570  0.461E+02
  2.580  0.485E+02
  2.590  0.494E+02
  2.600  0.714E+02
  2.610  0.523E+02
  2.620  0.438E+02
  2.630  0.359E+02
  2.640  0.294E+02
  2.650  0.247E+02
  2.660  0.210E+02
  2.670  0.184E+02
  2.680  0.185E+02
  2.690  0.217E+02
  2.700  0.256E+02
  2.710  0.270E+02
  2.720  0.325E+02
  2.730  0.333E+02
  2.740  0.253E+02
  2.750  0.229E+02
  2.760  0.205E+02
  2.770  0.195E+02
  2.780  0.182E+02
  2.790  0.176E+02
  2.800  0.180E+02
  2.810  0.199E+02
  2.820  0.217E+02
  2.830  0.233E+02
  2.840  0.247E+02
  2.850  0.258E+02
  2.860  0.267E+02
  2.870  0.276E+02
  2.880  0.284E+02
  2.890  0.293E+02
  2.900  0.304E+02
  2.910  0.320E+02
  2.920  0.345E+02
  2.930  0.365E+02
  2.940  0.383E+02
  2.950  0.396E+02
  2.960  0.405E+02
  2.970  0.413E+02
  2.980  0.403E+02
  2.990  0.395E+02
  3.000  0.391E+02
  3.010  0.396E+02
  3.020  0.401E+02
  3.030  0.390E+02
  3.040  0.329E+02
  3.050  0.294E+02
  3.060  0.261E+02
  3.070  0.264E+02
  3.080  0.268E+02
  3.090  0.270E+02
  3.100  0.258E+02
  3.110  0.241E+02
  3.120  0.222E+02
  3.130  0.215E+02
  3.140  0.218E+02
  3.150  0.229E+02
  3.160  0.250E+02
  3.170  0.274E+02
  3.180  0.312E+02
  3.190  0.376E+02
  3.200  0.421E+02
  3.210  0.441E+02
  3.220  0.457E+02
  3.230  0.511E+02
  3.240  0.519E+02
  3.250  0.565E+02
  3.260  0.510E+02
  3.270  0.484E+02
  3.280  0.465E+02
  3.290  0.449E+02
  3.300  0.431E+02
  3.310  0.418E+02
  3.320  0.412E+02
  3.330  0.413E+02
  3.340  0.422E+02
  3.350  0.428E+02
  3.360  0.450E+02
  3.370  0.455E+02
  3.380  0.457E+02
  3.390  0.458E+02
  3.400  0.460E+02
  3.410  0.463E+02
  3.420  0.468E+02
  3.430  0.472E+02
  3.440  0.480E+02
  3.450  0.487E+02
  3.460  0.502E+02
  3.470  0.516E+02
  3.480  0.521E+02
  3.490  0.511E+02
  3.500  0.498E+02
  3.510  0.480E+02
  3.520  0.467E+02
  3.530  0.466E+02
  3.540  0.475E+02
  3.550  0.439E+02
  3.560  0.405E+02
  3.570  0.388E+02
  3.580  0.381E+02
  3.590  0.414E+02
  3.600  0.415E+02
  3.610  0.406E+02
  3.620  0.404E+02
  3.630  0.408E+02
  3.640  0.416E+02
  3.650  0.576E+02
  3.660  0.518E+02
  3.670  0.543E+02
  3.680  0.552E+02
  3.690  0.586E+02
  3.700  0.586E+02
  3.710  0.574E+02
  3.720  0.590E+02
  3.730  0.590E+02
  3.740  0.537E+02
  3.750  0.538E+02
  3.760  0.541E+02
  3.770  0.557E+02
  3.780  0.570E+02
  3.790  0.553E+02
  3.800  0.515E+02
  3.810  0.463E+02
  3.820  0.411E+02
  3.830  0.372E+02
  3.840  0.352E+02
  3.850  0.343E+02
  3.860  0.339E+02
  3.870  0.342E+02
  3.880  0.347E+02
  3.890  0.357E+02
  3.900  0.369E+02
  3.910  0.386E+02
  3.920  0.406E+02
  3.930  0.438E+02
  3.940  0.474E+02
  3.950  0.498E+02
  3.960  0.503E+02
  3.970  0.502E+02
  3.980  0.498E+02
  3.990  0.507E+02
  4.000  0.522E+02
  4.010  0.539E+02
  4.020  0.563E+02
  4.030  0.626E+02
  4.040  0.558E+02
  4.050  0.521E+02
  4.060  0.507E+02
  4.070  0.485E+02
  4.080  0.477E+02
  4.090  0.482E+02
  4.100  0.461E+02
  4.110  0.435E+02
  4.120  0.435E+02
  4.130  0.441E+02
  4.140  0.457E+02
  4.150  0.473E+02
  4.160  0.503E+02
  4.170  0.542E+02
  4.180  0.605E+02
  4.190  0.683E+02
  4.200  0.738E+02
  4.210  0.767E+02
  4.220  0.775E+02
  4.230  0.783E+02
  4.240  0.638E+02
  4.250  0.503E+02
  4.260  0.431E+02
  4.270  0.404E+02
  4.280  0.398E+02
  4.290  0.401E+02
  4.300  0.354E+02
  4.310  0.320E+02
  4.320  0.314E+02
  4.330  0.319E+02
  4.340  0.327E+02
  4.350  0.340E+02
  4.360  0.360E+02
  4.370  0.368E+02
  4.380  0.366E+02
  4.390  0.368E+02
  4.400  0.381E+02
  4.410  0.393E+02
  4.420  0.405E+02
  4.430  0.416E+02
  4.440  0.430E+02
  4.450  0.448E+02
  4.460  0.512E+02
  4.470  0.538E+02
  4.480  0.578E+02
  4.490  0.564E+02
  4.500  0.589E+02
  4.510  0.596E+02
  4.520  0.593E+02
  4.530  0.570E+02
  4.540  0.546E+02
  4.550  0.489E+02
  4.560  0.487E+02
  4.570  0.541E+02
  4.580  0.587E+02
  4.590  0.675E+02
  4.600  0.791E+02
  4.610  0.787E+02
  4.620  0.600E+02
  4.630  0.504E+02
  4.640  0.424E+02
  4.650  0.377E+02
  4.660  0.346E+02
  4.670  0.327E+02
  4.680  0.315E+02
  4.690  0.307E+02
  4.700  0.301E+02
  4.710  0.295E+02
  4.720  0.289E+02
  4.730  0.284E+02
  4.740  0.278E+02
  4.750  0.272E+02
  4.760  0.266E+02
  4.770  0.265E+02
  4.780  0.270E+02
  4.790  0.293E+02
  4.800  0.311E+02
  4.810  0.313E+02
  4.820  0.300E+02
  4.830  0.273E+02
  4.840  0.264E+02
  4.850  0.261E+02
  4.860  0.257E+02
  4.870  0.252E+02
  4.880  0.245E+02
  4.890  0.241E+02
  4.900  0.227E+02
  4.910  0.211E+02
  4.920  0.194E+02
  4.930  0.236E+02
  4.940  0.270E+02
  4.950  0.254E+02
  4.960  0.232E+02
  4.970  0.206E+02
  4.980  0.177E+02
  4.990  0.137E+02
  5.000  0.113E+02
  5.010  0.108E+02
  5.020  0.108E+02
  5.030  0.108E+02
  5.040  0.109E+02
  5.050  0.109E+02
  5.060  0.111E+02
  5.070  0.122E+02
  5.080  0.144E+02
  5.090  0.189E+02
  5.100  0.222E+02
  5.110  0.238E+02
  5.120  0.251E+02
  5.130  0.290E+02
  5.140  0.284E+02
  5.150  0.244E+02
  5.160  0.229E+02
  5.170  0.205E+02
  5.180  0.179E+02
  5.190  0.155E+02
  5.200  0.132E+02
  5.210  0.112E+02
  5.220  0.967E+01
  5.230  0.848E+01
  5.240  0.754E+01
  5.250  0.668E+01
  5.260  0.593E+01
  5.270  0.536E+01
  5.280  0.528E+01
  5.290  0.578E+01
  5.300  0.598E+01
  5.310  0.585E+01
  5.320  0.538E+01
  5.330  0.458E+01
  5.340  0.340E+01
  5.350  0.191E+01
  5.360  0.770E+00
  5.370  0.378E+00
  5.380  0.147E+00
  5.390  0.267E-01
  5.400  0.134E-02
  5.410  0.292E-03
  5.420  0.000E+00
  5.430  0.000E+00
  5.440  0.000E+00
  5.450  0.000E+00
  5.460  0.000E+00
  5.470  0.000E+00
  5.480  0.000E+00
  5.490  0.000E+00
  5.500  0.000E+00
  5.510  0.000E+00
  5.520  0.000E+00
  5.530  0.000E+00
  5.540  0.000E+00
  5.550  0.000E+00
  5.560  0.000E+00
  5.570  0.000E+00
  5.580  0.000E+00
  5.590  0.000E+00
  5.600  0.000E+00
  5.610  0.000E+00
  5.620  0.000E+00
  5.630  0.000E+00
  5.640  0.000E+00
  5.650  0.000E+00
  5.660  0.000E+00
  5.670  0.000E+00
  5.680  0.000E+00
  5.690  0.000E+00
  5.700  0.000E+00
  5.710  0.000E+00
  5.720  0.000E+00
  5.730  0.000E+00
  5.740  0.000E+00
  5.750  0.000E+00
  5.760  0.000E+00
  5.770  0.000E+00
  5.780  0.000E+00
  5.790  0.000E+00
  5.800  0.000E+00
  5.810  0.000E+00
  5.820  0.000E+00
  5.830  0.000E+00
  5.840  0.000E+00
  5.850  0.000E+00
  5.860  0.000E+00
  5.870  0.000E+00
  5.880  0.000E+00
  5.890  0.000E+00
  5.900  0.000E+00
  5.910  0.000E+00
  5.920  0.000E+00
  5.930  0.000E+00
  5.940  0.000E+00
  5.950  0.000E+00
  5.960  0.000E+00
  5.970  0.000E+00
  5.980  0.000E+00
  5.990  0.000E+00
  6.000  0.000E+00
  6.010  0.000E+00
  6.020  0.000E+00
  6.030  0.000E+00
  6.040  0.000E+00
  6.050  0.000E+00
  6.060  0.000E+00
  6.070  0.000E+00
  6.080  0.000E+00
  6.090  0.000E+00
  6.100  0.000E+00
  6.110  0.000E+00
  6.120  0.000E+00
  6.130  0.000E+00
  6.140  0.000E+00
  6.150  0.000E+00
  6.160  0.000E+00
  6.170  0.000E+00
  6.180  0.000E+00
  6.190  0.000E+00
  6.200  0.000E+00
  6.210  0.000E+00
  6.220  0.000E+00
  6.230  0.000E+00
  6.240  0.000E+00
  6.250  0.000E+00
  6.260  0.000E+00
  6.270  0.000E+00
  6.280  0.000E+00
  6.290  0.000E+00
  6.300  0.000E+00
  6.310  0.000E+00
  6.320  0.000E+00
  6.330  0.000E+00
  6.340  0.000E+00
  6.350  0.000E+00
  6.360  0.000E+00
  6.370  0.000E+00
  6.380  0.000E+00
  6.390  0.000E+00
  6.400  0.000E+00
  6.410  0.000E+00
  6.420  0.000E+00
  6.430  0.000E+00
  6.440  0.000E+00
  6.450  0.000E+00
  6.460  0.000E+00
  6.470  0.000E+00
  6.480  0.000E+00
  6.490  0.000E+00
  6.500  0.000E+00
  6.510  0.000E+00
  6.520  0.000E+00
  6.530  0.000E+00
  6.540  0.000E+00
  6.550  0.000E+00
  6.560  0.000E+00
  6.570  0.000E+00
  6.580  0.000E+00
  6.590  0.000E+00
  6.600  0.000E+00
  6.610  0.000E+00
  6.620  0.000E+00
  6.630  0.000E+00
  6.640  0.000E+00
  6.650  0.000E+00
  6.660  0.000E+00
  6.670  0.000E+00
  6.680  0.000E+00
  6.690  0.000E+00
  6.700  0.000E+00
  6.710  0.000E+00
  6.720  0.000E+00
  6.730  0.000E+00
  6.740  0.000E+00
  6.750  0.000E+00
  6.760  0.000E+00
  6.770  0.000E+00
  6.780  0.000E+00
  6.790  0.000E+00
  6.800  0.000E+00
  6.810  0.000E+00
  6.820  0.000E+00
  6.830  0.000E+00
  6.840  0.000E+00
  6.850  0.000E+00
  6.860  0.000E+00
  6.870  0.000E+00
  6.880  0.000E+00
  6.890  0.000E+00
  6.900  0.000E+00
  6.910  0.000E+00
  6.920  0.000E+00
  6.930  0.000E+00
  6.940  0.000E+00
  6.950  0.000E+00
  6.960  0.000E+00
  6.970  0.000E+00
  6.980  0.000E+00
  6.990  0.000E+00
  7.000  0.000E+00
  7.010  0.000E+00
  7.020  0.000E+00
  7.030  0.000E+00
  7.040  0.000E+00
  7.050  0.000E+00
  7.060  0.000E+00
  7.070  0.000E+00
  7.080  0.000E+00
  7.090  0.000E+00
  7.100  0.000E+00
  7.110  0.000E+00
  7.120  0.000E+00
  7.130  0.000E+00
  7.140  0.000E+00
  7.150  0.000E+00
  7.160  0.000E+00
  7.170  0.000E+00
  7.180  0.000E+00
  7.190  0.000E+00
  7.200  0.000E+00
  7.210  0.000E+00
  7.220  0.000E+00
  7.230  0.000E+00
  7.240  0.000E+00
  7.250  0.000E+00
  7.260  0.000E+00
  7.270  0.000E+00
  7.280  0.000E+00
  7.290  0.000E+00
  7.300  0.000E+00
  7.310  0.000E+00
  7.320  0.000E+00
  7.330  0.000E+00
  7.340  0.000E+00
  7.350  0.000E+00
  7.360  0.000E+00
  7.370  0.000E+00
  7.380  0.000E+00
  7.390  0.000E+00
  7.400  0.000E+00
  7.410  0.000E+00
  7.420  0.000E+00
  7.430  0.000E+00
  7.440  0.000E+00
  7.450  0.149E-05
  7.460  0.342E-04
  7.470  0.110E-03
  7.480  0.231E-03
  7.490  0.470E-03
  7.500  0.886E-03
  7.510  0.148E-02
  7.520  0.225E-02
  7.530  0.320E-02
  7.540  0.434E-02
  7.550  0.566E-02
  7.560  0.718E-02
  7.570  0.889E-02
  7.580  0.108E-01
  7.590  0.129E-01
  7.600  0.152E-01
  7.610  0.177E-01
  7.620  0.204E-01
  7.630  0.233E-01
  7.640  0.265E-01
  7.650  0.298E-01
  7.660  0.334E-01
  7.670  0.372E-01
  7.680  0.411E-01
  7.690  0.454E-01
  7.700  0.499E-01
  7.710  0.546E-01
  7.720  0.595E-01
  7.730  0.646E-01
  7.740  0.700E-01
  7.750  0.757E-01
  7.760  0.815E-01
  7.770  0.877E-01
  7.780  0.941E-01
  7.790  0.101E+00
  7.800  0.108E+00
  7.810  0.115E+00
  7.820  0.122E+00
  7.830  0.130E+00
  7.840  0.138E+00
  7.850  0.145E+00
  7.860  0.153E+00
  7.870  0.161E+00
  7.880  0.171E+00
  7.890  0.182E+00
  7.900  0.193E+00
  7.910  0.204E+00
  7.920  0.215E+00
  7.930  0.224E+00
  7.940  0.234E+00
  7.950  0.243E+00
  7.960  0.252E+00
  7.970  0.260E+00
  7.980  0.269E+00
  7.990  0.277E+00
  8.000  0.285E+00
  8.010  0.293E+00
  8.020  0.300E+00
  8.030  0.308E+00
  8.040  0.315E+00
  8.050  0.322E+00
  8.060  0.329E+00
  8.070  0.336E+00
  8.080  0.343E+00
  8.090  0.350E+00
  8.100  0.356E+00
  8.110  0.362E+00
  8.120  0.368E+00
  8.130  0.373E+00
  8.140  0.377E+00
  8.150  0.378E+00
  8.160  0.379E+00
  8.170  0.378E+00
  8.180  0.380E+00
  8.190  0.382E+00
  8.200  0.385E+00
  8.210  0.387E+00
  8.220  0.390E+00
  8.230  0.393E+00
  8.240  0.395E+00
  8.250  0.398E+00
  8.260  0.402E+00
  8.270  0.406E+00
  8.280  0.410E+00
  8.290  0.416E+00
  8.300  0.422E+00
  8.310  0.429E+00
  8.320  0.436E+00