# E (eV) pdosup(E)  pdosdw(E) 
-15.000  0.000E+00  0.000E+00
-14.990  0.000E+00  0.000E+00
-14.980  0.000E+00  0.000E+00
-14.970  0.000E+00  0.000E+00
-14.960  0.000E+00  0.000E+00
-14.950  0.000E+00  0.000E+00
-14.940  0.000E+00  0.000E+00
-14.930  0.000E+00  0.000E+00
-14.920  0.000E+00  0.000E+00
-14.910  0.000E+00  0.000E+00
-14.900  0.000E+00  0.000E+00
-14.890  0.000E+00  0.000E+00
-14.880  0.000E+00  0.000E+00
-14.870  0.000E+00  0.000E+00
-14.860  0.000E+00  0.000E+00
-14.850  0.000E+00  0.000E+00
-14.840  0.000E+00  0.000E+00
-14.830  0.000E+00  0.000E+00
-14.820  0.000E+00  0.000E+00
-14.810  0.000E+00  0.000E+00
-14.800  0.000E+00  0.000E+00
-14.790  0.000E+00  0.000E+00
-14.780  0.000E+00  0.000E+00
-14.770  0.000E+00  0.000E+00
-14.760  0.000E+00  0.000E+00
-14.750  0.000E+00  0.000E+00
-14.740  0.000E+00  0.000E+00
-14.730  0.000E+00  0.000E+00
-14.720  0.000E+00  0.000E+00
-14.710  0.000E+00  0.000E+00
-14.700  0.000E+00  0.000E+00
-14.690  0.000E+00  0.000E+00
-14.680  0.000E+00  0.000E+00
-14.670  0.000E+00  0.000E+00
-14.660  0.000E+00  0.000E+00
-14.650  0.000E+00  0.000E+00
-14.640  0.000E+00  0.000E+00
-14.630  0.000E+00  0.000E+00
-14.620  0.000E+00  0.000E+00
-14.610  0.000E+00  0.000E+00
-14.600  0.000E+00  0.000E+00
-14.590  0.000E+00  0.000E+00
-14.580  0.000E+00  0.000E+00
-14.570  0.000E+00  0.000E+00
-14.560  0.000E+00  0.000E+00
-14.550  0.000E+00  0.000E+00
-14.540  0.000E+00  0.000E+00
-14.530  0.000E+00  0.000E+00
-14.520  0.000E+00  0.000E+00
-14.510  0.000E+00  0.000E+00
-14.500  0.000E+00  0.000E+00
-14.490  0.000E+00  0.000E+00
-14.480  0.000E+00  0.000E+00
-14.470  0.000E+00  0.000E+00
-14.460  0.000E+00  0.000E+00
-14.450  0.000E+00  0.000E+00
-14.440  0.000E+00  0.000E+00
-14.430  0.000E+00  0.000E+00
-14.420  0.000E+00  0.000E+00
-14.410  0.000E+00  0.000E+00
-14.400  0.000E+00  0.000E+00
-14.390  0.000E+00  0.000E+00
-14.380  0.000E+00  0.000E+00
-14.370  0.000E+00  0.000E+00
-14.360  0.000E+00  0.000E+00
-14.350  0.000E+00  0.000E+00
-14.340  0.000E+00  0.000E+00
-14.330  0.000E+00  0.000E+00
-14.320  0.000E+00  0.000E+00
-14.310  0.000E+00  0.000E+00
-14.300  0.000E+00  0.000E+00
-14.290  0.000E+00  0.000E+00
-14.280  0.000E+00  0.000E+00
-14.270  0.000E+00  0.000E+00
-14.260  0.000E+00  0.000E+00
-14.250  0.000E+00  0.000E+00
-14.240  0.000E+00  0.000E+00
-14.230  0.000E+00  0.000E+00
-14.220  0.000E+00  0.000E+00
-14.210  0.000E+00  0.000E+00
-14.200  0.000E+00  0.000E+00
-14.190  0.000E+00  0.000E+00
-14.180  0.000E+00  0.000E+00
-14.170  0.000E+00  0.000E+00
-14.160  0.000E+00  0.000E+00
-14.150  0.000E+00  0.000E+00
-14.140  0.000E+00  0.000E+00
-14.130  0.000E+00  0.000E+00
-14.120  0.000E+00  0.000E+00
-14.110  0.000E+00  0.000E+00
-14.100  0.000E+00  0.000E+00
-14.090  0.000E+00  0.000E+00
-14.080  0.000E+00  0.000E+00
-14.070  0.000E+00  0.000E+00
-14.060  0.000E+00  0.000E+00
-14.050  0.000E+00  0.000E+00
-14.040  0.000E+00  0.000E+00
-14.030  0.000E+00  0.000E+00
-14.020  0.000E+00  0.000E+00
-14.010  0.000E+00  0.000E+00
-14.000  0.000E+00  0.000E+00
-13.990  0.000E+00  0.000E+00
-13.980  0.000E+00  0.000E+00
-13.970  0.000E+00  0.000E+00
-13.960  0.000E+00  0.000E+00
-13.950  0.000E+00  0.000E+00
-13.940  0.000E+00  0.000E+00
-13.930  0.000E+00  0.000E+00
-13.920  0.000E+00  0.000E+00
-13.910  0.000E+00  0.000E+00
-13.900  0.000E+00  0.000E+00
-13.890  0.000E+00  0.000E+00
-13.880  0.000E+00  0.000E+00
-13.870  0.000E+00  0.000E+00
-13.860  0.000E+00  0.000E+00
-13.850  0.000E+00  0.000E+00
-13.840  0.000E+00  0.000E+00
-13.830  0.000E+00  0.000E+00
-13.820  0.000E+00  0.000E+00
-13.810  0.000E+00  0.000E+00
-13.800  0.000E+00  0.000E+00
-13.790  0.000E+00  0.000E+00
-13.780  0.000E+00  0.000E+00
-13.770  0.000E+00  0.000E+00
-13.760  0.000E+00  0.000E+00
-13.750  0.000E+00  0.000E+00
-13.740  0.000E+00  0.000E+00
-13.730  0.000E+00  0.000E+00
-13.720  0.000E+00  0.000E+00
-13.710  0.000E+00  0.000E+00
-13.700  0.000E+00  0.000E+00
-13.690  0.000E+00  0.000E+00
-13.680  0.000E+00  0.000E+00
-13.670  0.000E+00  0.000E+00
-13.660  0.000E+00  0.000E+00
-13.650  0.000E+00  0.000E+00
-13.640  0.000E+00  0.000E+00
-13.630  0.000E+00  0.000E+00
-13.620  0.000E+00  0.000E+00
-13.610  0.000E+00  0.000E+00
-13.600  0.000E+00  0.000E+00
-13.590  0.000E+00  0.000E+00
-13.580  0.000E+00  0.000E+00
-13.570  0.000E+00  0.000E+00
-13.560  0.000E+00  0.000E+00
-13.550  0.000E+00  0.000E+00
-13.540  0.000E+00  0.000E+00
-13.530  0.000E+00  0.000E+00
-13.520  0.000E+00  0.000E+00
-13.510  0.000E+00  0.000E+00
-13.500  0.000E+00  0.000E+00
-13.490  0.000E+00  0.000E+00
-13.480  0.000E+00  0.000E+00
-13.470  0.000E+00  0.000E+00
-13.460  0.000E+00  0.000E+00
-13.450  0.000E+00  0.000E+00
-13.440  0.000E+00  0.000E+00
-13.430  0.000E+00  0.000E+00
-13.420  0.000E+00  0.000E+00
-13.410  0.000E+00  0.000E+00
-13.400  0.000E+00  0.000E+00
-13.390  0.000E+00  0.000E+00
-13.380  0.000E+00  0.000E+00
-13.370  0.000E+00  0.000E+00
-13.360  0.000E+00  0.000E+00
-13.350  0.000E+00  0.000E+00
-13.340  0.000E+00  0.000E+00
-13.330  0.000E+00  0.000E+00
-13.320  0.000E+00  0.000E+00
-13.310  0.000E+00  0.000E+00
-13.300  0.000E+00  0.000E+00
-13.290  0.000E+00  0.000E+00
-13.280  0.000E+00  0.000E+00
-13.270  0.000E+00  0.000E+00
-13.260  0.000E+00  0.000E+00
-13.250  0.000E+00  0.000E+00
-13.240  0.000E+00  0.000E+00
-13.230  0.000E+00  0.000E+00
-13.220  0.000E+00  0.000E+00
-13.210  0.000E+00  0.000E+00
-13.200  0.000E+00  0.000E+00
-13.190  0.000E+00  0.000E+00
-13.180  0.000E+00  0.000E+00
-13.170  0.000E+00  0.000E+00
-13.160  0.000E+00  0.000E+00
-13.150  0.000E+00  0.000E+00
-13.140  0.000E+00  0.000E+00
-13.130  0.000E+00  0.000E+00
-13.120  0.000E+00  0.000E+00
-13.110  0.000E+00  0.000E+00
-13.100  0.000E+00  0.000E+00
-13.090  0.000E+00  0.000E+00
-13.080  0.000E+00  0.000E+00
-13.070  0.000E+00  0.000E+00
-13.060  0.000E+00  0.000E+00
-13.050  0.000E+00  0.000E+00
-13.040  0.000E+00  0.000E+00
-13.030  0.000E+00  0.000E+00
-13.020  0.000E+00  0.000E+00
-13.010  0.000E+00  0.000E+00
-13.000  0.000E+00  0.000E+00
-12.990  0.000E+00  0.000E+00
-12.980  0.000E+00  0.000E+00
-12.970  0.000E+00  0.000E+00
-12.960  0.000E+00  0.000E+00
-12.950  0.000E+00  0.000E+00
-12.940  0.000E+00  0.000E+00
-12.930  0.000E+00  0.000E+00
-12.920  0.000E+00  0.000E+00
-12.910  0.000E+00  0.000E+00
-12.900  0.000E+00  0.000E+00
-12.890  0.000E+00  0.000E+00
-12.880  0.000E+00  0.000E+00
-12.870  0.000E+00  0.000E+00
-12.860  0.000E+00  0.000E+00
-12.850  0.000E+00  0.000E+00
-12.840  0.000E+00  0.000E+00
-12.830  0.000E+00  0.000E+00
-12.820  0.000E+00  0.000E+00
-12.810  0.000E+00  0.000E+00
-12.800  0.000E+00  0.000E+00
-12.790  0.000E+00  0.000E+00
-12.780  0.000E+00  0.000E+00
-12.770  0.000E+00  0.000E+00
-12.760  0.000E+00  0.000E+00
-12.750  0.000E+00  0.000E+00
-12.740  0.000E+00  0.000E+00
-12.730  0.000E+00  0.000E+00
-12.720  0.000E+00  0.000E+00
-12.710  0.000E+00  0.000E+00
-12.700  0.000E+00  0.000E+00
-12.690  0.000E+00  0.000E+00
-12.680  0.000E+00  0.000E+00
-12.670  0.000E+00  0.000E+00
-12.660  0.000E+00  0.000E+00
-12.650  0.000E+00  0.000E+00
-12.640  0.000E+00  0.000E+00
-12.630  0.000E+00  0.000E+00
-12.620  0.000E+00  0.000E+00
-12.610  0.000E+00  0.000E+00
-12.600  0.000E+00  0.000E+00
-12.590  0.000E+00  0.000E+00
-12.580  0.000E+00  0.000E+00
-12.570  0.000E+00  0.000E+00
-12.560  0.000E+00  0.000E+00
-12.550  0.000E+00  0.000E+00
-12.540  0.000E+00  0.000E+00
-12.530  0.000E+00  0.000E+00
-12.520  0.000E+00  0.000E+00
-12.510  0.000E+00  0.000E+00
-12.500  0.000E+00  0.000E+00
-12.490  0.000E+00  0.000E+00
-12.480  0.000E+00  0.000E+00
-12.470  0.000E+00  0.000E+00
-12.460  0.000E+00  0.000E+00
-12.450  0.000E+00  0.000E+00
-12.440  0.000E+00  0.000E+00
-12.430  0.000E+00  0.000E+00
-12.420  0.000E+00  0.000E+00
-12.410  0.000E+00  0.000E+00
-12.400  0.000E+00  0.000E+00
-12.390  0.000E+00  0.000E+00
-12.380  0.000E+00  0.000E+00
-12.370  0.000E+00  0.000E+00
-12.360  0.000E+00  0.000E+00
-12.350  0.000E+00  0.000E+00
-12.340  0.000E+00  0.000E+00
-12.330  0.000E+00  0.000E+00
-12.320  0.000E+00  0.000E+00
-12.310  0.000E+00  0.000E+00
-12.300  0.000E+00  0.000E+00
-12.290  0.000E+00  0.000E+00
-12.280  0.000E+00  0.000E+00
-12.270  0.000E+00  0.000E+00
-12.260  0.000E+00  0.000E+00
-12.250  0.000E+00  0.000E+00
-12.240  0.000E+00  0.000E+00
-12.230  0.000E+00  0.000E+00
-12.220  0.000E+00  0.000E+00
-12.210  0.000E+00  0.000E+00
-12.200  0.000E+00  0.000E+00
-12.190  0.000E+00  0.000E+00
-12.180  0.000E+00  0.000E+00
-12.170  0.000E+00  0.000E+00
-12.160  0.000E+00  0.000E+00
-12.150  0.000E+00  0.000E+00
-12.140  0.000E+00  0.000E+00
-12.130  0.000E+00  0.000E+00
-12.120  0.000E+00  0.000E+00
-12.110  0.000E+00  0.000E+00
-12.100  0.000E+00  0.000E+00
-12.090  0.000E+00  0.000E+00
-12.080  0.000E+00  0.000E+00
-12.070  0.000E+00  0.000E+00
-12.060  0.000E+00  0.000E+00
-12.050  0.000E+00  0.000E+00
-12.040  0.000E+00  0.000E+00
-12.030  0.000E+00  0.000E+00
-12.020  0.000E+00  0.000E+00
-12.010  0.000E+00  0.000E+00
-12.000  0.000E+00  0.000E+00
-11.990  0.000E+00  0.000E+00
-11.980  0.000E+00  0.000E+00
-11.970  0.000E+00  0.000E+00
-11.960  0.000E+00  0.000E+00
-11.950  0.000E+00  0.000E+00
-11.940  0.000E+00  0.000E+00
-11.930  0.000E+00  0.000E+00
-11.920  0.000E+00  0.000E+00
-11.910  0.000E+00  0.000E+00
-11.900  0.000E+00  0.000E+00
-11.890  0.000E+00  0.000E+00
-11.880  0.000E+00  0.000E+00
-11.870  0.000E+00  0.000E+00
-11.860  0.000E+00  0.000E+00
-11.850  0.000E+00  0.000E+00
-11.840  0.000E+00  0.000E+00
-11.830  0.000E+00  0.000E+00
-11.820  0.000E+00  0.000E+00
-11.810  0.000E+00  0.000E+00
-11.800  0.000E+00  0.000E+00
-11.790  0.000E+00  0.000E+00
-11.780  0.000E+00  0.000E+00
-11.770  0.000E+00  0.000E+00
-11.760  0.000E+00  0.000E+00
-11.750  0.000E+00  0.000E+00
-11.740  0.000E+00  0.000E+00
-11.730  0.000E+00  0.000E+00
-11.720  0.000E+00  0.000E+00
-11.710  0.000E+00  0.000E+00
-11.700  0.000E+00  0.000E+00
-11.690  0.000E+00  0.000E+00
-11.680  0.000E+00  0.000E+00
-11.670  0.000E+00  0.000E+00
-11.660  0.000E+00  0.000E+00
-11.650  0.000E+00  0.000E+00
-11.640  0.000E+00  0.000E+00
-11.630  0.000E+00  0.000E+00
-11.620  0.000E+00  0.000E+00
-11.610  0.000E+00  0.000E+00
-11.600  0.000E+00  0.000E+00
-11.590  0.000E+00  0.000E+00
-11.580  0.000E+00  0.000E+00
-11.570  0.000E+00  0.000E+00
-11.560  0.000E+00  0.000E+00
-11.550  0.000E+00  0.000E+00
-11.540  0.000E+00  0.000E+00
-11.530  0.000E+00  0.000E+00
-11.520  0.000E+00  0.000E+00
-11.510  0.000E+00  0.000E+00
-11.500  0.000E+00  0.000E+00
-11.490  0.000E+00  0.000E+00
-11.480  0.000E+00  0.000E+00
-11.470  0.000E+00  0.000E+00
-11.460  0.000E+00  0.000E+00
-11.450  0.000E+00  0.000E+00
-11.440  0.000E+00  0.000E+00
-11.430  0.000E+00  0.000E+00
-11.420  0.000E+00  0.000E+00
-11.410  0.000E+00  0.000E+00
-11.400  0.000E+00  0.000E+00
-11.390  0.000E+00  0.000E+00
-11.380  0.000E+00  0.000E+00
-11.370  0.000E+00  0.000E+00
-11.360  0.000E+00  0.000E+00
-11.350  0.000E+00  0.000E+00
-11.340  0.000E+00  0.000E+00
-11.330  0.000E+00  0.000E+00
-11.320  0.000E+00  0.000E+00
-11.310  0.000E+00  0.000E+00
-11.300  0.000E+00  0.000E+00
-11.290  0.000E+00  0.000E+00
-11.280  0.000E+00  0.000E+00
-11.270  0.000E+00  0.000E+00
-11.260  0.000E+00  0.000E+00
-11.250  0.000E+00  0.000E+00
-11.240  0.000E+00  0.000E+00
-11.230  0.000E+00  0.000E+00
-11.220  0.000E+00  0.000E+00
-11.210  0.000E+00  0.000E+00
-11.200  0.000E+00  0.000E+00
-11.190  0.000E+00  0.000E+00
-11.180  0.000E+00  0.000E+00
-11.170  0.000E+00  0.000E+00
-11.160  0.000E+00  0.000E+00
-11.150  0.000E+00  0.000E+00
-11.140  0.000E+00  0.000E+00
-11.130  0.000E+00  0.000E+00
-11.120  0.000E+00  0.000E+00
-11.110  0.000E+00  0.000E+00
-11.100  0.000E+00  0.000E+00
-11.090  0.000E+00  0.000E+00
-11.080  0.000E+00  0.000E+00
-11.070  0.000E+00  0.000E+00
-11.060  0.000E+00  0.000E+00
-11.050  0.000E+00  0.000E+00
-11.040  0.000E+00  0.000E+00
-11.030  0.000E+00  0.000E+00
-11.020  0.000E+00  0.000E+00
-11.010  0.000E+00  0.000E+00
-11.000  0.000E+00  0.000E+00
-10.990  0.000E+00  0.000E+00
-10.980  0.000E+00  0.000E+00
-10.970  0.000E+00  0.000E+00
-10.960  0.000E+00  0.000E+00
-10.950  0.000E+00  0.000E+00
-10.940  0.000E+00  0.000E+00
-10.930  0.000E+00  0.000E+00
-10.920  0.000E+00  0.000E+00
-10.910  0.000E+00  0.000E+00
-10.900  0.000E+00  0.000E+00
-10.890  0.000E+00  0.000E+00
-10.880  0.000E+00  0.000E+00
-10.870  0.000E+00  0.000E+00
-10.860  0.000E+00  0.000E+00
-10.850  0.000E+00  0.000E+00
-10.840  0.000E+00  0.000E+00
-10.830  0.000E+00  0.000E+00
-10.820  0.000E+00  0.000E+00
-10.810  0.000E+00  0.000E+00
-10.800  0.000E+00  0.000E+00
-10.790  0.000E+00  0.000E+00
-10.780  0.000E+00  0.000E+00
-10.770  0.000E+00  0.000E+00
-10.760  0.000E+00  0.000E+00
-10.750  0.000E+00  0.000E+00
-10.740  0.000E+00  0.000E+00
-10.730  0.000E+00  0.000E+00
-10.720  0.000E+00  0.000E+00
-10.710  0.000E+00  0.000E+00
-10.700  0.000E+00  0.000E+00
-10.690  0.000E+00  0.000E+00
-10.680  0.000E+00  0.000E+00
-10.670  0.000E+00  0.000E+00
-10.660  0.000E+00  0.000E+00
-10.650  0.000E+00  0.000E+00
-10.640  0.000E+00  0.000E+00
-10.630  0.000E+00  0.000E+00
-10.620  0.000E+00  0.000E+00
-10.610  0.000E+00  0.000E+00
-10.600  0.000E+00  0.000E+00
-10.590  0.000E+00  0.000E+00
-10.580  0.000E+00  0.000E+00
-10.570  0.000E+00  0.000E+00
-10.560  0.000E+00  0.000E+00
-10.550  0.000E+00  0.000E+00
-10.540  0.000E+00  0.000E+00
-10.530  0.000E+00  0.000E+00
-10.520  0.000E+00  0.000E+00
-10.510  0.000E+00  0.000E+00
-10.500  0.000E+00  0.000E+00
-10.490  0.000E+00  0.000E+00
-10.480  0.000E+00  0.000E+00
-10.470  0.000E+00  0.000E+00
-10.460  0.000E+00  0.000E+00
-10.450  0.000E+00  0.000E+00
-10.440  0.000E+00  0.000E+00
-10.430  0.000E+00  0.000E+00
-10.420  0.000E+00  0.000E+00
-10.410  0.000E+00  0.000E+00
-10.400  0.000E+00  0.000E+00
-10.390  0.000E+00  0.000E+00
-10.380  0.000E+00  0.000E+00
-10.370  0.000E+00  0.000E+00
-10.360  0.000E+00  0.000E+00
-10.350  0.000E+00  0.000E+00
-10.340  0.000E+00  0.000E+00
-10.330  0.000E+00  0.000E+00
-10.320  0.000E+00  0.000E+00
-10.310  0.000E+00  0.000E+00
-10.300  0.000E+00  0.000E+00
-10.290  0.000E+00  0.000E+00
-10.280  0.000E+00  0.000E+00
-10.270  0.000E+00  0.000E+00
-10.260  0.000E+00  0.000E+00
-10.250  0.000E+00  0.000E+00
-10.240  0.000E+00  0.000E+00
-10.230  0.000E+00  0.000E+00
-10.220  0.000E+00  0.000E+00
-10.210  0.000E+00  0.000E+00
-10.200  0.000E+00  0.000E+00
-10.190  0.000E+00  0.000E+00
-10.180  0.000E+00  0.000E+00
-10.170  0.000E+00  0.000E+00
-10.160  0.000E+00  0.000E+00
-10.150  0.000E+00  0.000E+00
-10.140  0.000E+00  0.000E+00
-10.130  0.000E+00  0.000E+00
-10.120  0.000E+00  0.000E+00
-10.110  0.000E+00  0.000E+00
-10.100  0.000E+00  0.000E+00
-10.090  0.000E+00  0.000E+00
-10.080  0.000E+00  0.000E+00
-10.070  0.000E+00  0.000E+00
-10.060  0.000E+00  0.000E+00
-10.050  0.000E+00  0.000E+00
-10.040  0.000E+00  0.000E+00
-10.030  0.000E+00  0.000E+00
-10.020  0.000E+00  0.000E+00
-10.010  0.000E+00  0.000E+00
-10.000  0.000E+00  0.000E+00
 -9.990  0.000E+00  0.000E+00
 -9.980  0.000E+00  0.000E+00
 -9.970  0.000E+00  0.000E+00
 -9.960  0.000E+00  0.000E+00
 -9.950  0.000E+00  0.000E+00
 -9.940  0.000E+00  0.000E+00
 -9.930  0.000E+00  0.000E+00
 -9.920  0.000E+00  0.000E+00
 -9.910  0.000E+00  0.000E+00
 -9.900  0.000E+00  0.000E+00
 -9.890  0.000E+00  0.000E+00
 -9.880  0.000E+00  0.000E+00
 -9.870  0.000E+00  0.000E+00
 -9.860  0.000E+00  0.000E+00
 -9.850  0.000E+00  0.000E+00
 -9.840  0.000E+00  0.000E+00
 -9.830  0.000E+00  0.000E+00
 -9.820  0.000E+00  0.000E+00
 -9.810  0.000E+00  0.000E+00
 -9.800  0.000E+00  0.000E+00
 -9.790  0.000E+00  0.000E+00
 -9.780  0.000E+00  0.000E+00
 -9.770  0.000E+00  0.000E+00
 -9.760  0.000E+00  0.000E+00
 -9.750  0.000E+00  0.000E+00
 -9.740  0.000E+00  0.000E+00
 -9.730  0.000E+00  0.000E+00
 -9.720  0.000E+00  0.000E+00
 -9.710  0.000E+00  0.000E+00
 -9.700  0.000E+00  0.000E+00
 -9.690  0.000E+00  0.000E+00
 -9.680  0.000E+00  0.000E+00
 -9.670  0.000E+00  0.000E+00
 -9.660  0.000E+00  0.000E+00
 -9.650  0.000E+00  0.000E+00
 -9.640  0.000E+00  0.000E+00
 -9.630  0.000E+00  0.000E+00
 -9.620  0.000E+00  0.000E+00
 -9.610  0.000E+00  0.000E+00
 -9.600  0.000E+00  0.000E+00
 -9.590  0.000E+00  0.000E+00
 -9.580  0.000E+00  0.000E+00
 -9.570  0.000E+00  0.000E+00
 -9.560  0.000E+00  0.000E+00
 -9.550  0.000E+00  0.000E+00
 -9.540  0.000E+00  0.000E+00
 -9.530  0.000E+00  0.000E+00
 -9.520  0.000E+00  0.000E+00
 -9.510  0.000E+00  0.000E+00
 -9.500  0.000E+00  0.000E+00
 -9.490  0.000E+00  0.000E+00
 -9.480  0.000E+00  0.000E+00
 -9.470  0.000E+00  0.000E+00
 -9.460  0.000E+00  0.000E+00
 -9.450  0.000E+00  0.000E+00
 -9.440  0.000E+00  0.000E+00
 -9.430  0.000E+00  0.000E+00
 -9.420  0.000E+00  0.000E+00
 -9.410  0.000E+00  0.000E+00
 -9.400  0.000E+00  0.000E+00
 -9.390  0.000E+00  0.000E+00
 -9.380  0.000E+00  0.000E+00
 -9.370  0.000E+00  0.000E+00
 -9.360  0.000E+00  0.000E+00
 -9.350  0.000E+00  0.000E+00
 -9.340  0.000E+00  0.000E+00
 -9.330  0.000E+00  0.000E+00
 -9.320  0.000E+00  0.000E+00
 -9.310  0.000E+00  0.000E+00
 -9.300  0.000E+00  0.000E+00
 -9.290  0.000E+00  0.000E+00
 -9.280  0.000E+00  0.000E+00
 -9.270  0.000E+00  0.000E+00
 -9.260  0.000E+00  0.000E+00
 -9.250  0.000E+00  0.000E+00
 -9.240  0.000E+00  0.000E+00
 -9.230  0.000E+00  0.000E+00
 -9.220  0.000E+00  0.000E+00
 -9.210  0.000E+00  0.000E+00
 -9.200  0.000E+00  0.000E+00
 -9.190  0.000E+00  0.000E+00
 -9.180  0.000E+00  0.000E+00
 -9.170  0.000E+00  0.000E+00
 -9.160  0.000E+00  0.000E+00
 -9.150  0.000E+00  0.000E+00
 -9.140  0.000E+00  0.000E+00
 -9.130  0.000E+00  0.000E+00
 -9.120  0.000E+00  0.000E+00
 -9.110  0.000E+00  0.000E+00
 -9.100  0.000E+00  0.000E+00
 -9.090  0.000E+00  0.000E+00
 -9.080  0.000E+00  0.000E+00
 -9.070  0.000E+00  0.000E+00
 -9.060  0.000E+00  0.000E+00
 -9.050  0.000E+00  0.000E+00
 -9.040  0.000E+00  0.000E+00
 -9.030  0.000E+00  0.000E+00
 -9.020  0.000E+00  0.000E+00
 -9.010  0.000E+00  0.000E+00
 -9.000  0.000E+00  0.000E+00
 -8.990  0.000E+00  0.000E+00
 -8.980  0.000E+00  0.000E+00
 -8.970  0.000E+00  0.000E+00
 -8.960  0.000E+00  0.000E+00
 -8.950  0.000E+00  0.000E+00
 -8.940  0.000E+00  0.000E+00
 -8.930  0.000E+00  0.000E+00
 -8.920  0.000E+00  0.000E+00
 -8.910  0.000E+00  0.000E+00
 -8.900  0.000E+00  0.000E+00
 -8.890  0.000E+00  0.000E+00
 -8.880  0.000E+00  0.000E+00
 -8.870  0.000E+00  0.000E+00
 -8.860  0.000E+00  0.000E+00
 -8.850  0.000E+00  0.000E+00
 -8.840  0.000E+00  0.000E+00
 -8.830  0.000E+00  0.000E+00
 -8.820  0.000E+00  0.000E+00
 -8.810  0.000E+00  0.000E+00
 -8.800  0.000E+00  0.000E+00
 -8.790  0.000E+00  0.000E+00
 -8.780  0.000E+00  0.000E+00
 -8.770  0.000E+00  0.000E+00
 -8.760  0.000E+00  0.000E+00
 -8.750  0.000E+00  0.000E+00
 -8.740  0.000E+00  0.000E+00
 -8.730  0.000E+00  0.000E+00
 -8.720  0.000E+00  0.000E+00
 -8.710  0.000E+00  0.000E+00
 -8.700  0.000E+00  0.000E+00
 -8.690  0.000E+00  0.000E+00
 -8.680  0.000E+00  0.000E+00
 -8.670  0.000E+00  0.000E+00
 -8.660  0.000E+00  0.000E+00
 -8.650  0.000E+00  0.000E+00
 -8.640  0.000E+00  0.000E+00
 -8.630  0.000E+00  0.000E+00
 -8.620  0.000E+00  0.000E+00
 -8.610  0.000E+00  0.000E+00
 -8.600  0.000E+00  0.000E+00
 -8.590  0.000E+00  0.000E+00
 -8.580  0.000E+00  0.000E+00
 -8.570  0.000E+00  0.000E+00
 -8.560  0.000E+00  0.000E+00
 -8.550  0.000E+00  0.000E+00
 -8.540  0.000E+00  0.000E+00
 -8.530  0.000E+00  0.000E+00
 -8.520  0.000E+00  0.000E+00
 -8.510  0.000E+00  0.000E+00
 -8.500  0.000E+00  0.000E+00
 -8.490  0.000E+00  0.000E+00
 -8.480  0.000E+00  0.000E+00
 -8.470  0.000E+00  0.000E+00
 -8.460  0.000E+00  0.000E+00
 -8.450  0.000E+00  0.000E+00
 -8.440  0.000E+00  0.000E+00
 -8.430  0.000E+00  0.000E+00
 -8.420  0.000E+00  0.000E+00
 -8.410  0.000E+00  0.000E+00
 -8.400  0.000E+00  0.000E+00
 -8.390  0.000E+00  0.000E+00
 -8.380  0.000E+00  0.000E+00
 -8.370  0.000E+00  0.000E+00
 -8.360  0.000E+00  0.000E+00
 -8.350  0.000E+00  0.000E+00
 -8.340  0.000E+00  0.000E+00
 -8.330  0.000E+00  0.000E+00
 -8.320  0.000E+00  0.000E+00
 -8.310  0.000E+00  0.000E+00
 -8.300  0.000E+00  0.000E+00
 -8.290  0.000E+00  0.000E+00
 -8.280  0.000E+00  0.000E+00
 -8.270  0.000E+00  0.000E+00
 -8.260  0.000E+00  0.000E+00
 -8.250  0.000E+00  0.000E+00
 -8.240  0.000E+00  0.000E+00
 -8.230  0.000E+00  0.000E+00
 -8.220  0.000E+00  0.000E+00
 -8.210  0.000E+00  0.000E+00
 -8.200  0.000E+00  0.000E+00
 -8.190  0.000E+00  0.000E+00
 -8.180  0.000E+00  0.000E+00
 -8.170  0.000E+00  0.000E+00
 -8.160  0.000E+00  0.000E+00
 -8.150  0.000E+00  0.000E+00
 -8.140  0.000E+00  0.000E+00
 -8.130  0.000E+00  0.000E+00
 -8.120  0.000E+00  0.000E+00
 -8.110  0.000E+00  0.000E+00
 -8.100  0.000E+00  0.000E+00
 -8.090  0.000E+00  0.000E+00
 -8.080  0.000E+00  0.000E+00
 -8.070  0.000E+00  0.000E+00
 -8.060  0.000E+00  0.000E+00
 -8.050  0.000E+00  0.000E+00
 -8.040  0.000E+00  0.000E+00
 -8.030  0.000E+00  0.000E+00
 -8.020  0.000E+00  0.000E+00
 -8.010  0.000E+00  0.000E+00
 -8.000  0.000E+00  0.000E+00
 -7.990  0.000E+00  0.000E+00
 -7.980  0.000E+00  0.000E+00
 -7.970  0.000E+00  0.000E+00
 -7.960  0.000E+00  0.000E+00
 -7.950  0.000E+00  0.000E+00
 -7.940  0.000E+00  0.000E+00
 -7.930  0.000E+00  0.000E+00
 -7.920  0.000E+00  0.000E+00
 -7.910  0.000E+00  0.000E+00
 -7.900  0.000E+00  0.000E+00
 -7.890  0.000E+00  0.000E+00
 -7.880  0.000E+00  0.000E+00
 -7.870  0.000E+00  0.000E+00
 -7.860  0.000E+00  0.000E+00
 -7.850  0.000E+00  0.000E+00
 -7.840  0.000E+00  0.000E+00
 -7.830  0.000E+00  0.000E+00
 -7.820  0.000E+00  0.000E+00
 -7.810  0.000E+00  0.000E+00
 -7.800  0.000E+00  0.000E+00
 -7.790  0.000E+00  0.000E+00
 -7.780  0.000E+00  0.000E+00
 -7.770  0.000E+00  0.000E+00
 -7.760  0.000E+00  0.000E+00
 -7.750  0.000E+00  0.000E+00
 -7.740  0.000E+00  0.000E+00
 -7.730  0.000E+00  0.000E+00
 -7.720  0.000E+00  0.000E+00
 -7.710  0.000E+00  0.000E+00
 -7.700  0.000E+00  0.000E+00
 -7.690  0.000E+00  0.000E+00
 -7.680  0.000E+00  0.000E+00
 -7.670  0.000E+00  0.000E+00
 -7.660  0.000E+00  0.000E+00
 -7.650  0.000E+00  0.000E+00
 -7.640  0.000E+00  0.000E+00
 -7.630  0.000E+00  0.000E+00
 -7.620  0.310E-09  0.000E+00
 -7.610  0.447E-07  0.675E-09
 -7.600  0.317E-06  0.551E-07
 -7.590  0.884E-06  0.358E-06
 -7.580  0.147E-05  0.965E-06
 -7.570  0.186E-05  0.157E-05
 -7.560  0.215E-05  0.197E-05
 -7.550  0.251E-05  0.225E-05
 -7.540  0.290E-05  0.262E-05
 -7.530  0.365E-05  0.302E-05
 -7.520  0.475E-05  0.378E-05
 -7.510  0.543E-05  0.489E-05
 -7.500  0.522E-05  0.562E-05
 -7.490  0.447E-05  0.545E-05
 -7.480  0.397E-05  0.466E-05
 -7.470  0.360E-05  0.413E-05
 -7.460  0.300E-05  0.373E-05
 -7.450  0.270E-05  0.311E-05
 -7.440  0.300E-05  0.284E-05
 -7.430  0.550E-05  0.319E-05
 -7.420  0.955E-05  0.571E-05
 -7.410  0.139E-04  0.967E-05
 -7.400  0.169E-04  0.138E-04
 -7.390  0.180E-04  0.167E-04
 -7.380  0.178E-04  0.179E-04
 -7.370  0.160E-04  0.178E-04
 -7.360  0.140E-04  0.163E-04
 -7.350  0.129E-04  0.144E-04
 -7.340  0.227E-04  0.133E-04
 -7.330  0.111E-04  0.192E-04
 -7.320  0.785E-05  0.125E-04
 -7.310  0.101E-04  0.760E-05
 -7.300  0.170E-04  0.977E-05
 -7.290  0.229E-04  0.174E-04
 -7.280  0.170E-04  0.224E-04
 -7.270  0.157E-04  0.170E-04
 -7.260  0.195E-04  0.156E-04
 -7.250  0.204E-04  0.185E-04
 -7.240  0.231E-04  0.224E-04
 -7.230  0.244E-04  0.229E-04
 -7.220  0.247E-04  0.238E-04
 -7.210  0.250E-04  0.244E-04
 -7.200  0.299E-04  0.250E-04
 -7.190  0.317E-04  0.295E-04
 -7.180  0.368E-04  0.308E-04
 -7.170  0.392E-04  0.389E-04
 -7.160  0.308E-04  0.405E-04
 -7.150  0.192E-04  0.353E-04
 -7.140  0.182E-04  0.188E-04
 -7.130  0.977E-05  0.201E-04
 -7.120  0.835E-05  0.105E-04
 -7.110  0.169E-04  0.791E-05
 -7.100  0.314E-04  0.145E-04
 -7.090  0.252E-04  0.250E-04
 -7.080  0.133E-04  0.264E-04
 -7.070  0.209E-04  0.185E-04
 -7.060  0.306E-04  0.229E-04
 -7.050  0.693E-04  0.329E-04
 -7.040  0.661E-04  0.912E-04
 -7.030  0.609E-04  0.723E-04
 -7.020  0.113E-03  0.785E-04
 -7.010  0.605E-04  0.805E-04
 -7.000  0.552E-04  0.567E-04
 -6.990  0.406E-04  0.614E-04
 -6.980  0.603E-04  0.499E-04
 -6.970  0.383E-04  0.567E-04
 -6.960  0.370E-04  0.460E-04
 -6.950  0.650E-04  0.496E-04
 -6.940  0.384E-04  0.490E-04
 -6.930  0.838E-04  0.693E-04
 -6.920  0.856E-04  0.540E-04
 -6.910  0.650E-04  0.674E-04
 -6.900  0.124E-03  0.812E-04
 -6.890  0.103E-03  0.116E-03
 -6.880  0.101E-03  0.934E-04
 -6.870  0.474E-04  0.976E-04
 -6.860  0.485E-04  0.558E-04
 -6.850  0.122E-03  0.587E-04
 -6.840  0.796E-04  0.145E-03
 -6.830  0.501E-04  0.794E-04
 -6.820  0.808E-05  0.219E-04
 -6.810  0.285E-04  0.102E-04
 -6.800  0.295E-04  0.110E-03
 -6.790  0.102E-05  0.189E-09
 -6.780  0.837E-04  0.117E-03
 -6.770  0.983E-04  0.103E-03
 -6.760  0.226E-04  0.174E-04
 -6.750  0.245E-04  0.232E-04
 -6.740  0.276E-04  0.232E-04
 -6.730  0.171E-04  0.186E-04
 -6.720  0.216E-04  0.221E-04
 -6.710  0.197E-04  0.222E-04
 -6.700  0.915E-05  0.105E-04
 -6.690  0.771E-06  0.155E-05
 -6.680  0.000E+00  0.000E+00
 -6.670  0.000E+00  0.000E+00
 -6.660  0.000E+00  0.000E+00
 -6.650  0.000E+00  0.000E+00
 -6.640  0.000E+00  0.000E+00
 -6.630  0.000E+00  0.000E+00
 -6.620  0.000E+00  0.000E+00
 -6.610  0.000E+00  0.000E+00
 -6.600  0.000E+00  0.000E+00
 -6.590  0.000E+00  0.000E+00
 -6.580  0.000E+00  0.000E+00
 -6.570  0.000E+00  0.000E+00
 -6.560  0.000E+00  0.000E+00
 -6.550  0.000E+00  0.000E+00
 -6.540  0.000E+00  0.000E+00
 -6.530  0.000E+00  0.000E+00
 -6.520  0.000E+00  0.000E+00
 -6.510  0.000E+00  0.000E+00
 -6.500  0.000E+00  0.000E+00
 -6.490  0.000E+00  0.000E+00
 -6.480  0.000E+00  0.000E+00
 -6.470  0.000E+00  0.000E+00
 -6.460  0.000E+00  0.000E+00
 -6.450  0.634E-03  0.000E+00
 -6.440  0.169E-02  0.186E-02
 -6.430  0.000E+00  0.313E-03
 -6.420  0.000E+00  0.000E+00
 -6.410  0.000E+00  0.000E+00
 -6.400  0.000E+00  0.000E+00
 -6.390  0.000E+00  0.000E+00
 -6.380  0.000E+00  0.000E+00
 -6.370  0.000E+00  0.000E+00
 -6.360  0.000E+00  0.000E+00
 -6.350  0.000E+00  0.000E+00
 -6.340  0.000E+00  0.000E+00
 -6.330  0.136E-01  0.000E+00
 -6.320  0.313E-04  0.297E-01
 -6.310  0.000E+00  0.000E+00
 -6.300  0.000E+00  0.000E+00
 -6.290  0.000E+00  0.000E+00
 -6.280  0.000E+00  0.000E+00
 -6.270  0.000E+00  0.000E+00
 -6.260  0.000E+00  0.000E+00
 -6.250  0.000E+00  0.000E+00
 -6.240  0.000E+00  0.000E+00
 -6.230  0.000E+00  0.000E+00
 -6.220  0.000E+00  0.000E+00
 -6.210  0.000E+00  0.000E+00
 -6.200  0.000E+00  0.000E+00
 -6.190  0.000E+00  0.000E+00
 -6.180  0.000E+00  0.000E+00
 -6.170  0.000E+00  0.000E+00
 -6.160  0.000E+00  0.000E+00
 -6.150  0.000E+00  0.000E+00
 -6.140  0.000E+00  0.000E+00
 -6.130  0.000E+00  0.000E+00
 -6.120  0.000E+00  0.000E+00
 -6.110  0.000E+00  0.000E+00
 -6.100  0.000E+00  0.000E+00
 -6.090  0.000E+00  0.000E+00
 -6.080  0.000E+00  0.000E+00
 -6.070  0.000E+00  0.000E+00
 -6.060  0.000E+00  0.000E+00
 -6.050  0.000E+00  0.000E+00
 -6.040  0.000E+00  0.000E+00
 -6.030  0.000E+00  0.000E+00
 -6.020  0.000E+00  0.000E+00
 -6.010  0.000E+00  0.000E+00
 -6.000  0.000E+00  0.000E+00
 -5.990  0.000E+00  0.000E+00
 -5.980  0.000E+00  0.000E+00
 -5.970  0.000E+00  0.000E+00
 -5.960  0.000E+00  0.000E+00
 -5.950  0.000E+00  0.000E+00
 -5.940  0.000E+00  0.000E+00
 -5.930  0.000E+00  0.000E+00
 -5.920  0.000E+00  0.000E+00
 -5.910  0.000E+00  0.000E+00
 -5.900  0.000E+00  0.000E+00
 -5.890  0.000E+00  0.000E+00
 -5.880  0.000E+00  0.000E+00
 -5.870  0.000E+00  0.000E+00
 -5.860  0.000E+00  0.000E+00
 -5.850  0.000E+00  0.000E+00
 -5.840  0.000E+00  0.000E+00
 -5.830  0.000E+00  0.000E+00
 -5.820  0.000E+00  0.000E+00
 -5.810  0.000E+00  0.000E+00
 -5.800  0.000E+00  0.000E+00
 -5.790  0.000E+00  0.000E+00
 -5.780  0.000E+00  0.000E+00
 -5.770  0.000E+00  0.000E+00
 -5.760  0.000E+00  0.000E+00
 -5.750  0.000E+00  0.000E+00
 -5.740  0.000E+00  0.000E+00
 -5.730  0.000E+00  0.000E+00
 -5.720  0.000E+00  0.000E+00
 -5.710  0.000E+00  0.000E+00
 -5.700  0.000E+00  0.000E+00
 -5.690  0.000E+00  0.000E+00
 -5.680  0.000E+00  0.000E+00
 -5.670  0.000E+00  0.000E+00
 -5.660  0.000E+00  0.000E+00
 -5.650  0.000E+00  0.000E+00
 -5.640  0.000E+00  0.000E+00
 -5.630  0.000E+00  0.000E+00
 -5.620  0.000E+00  0.000E+00
 -5.610  0.000E+00  0.000E+00
 -5.600  0.000E+00  0.000E+00
 -5.590  0.000E+00  0.000E+00
 -5.580  0.000E+00  0.000E+00
 -5.570  0.000E+00  0.000E+00
 -5.560  0.000E+00  0.000E+00
 -5.550  0.000E+00  0.000E+00
 -5.540  0.000E+00  0.000E+00
 -5.530  0.000E+00  0.000E+00
 -5.520  0.000E+00  0.000E+00
 -5.510  0.000E+00  0.000E+00
 -5.500  0.000E+00  0.000E+00
 -5.490  0.000E+00  0.000E+00
 -5.480  0.000E+00  0.000E+00
 -5.470  0.000E+00  0.000E+00
 -5.460  0.000E+00  0.000E+00
 -5.450  0.000E+00  0.000E+00
 -5.440  0.000E+00  0.000E+00
 -5.430  0.000E+00  0.000E+00
 -5.420  0.000E+00  0.000E+00
 -5.410  0.000E+00  0.000E+00
 -5.400  0.000E+00  0.000E+00
 -5.390  0.000E+00  0.000E+00
 -5.380  0.000E+00  0.000E+00
 -5.370  0.000E+00  0.000E+00
 -5.360  0.000E+00  0.000E+00
 -5.350  0.000E+00  0.000E+00
 -5.340  0.000E+00  0.000E+00
 -5.330  0.000E+00  0.000E+00
 -5.320  0.000E+00  0.000E+00
 -5.310  0.000E+00  0.000E+00
 -5.300  0.000E+00  0.000E+00
 -5.290  0.000E+00  0.000E+00
 -5.280  0.000E+00  0.000E+00
 -5.270  0.000E+00  0.000E+00
 -5.260  0.000E+00  0.000E+00
 -5.250  0.000E+00  0.000E+00
 -5.240  0.000E+00  0.000E+00
 -5.230  0.000E+00  0.000E+00
 -5.220  0.000E+00  0.000E+00
 -5.210  0.000E+00  0.000E+00
 -5.200  0.000E+00  0.000E+00
 -5.190  0.000E+00  0.000E+00
 -5.180  0.000E+00  0.000E+00
 -5.170  0.000E+00  0.000E+00
 -5.160  0.000E+00  0.000E+00
 -5.150  0.000E+00  0.000E+00
 -5.140  0.000E+00  0.000E+00
 -5.130  0.000E+00  0.000E+00
 -5.120  0.000E+00  0.000E+00
 -5.110  0.000E+00  0.000E+00
 -5.100  0.000E+00  0.000E+00
 -5.090  0.000E+00  0.000E+00
 -5.080  0.000E+00  0.000E+00
 -5.070  0.000E+00  0.000E+00
 -5.060  0.000E+00  0.000E+00
 -5.050  0.000E+00  0.000E+00
 -5.040  0.000E+00  0.000E+00
 -5.030  0.000E+00  0.000E+00