
     Program PWSCF v.7.2 starts on 13Mar2024 at 16:16:41 

     This program is part of the open-source Quantum ESPRESSO suite
     for quantum simulation of materials; please cite
         "P. Giannozzi et al., J. Phys.:Condens. Matter 21 395502 (2009);
         "P. Giannozzi et al., J. Phys.:Condens. Matter 29 465901 (2017);
         "P. Giannozzi et al., J. Chem. Phys. 152 154105 (2020);
          URL http://www.quantum-espresso.org", 
     in publications or presentations arising from this work. More details at
     http://www.quantum-espresso.org/quote

     Parallel version (MPI), running on    20 processors

     MPI processes distributed on     1 nodes
     334471 MiB available memory on the printing compute node when the environment starts
 
     Waiting for input...
     Reading input from standard input

     Current dimensions of program PWSCF are:
     Max number of different atomic species (ntypx) = 10
     Max number of k-points (npk) = 120000
     Max angular momentum in pseudopotentials (lmaxx) =  4
     file Co.pbe-spn-kjpaw_psl.0.3.1.UPF: wavefunction(s)  3P 3D renormalized
     Message from routine set_cutoff:
     ecutrho < 4*ecutwfc, are you sure?
     Message from routine setup:
     using ibrav=0 with symmetry is DISCOURAGED, use correct ibrav instead
 
     R & G space division:  proc/nbgrp/npool/nimage =      20
     Subspace diagonalization in iterative solution of the eigenvalue problem:
     a serial algorithm will be used

 
     Parallelization info
     --------------------
     sticks:   dense  smooth     PW     G-vecs:    dense   smooth      PW
     Min          27      27      9                  825      825     159
     Max          28      28     10                  830      830     163
     Sum         547     547    187                16551    16551    3213
 
     Using Slab Decomposition
 


     bravais-lattice index     =            0
     lattice parameter (alat)  =       4.6714  a.u.
     unit-cell volume          =     143.6064 (a.u.)^3
     number of atoms/cell      =            2
     number of atomic types    =            1
     number of electrons       =        34.00
     number of Kohn-Sham states=           21
     kinetic-energy cutoff     =     100.0000  Ry
     charge density cutoff     =     360.0000  Ry
     scf convergence threshold =      8.0E-08
     mixing beta               =       0.4000
     number of iterations used =            8  plain     mixing
     Exchange-correlation= SLA  PW   PBX  PBC
                           (   1   4   3   4   0   0   0)

     celldm(1)=   4.671403  celldm(2)=   0.000000  celldm(3)=   0.000000
     celldm(4)=   0.000000  celldm(5)=   0.000000  celldm(6)=   0.000000

     crystal axes: (cart. coord. in units of alat)
               a(1) = (   1.000000   0.000000   0.000000 )  
               a(2) = (  -0.500000   0.866025   0.000000 )  
               a(3) = (   0.000000   0.000000   1.626676 )  

     reciprocal axes: (cart. coord. in units 2 pi/alat)
               b(1) = (  1.000000  0.577350  0.000000 )  
               b(2) = (  0.000000  1.154701  0.000000 )  
               b(3) = (  0.000000  0.000000  0.614750 )  


     PseudoPot. # 1 for Co read from file:
     /truba/home/amuhaymin/ZnS/pseudo/QE/Co.pbe-spn-kjpaw_psl.0.3.1.UPF
     MD5 check sum: b0a1ad65bf214e88c1f3d33b20c7d919
     Pseudo is Projector augmented-wave + core cor, Zval = 17.0
     Generated using &quot;atomic&quot; code by A. Dal Corso  v.6.2.2
     Shape of augmentation charge: PSQ
     Using radial grid of 1193 points,  6 beta functions with: 
                l(1) =   0
                l(2) =   0
                l(3) =   1
                l(4) =   1
                l(5) =   2
                l(6) =   2
     Q(r) pseudized with 0 coefficients 


     atomic species   valence    mass     pseudopotential
        Co            17.00    58.93300     Co( 1.00)

     Starting magnetic structure 
     atomic species   magnetization
        Co           0.294

     24 Sym. Ops., with inversion, found (12 have fractional translation)


                                    s                        frac. trans.

      isym =  1     identity                                     

 cryst.   s( 1) = (     1          0          0      )
                  (     0          1          0      )
                  (     0          0          1      )

 cart.    s( 1) = (  1.0000000  0.0000000  0.0000000 )
                  (  0.0000000  1.0000000  0.0000000 )
                  (  0.0000000  0.0000000  1.0000000 )


      isym =  2     180 deg rotation - cart. axis [0,0,1]        

 cryst.   s( 2) = (    -1          0          0      )    f =(  0.0000000 )
                  (     0         -1          0      )       (  0.0000000 )
                  (     0          0          1      )       ( -0.5000000 )

 cart.    s( 2) = ( -1.0000000  0.0000000  0.0000000 )    f =(  0.0000000 )
                  (  0.0000000 -1.0000000  0.0000000 )       (  0.0000000 )
                  (  0.0000000  0.0000000  1.0000000 )       ( -0.8133382 )


      isym =  3     180 deg rotation - cart. axis [0,1,0]        

 cryst.   s( 3) = (    -1          0          0      )    f =(  0.0000000 )
                  (     1          1          0      )       (  0.0000000 )
                  (     0          0         -1      )       (  0.5000000 )

 cart.    s( 3) = ( -1.0000000  0.0000000  0.0000000 )    f =(  0.0000000 )
                  (  0.0000000  1.0000000  0.0000000 )       (  0.0000000 )
                  (  0.0000000  0.0000000 -1.0000000 )       (  0.8133382 )


      isym =  4     180 deg rotation - cart. axis [1,0,0]        

 cryst.   s( 4) = (     1          0          0      )
                  (    -1         -1          0      )
                  (     0          0         -1      )

 cart.    s( 4) = (  1.0000000  0.0000000  0.0000000 )
                  (  0.0000000 -1.0000000  0.0000000 )
                  (  0.0000000  0.0000000 -1.0000000 )


      isym =  5      60 deg rotation - cryst. axis [0,0,1]       

 cryst.   s( 5) = (     1          1          0      )    f =(  0.0000000 )
                  (    -1          0          0      )       ( -0.0000000 )
                  (     0          0          1      )       ( -0.5000000 )

 cart.    s( 5) = (  0.5000000 -0.8660254  0.0000000 )    f =(  0.0000000 )
                  (  0.8660254  0.5000000  0.0000000 )       ( -0.0000000 )
                  (  0.0000000  0.0000000  1.0000000 )       ( -0.8133382 )


      isym =  6      60 deg rotation - cryst. axis [0,0,-1]      

 cryst.   s( 6) = (     0         -1          0      )    f =(  0.0000000 )
                  (     1          1          0      )       ( -0.0000000 )
                  (     0          0          1      )       ( -0.5000000 )

 cart.    s( 6) = (  0.5000000  0.8660254  0.0000000 )    f =(  0.0000000 )
                  ( -0.8660254  0.5000000  0.0000000 )       ( -0.0000000 )
                  (  0.0000000  0.0000000  1.0000000 )       ( -0.8133382 )


      isym =  7     120 deg rotation - cryst. axis [0,0,1]       

 cryst.   s( 7) = (     0          1          0      )
                  (    -1         -1          0      )
                  (     0          0          1      )

 cart.    s( 7) = ( -0.5000000 -0.8660254  0.0000000 )
                  (  0.8660254 -0.5000000  0.0000000 )
                  (  0.0000000  0.0000000  1.0000000 )


      isym =  8     120 deg rotation - cryst. axis [0,0,-1]      

 cryst.   s( 8) = (    -1         -1          0      )
                  (     1          0          0      )
                  (     0          0          1      )

 cart.    s( 8) = ( -0.5000000  0.8660254  0.0000000 )
                  ( -0.8660254 -0.5000000  0.0000000 )
                  (  0.0000000  0.0000000  1.0000000 )


      isym =  9     180 deg rotation - cryst. axis [1,-1,0]      

 cryst.   s( 9) = (     0         -1          0      )    f =(  0.0000000 )
                  (    -1          0          0      )       (  0.0000000 )
                  (     0          0         -1      )       (  0.5000000 )

 cart.    s( 9) = (  0.5000000 -0.8660254  0.0000000 )    f =(  0.0000000 )
                  ( -0.8660254 -0.5000000  0.0000000 )       (  0.0000000 )
                  (  0.0000000  0.0000000 -1.0000000 )       (  0.8133382 )


      isym = 10     180 deg rotation - cryst. axis [2,1,0]       

 cryst.   s(10) = (     1          1          0      )    f =(  0.0000000 )
                  (     0         -1          0      )       ( -0.0000000 )
                  (     0          0         -1      )       (  0.5000000 )

 cart.    s(10) = (  0.5000000  0.8660254  0.0000000 )    f =(  0.0000000 )
                  (  0.8660254 -0.5000000  0.0000000 )       ( -0.0000000 )
                  (  0.0000000  0.0000000 -1.0000000 )       (  0.8133382 )


      isym = 11     180 deg rotation - cryst. axis [0,1,0]       

 cryst.   s(11) = (    -1         -1          0      )
                  (     0          1          0      )
                  (     0          0         -1      )

 cart.    s(11) = ( -0.5000000 -0.8660254  0.0000000 )
                  ( -0.8660254  0.5000000  0.0000000 )
                  (  0.0000000  0.0000000 -1.0000000 )


      isym = 12     180 deg rotation - cryst. axis [1,1,0]       

 cryst.   s(12) = (     0          1          0      )
                  (     1          0          0      )
                  (     0          0         -1      )

 cart.    s(12) = ( -0.5000000  0.8660254  0.0000000 )
                  (  0.8660254  0.5000000  0.0000000 )
                  (  0.0000000  0.0000000 -1.0000000 )


      isym = 13     inversion                                    

 cryst.   s(13) = (    -1          0          0      )
                  (     0         -1          0      )
                  (     0          0         -1      )

 cart.    s(13) = ( -1.0000000  0.0000000  0.0000000 )
                  (  0.0000000 -1.0000000  0.0000000 )
                  (  0.0000000  0.0000000 -1.0000000 )


      isym = 14     inv. 180 deg rotation - cart. axis [0,0,1]   

 cryst.   s(14) = (     1          0          0      )    f =(  0.0000000 )
                  (     0          1          0      )       (  0.0000000 )
                  (     0          0         -1      )       (  0.5000000 )

 cart.    s(14) = (  1.0000000  0.0000000  0.0000000 )    f =(  0.0000000 )
                  (  0.0000000  1.0000000  0.0000000 )       (  0.0000000 )
                  (  0.0000000  0.0000000 -1.0000000 )       (  0.8133382 )


      isym = 15     inv. 180 deg rotation - cart. axis [0,1,0]   

 cryst.   s(15) = (     1          0          0      )    f =(  0.0000000 )
                  (    -1         -1          0      )       (  0.0000000 )
                  (     0          0          1      )       ( -0.5000000 )

 cart.    s(15) = (  1.0000000  0.0000000  0.0000000 )    f =(  0.0000000 )
                  (  0.0000000 -1.0000000  0.0000000 )       (  0.0000000 )
                  (  0.0000000  0.0000000  1.0000000 )       ( -0.8133382 )


      isym = 16     inv. 180 deg rotation - cart. axis [1,0,0]   

 cryst.   s(16) = (    -1          0          0      )
                  (     1          1          0      )
                  (     0          0          1      )

 cart.    s(16) = ( -1.0000000  0.0000000  0.0000000 )
                  (  0.0000000  1.0000000  0.0000000 )
                  (  0.0000000  0.0000000  1.0000000 )


      isym = 17     inv.  60 deg rotation - cryst. axis [0,0,1]  

 cryst.   s(17) = (    -1         -1          0      )    f =(  0.0000000 )
                  (     1          0          0      )       (  0.0000000 )
                  (     0          0         -1      )       (  0.5000000 )

 cart.    s(17) = ( -0.5000000  0.8660254  0.0000000 )    f =(  0.0000000 )
                  ( -0.8660254 -0.5000000  0.0000000 )       (  0.0000000 )
                  (  0.0000000  0.0000000 -1.0000000 )       (  0.8133382 )


      isym = 18     inv.  60 deg rotation - cryst. axis [0,0,-1] 

 cryst.   s(18) = (     0          1          0      )    f =(  0.0000000 )
                  (    -1         -1          0      )       ( -0.0000000 )
                  (     0          0         -1      )       (  0.5000000 )

 cart.    s(18) = ( -0.5000000 -0.8660254  0.0000000 )    f =(  0.0000000 )
                  (  0.8660254 -0.5000000  0.0000000 )       ( -0.0000000 )
                  (  0.0000000  0.0000000 -1.0000000 )       (  0.8133382 )


      isym = 19     inv. 120 deg rotation - cryst. axis [0,0,1]  

 cryst.   s(19) = (     0         -1          0      )
                  (     1          1          0      )
                  (     0          0         -1      )

 cart.    s(19) = (  0.5000000  0.8660254  0.0000000 )
                  ( -0.8660254  0.5000000  0.0000000 )
                  (  0.0000000  0.0000000 -1.0000000 )


      isym = 20     inv. 120 deg rotation - cryst. axis [0,0,-1] 

 cryst.   s(20) = (     1          1          0      )
                  (    -1          0          0      )
                  (     0          0         -1      )

 cart.    s(20) = (  0.5000000 -0.8660254  0.0000000 )
                  (  0.8660254  0.5000000  0.0000000 )
                  (  0.0000000  0.0000000 -1.0000000 )


      isym = 21     inv. 180 deg rotation - cryst. axis [1,-1,0] 

 cryst.   s(21) = (     0          1          0      )    f =(  0.0000000 )
                  (     1          0          0      )       ( -0.0000000 )
                  (     0          0          1      )       ( -0.5000000 )

 cart.    s(21) = ( -0.5000000  0.8660254  0.0000000 )    f =(  0.0000000 )
                  (  0.8660254  0.5000000  0.0000000 )       ( -0.0000000 )
                  (  0.0000000  0.0000000  1.0000000 )       ( -0.8133382 )


      isym = 22     inv. 180 deg rotation - cryst. axis [2,1,0]  

 cryst.   s(22) = (    -1         -1          0      )    f =(  0.0000000 )
                  (     0          1          0      )       ( -0.0000000 )
                  (     0          0          1      )       ( -0.5000000 )

 cart.    s(22) = ( -0.5000000 -0.8660254  0.0000000 )    f =(  0.0000000 )
                  ( -0.8660254  0.5000000  0.0000000 )       ( -0.0000000 )
                  (  0.0000000  0.0000000  1.0000000 )       ( -0.8133382 )


      isym = 23     inv. 180 deg rotation - cryst. axis [0,1,0]  

 cryst.   s(23) = (     1          1          0      )
                  (     0         -1          0      )
                  (     0          0          1      )

 cart.    s(23) = (  0.5000000  0.8660254  0.0000000 )
                  (  0.8660254 -0.5000000  0.0000000 )
                  (  0.0000000  0.0000000  1.0000000 )


      isym = 24     inv. 180 deg rotation - cryst. axis [1,1,0]  

 cryst.   s(24) = (     0         -1          0      )
                  (    -1          0          0      )
                  (     0          0          1      )

 cart.    s(24) = (  0.5000000 -0.8660254  0.0000000 )
                  ( -0.8660254 -0.5000000  0.0000000 )
                  (  0.0000000  0.0000000  1.0000000 )


   Cartesian axes

     site n.     atom                  positions (alat units)
         1           Co  tau(   1) = (  -0.0000000   0.5773503   0.4066691  )
         2           Co  tau(   2) = (   0.5000000   0.2886751   1.2200074  )

   Crystallographic axes

     site n.     atom                  positions (cryst. coord.)
         1           Co  tau(   1) = (  0.3333333  0.6666667  0.2500000  )
         2           Co  tau(   2) = (  0.6666667  0.3333333  0.7500000  )

     number of k points=   135  Gaussian smearing, width (Ry)=  0.0735
                       cart. coord. in units 2pi/alat
        k(    1) = (   0.0000000   0.0000000   0.0000000), wk =   0.0005556
        k(    2) = (   0.0000000   0.0000000   0.0768438), wk =   0.0011111
        k(    3) = (   0.0000000   0.0000000   0.1536876), wk =   0.0011111
        k(    4) = (   0.0000000   0.0000000   0.2305314), wk =   0.0011111
        k(    5) = (   0.0000000   0.0000000  -0.3073752), wk =   0.0005556
        k(    6) = (   0.0000000   0.0769800   0.0000000), wk =   0.0033333
        k(    7) = (   0.0000000   0.0769800   0.0768438), wk =   0.0066667
        k(    8) = (   0.0000000   0.0769800   0.1536876), wk =   0.0066667
        k(    9) = (   0.0000000   0.0769800   0.2305314), wk =   0.0066667
        k(   10) = (   0.0000000   0.0769800  -0.3073752), wk =   0.0033333
        k(   11) = (   0.0000000   0.1539601   0.0000000), wk =   0.0033333
        k(   12) = (   0.0000000   0.1539601   0.0768438), wk =   0.0066667
        k(   13) = (   0.0000000   0.1539601   0.1536876), wk =   0.0066667
        k(   14) = (   0.0000000   0.1539601   0.2305314), wk =   0.0066667
        k(   15) = (   0.0000000   0.1539601  -0.3073752), wk =   0.0033333
        k(   16) = (   0.0000000   0.2309401   0.0000000), wk =   0.0033333
        k(   17) = (   0.0000000   0.2309401   0.0768438), wk =   0.0066667
        k(   18) = (   0.0000000   0.2309401   0.1536876), wk =   0.0066667
        k(   19) = (   0.0000000   0.2309401   0.2305314), wk =   0.0066667
        k(   20) = (   0.0000000   0.2309401  -0.3073752), wk =   0.0033333
        k(   21) = (   0.0000000   0.3079201   0.0000000), wk =   0.0033333
        k(   22) = (   0.0000000   0.3079201   0.0768438), wk =   0.0066667
        k(   23) = (   0.0000000   0.3079201   0.1536876), wk =   0.0066667
        k(   24) = (   0.0000000   0.3079201   0.2305314), wk =   0.0066667
        k(   25) = (   0.0000000   0.3079201  -0.3073752), wk =   0.0033333
        k(   26) = (   0.0000000   0.3849002   0.0000000), wk =   0.0033333
        k(   27) = (   0.0000000   0.3849002   0.0768438), wk =   0.0066667
        k(   28) = (   0.0000000   0.3849002   0.1536876), wk =   0.0066667
        k(   29) = (   0.0000000   0.3849002   0.2305314), wk =   0.0066667
        k(   30) = (   0.0000000   0.3849002  -0.3073752), wk =   0.0033333
        k(   31) = (   0.0000000   0.4618802   0.0000000), wk =   0.0033333
        k(   32) = (   0.0000000   0.4618802   0.0768438), wk =   0.0066667
        k(   33) = (   0.0000000   0.4618802   0.1536876), wk =   0.0066667
        k(   34) = (   0.0000000   0.4618802   0.2305314), wk =   0.0066667
        k(   35) = (   0.0000000   0.4618802  -0.3073752), wk =   0.0033333
        k(   36) = (   0.0000000   0.5388603   0.0000000), wk =   0.0033333
        k(   37) = (   0.0000000   0.5388603   0.0768438), wk =   0.0066667
        k(   38) = (   0.0000000   0.5388603   0.1536876), wk =   0.0066667
        k(   39) = (   0.0000000   0.5388603   0.2305314), wk =   0.0066667
        k(   40) = (   0.0000000   0.5388603  -0.3073752), wk =   0.0033333
        k(   41) = (   0.0666667   0.1154701   0.0000000), wk =   0.0033333
        k(   42) = (   0.0666667   0.1154701   0.0768438), wk =   0.0066667
        k(   43) = (   0.0666667   0.1154701   0.1536876), wk =   0.0066667
        k(   44) = (   0.0666667   0.1154701   0.2305314), wk =   0.0066667
        k(   45) = (   0.0666667   0.1154701  -0.3073752), wk =   0.0033333
        k(   46) = (   0.0666667   0.1924501   0.0000000), wk =   0.0066667
        k(   47) = (   0.0666667   0.1924501   0.0768438), wk =   0.0133333
        k(   48) = (   0.0666667   0.1924501   0.1536876), wk =   0.0133333
        k(   49) = (   0.0666667   0.1924501   0.2305314), wk =   0.0133333
        k(   50) = (   0.0666667   0.1924501  -0.3073752), wk =   0.0066667
        k(   51) = (   0.0666667   0.2694301   0.0000000), wk =   0.0066667
        k(   52) = (   0.0666667   0.2694301   0.0768438), wk =   0.0133333
        k(   53) = (   0.0666667   0.2694301   0.1536876), wk =   0.0133333
        k(   54) = (   0.0666667   0.2694301   0.2305314), wk =   0.0133333
        k(   55) = (   0.0666667   0.2694301  -0.3073752), wk =   0.0066667
        k(   56) = (   0.0666667   0.3464102   0.0000000), wk =   0.0066667
        k(   57) = (   0.0666667   0.3464102   0.0768438), wk =   0.0133333
        k(   58) = (   0.0666667   0.3464102   0.1536876), wk =   0.0133333
        k(   59) = (   0.0666667   0.3464102   0.2305314), wk =   0.0133333
        k(   60) = (   0.0666667   0.3464102  -0.3073752), wk =   0.0066667
        k(   61) = (   0.0666667   0.4233902   0.0000000), wk =   0.0066667
        k(   62) = (   0.0666667   0.4233902   0.0768438), wk =   0.0133333
        k(   63) = (   0.0666667   0.4233902   0.1536876), wk =   0.0133333
        k(   64) = (   0.0666667   0.4233902   0.2305314), wk =   0.0133333
        k(   65) = (   0.0666667   0.4233902  -0.3073752), wk =   0.0066667
        k(   66) = (   0.0666667   0.5003702   0.0000000), wk =   0.0066667
        k(   67) = (   0.0666667   0.5003702   0.0768438), wk =   0.0133333
        k(   68) = (   0.0666667   0.5003702   0.1536876), wk =   0.0133333
        k(   69) = (   0.0666667   0.5003702   0.2305314), wk =   0.0133333
        k(   70) = (   0.0666667   0.5003702  -0.3073752), wk =   0.0066667
        k(   71) = (   0.0666667   0.5773503   0.0000000), wk =   0.0033333
        k(   72) = (   0.0666667   0.5773503   0.0768438), wk =   0.0066667
        k(   73) = (   0.0666667   0.5773503   0.1536876), wk =   0.0066667
        k(   74) = (   0.0666667   0.5773503   0.2305314), wk =   0.0066667
        k(   75) = (   0.0666667   0.5773503  -0.3073752), wk =   0.0033333
        k(   76) = (   0.1333333   0.2309401   0.0000000), wk =   0.0033333
        k(   77) = (   0.1333333   0.2309401   0.0768438), wk =   0.0066667
        k(   78) = (   0.1333333   0.2309401   0.1536876), wk =   0.0066667
        k(   79) = (   0.1333333   0.2309401   0.2305314), wk =   0.0066667
        k(   80) = (   0.1333333   0.2309401  -0.3073752), wk =   0.0033333
        k(   81) = (   0.1333333   0.3079201   0.0000000), wk =   0.0066667
        k(   82) = (   0.1333333   0.3079201   0.0768438), wk =   0.0133333
        k(   83) = (   0.1333333   0.3079201   0.1536876), wk =   0.0133333
        k(   84) = (   0.1333333   0.3079201   0.2305314), wk =   0.0133333
        k(   85) = (   0.1333333   0.3079201  -0.3073752), wk =   0.0066667
        k(   86) = (   0.1333333   0.3849002   0.0000000), wk =   0.0066667
        k(   87) = (   0.1333333   0.3849002   0.0768438), wk =   0.0133333
        k(   88) = (   0.1333333   0.3849002   0.1536876), wk =   0.0133333
        k(   89) = (   0.1333333   0.3849002   0.2305314), wk =   0.0133333
        k(   90) = (   0.1333333   0.3849002  -0.3073752), wk =   0.0066667
        k(   91) = (   0.1333333   0.4618802   0.0000000), wk =   0.0066667
        k(   92) = (   0.1333333   0.4618802   0.0768438), wk =   0.0133333
        k(   93) = (   0.1333333   0.4618802   0.1536876), wk =   0.0133333
        k(   94) = (   0.1333333   0.4618802   0.2305314), wk =   0.0133333
        k(   95) = (   0.1333333   0.4618802  -0.3073752), wk =   0.0066667
        k(   96) = (   0.1333333   0.5388603   0.0000000), wk =   0.0066667
        k(   97) = (   0.1333333   0.5388603   0.0768438), wk =   0.0133333
        k(   98) = (   0.1333333   0.5388603   0.1536876), wk =   0.0133333
        k(   99) = (   0.1333333   0.5388603   0.2305314), wk =   0.0133333
        k(  100) = (   0.1333333   0.5388603  -0.3073752), wk =   0.0066667
        k(  101) = (   0.2000000   0.3464102   0.0000000), wk =   0.0033333
        k(  102) = (   0.2000000   0.3464102   0.0768438), wk =   0.0066667
        k(  103) = (   0.2000000   0.3464102   0.1536876), wk =   0.0066667
        k(  104) = (   0.2000000   0.3464102   0.2305314), wk =   0.0066667
        k(  105) = (   0.2000000   0.3464102  -0.3073752), wk =   0.0033333
        k(  106) = (   0.2000000   0.4233902   0.0000000), wk =   0.0066667
        k(  107) = (   0.2000000   0.4233902   0.0768438), wk =   0.0133333
        k(  108) = (   0.2000000   0.4233902   0.1536876), wk =   0.0133333
        k(  109) = (   0.2000000   0.4233902   0.2305314), wk =   0.0133333
        k(  110) = (   0.2000000   0.4233902  -0.3073752), wk =   0.0066667
        k(  111) = (   0.2000000   0.5003702   0.0000000), wk =   0.0066667
        k(  112) = (   0.2000000   0.5003702   0.0768438), wk =   0.0133333
        k(  113) = (   0.2000000   0.5003702   0.1536876), wk =   0.0133333
        k(  114) = (   0.2000000   0.5003702   0.2305314), wk =   0.0133333
        k(  115) = (   0.2000000   0.5003702  -0.3073752), wk =   0.0066667
        k(  116) = (   0.2000000   0.5773503   0.0000000), wk =   0.0033333
        k(  117) = (   0.2000000   0.5773503   0.0768438), wk =   0.0066667
        k(  118) = (   0.2000000   0.5773503   0.1536876), wk =   0.0066667
        k(  119) = (   0.2000000   0.5773503   0.2305314), wk =   0.0066667
        k(  120) = (   0.2000000   0.5773503  -0.3073752), wk =   0.0033333
        k(  121) = (   0.2666667   0.4618802   0.0000000), wk =   0.0033333
        k(  122) = (   0.2666667   0.4618802   0.0768438), wk =   0.0066667
        k(  123) = (   0.2666667   0.4618802   0.1536876), wk =   0.0066667
        k(  124) = (   0.2666667   0.4618802   0.2305314), wk =   0.0066667
        k(  125) = (   0.2666667   0.4618802  -0.3073752), wk =   0.0033333
        k(  126) = (   0.2666667   0.5388603   0.0000000), wk =   0.0066667
        k(  127) = (   0.2666667   0.5388603   0.0768438), wk =   0.0133333
        k(  128) = (   0.2666667   0.5388603   0.1536876), wk =   0.0133333
        k(  129) = (   0.2666667   0.5388603   0.2305314), wk =   0.0133333
        k(  130) = (   0.2666667   0.5388603  -0.3073752), wk =   0.0066667
        k(  131) = (   0.3333333   0.5773503   0.0000000), wk =   0.0011111
        k(  132) = (   0.3333333   0.5773503   0.0768438), wk =   0.0022222
        k(  133) = (   0.3333333   0.5773503   0.1536876), wk =   0.0022222
        k(  134) = (   0.3333333   0.5773503   0.2305314), wk =   0.0022222
        k(  135) = (   0.3333333   0.5773503  -0.3073752), wk =   0.0011111

                       cryst. coord.
        k(    1) = (   0.0000000   0.0000000   0.0000000), wk =   0.0005556
        k(    2) = (   0.0000000   0.0000000   0.1250000), wk =   0.0011111
        k(    3) = (   0.0000000   0.0000000   0.2500000), wk =   0.0011111
        k(    4) = (   0.0000000   0.0000000   0.3750000), wk =   0.0011111
        k(    5) = (   0.0000000   0.0000000  -0.5000000), wk =   0.0005556
        k(    6) = (   0.0000000   0.0666667   0.0000000), wk =   0.0033333
        k(    7) = (   0.0000000   0.0666667   0.1250000), wk =   0.0066667
        k(    8) = (   0.0000000   0.0666667   0.2500000), wk =   0.0066667
        k(    9) = (   0.0000000   0.0666667   0.3750000), wk =   0.0066667
        k(   10) = (   0.0000000   0.0666667  -0.5000000), wk =   0.0033333
        k(   11) = (   0.0000000   0.1333333   0.0000000), wk =   0.0033333
        k(   12) = (   0.0000000   0.1333333   0.1250000), wk =   0.0066667
        k(   13) = (   0.0000000   0.1333333   0.2500000), wk =   0.0066667
        k(   14) = (   0.0000000   0.1333333   0.3750000), wk =   0.0066667
        k(   15) = (   0.0000000   0.1333333  -0.5000000), wk =   0.0033333
        k(   16) = (   0.0000000   0.2000000   0.0000000), wk =   0.0033333
        k(   17) = (   0.0000000   0.2000000   0.1250000), wk =   0.0066667
        k(   18) = (   0.0000000   0.2000000   0.2500000), wk =   0.0066667
        k(   19) = (   0.0000000   0.2000000   0.3750000), wk =   0.0066667
        k(   20) = (   0.0000000   0.2000000  -0.5000000), wk =   0.0033333
        k(   21) = (   0.0000000   0.2666667   0.0000000), wk =   0.0033333
        k(   22) = (   0.0000000   0.2666667   0.1250000), wk =   0.0066667
        k(   23) = (   0.0000000   0.2666667   0.2500000), wk =   0.0066667
        k(   24) = (   0.0000000   0.2666667   0.3750000), wk =   0.0066667
        k(   25) = (   0.0000000   0.2666667  -0.5000000), wk =   0.0033333
        k(   26) = (   0.0000000   0.3333333   0.0000000), wk =   0.0033333
        k(   27) = (   0.0000000   0.3333333   0.1250000), wk =   0.0066667
        k(   28) = (   0.0000000   0.3333333   0.2500000), wk =   0.0066667
        k(   29) = (   0.0000000   0.3333333   0.3750000), wk =   0.0066667
        k(   30) = (   0.0000000   0.3333333  -0.5000000), wk =   0.0033333
        k(   31) = (   0.0000000   0.4000000   0.0000000), wk =   0.0033333
        k(   32) = (   0.0000000   0.4000000   0.1250000), wk =   0.0066667
        k(   33) = (   0.0000000   0.4000000   0.2500000), wk =   0.0066667
        k(   34) = (   0.0000000   0.4000000   0.3750000), wk =   0.0066667
        k(   35) = (   0.0000000   0.4000000  -0.5000000), wk =   0.0033333
        k(   36) = (   0.0000000   0.4666667   0.0000000), wk =   0.0033333
        k(   37) = (   0.0000000   0.4666667   0.1250000), wk =   0.0066667
        k(   38) = (   0.0000000   0.4666667   0.2500000), wk =   0.0066667
        k(   39) = (   0.0000000   0.4666667   0.3750000), wk =   0.0066667
        k(   40) = (   0.0000000   0.4666667  -0.5000000), wk =   0.0033333
        k(   41) = (   0.0666667   0.0666667   0.0000000), wk =   0.0033333
        k(   42) = (   0.0666667   0.0666667   0.1250000), wk =   0.0066667
        k(   43) = (   0.0666667   0.0666667   0.2500000), wk =   0.0066667
        k(   44) = (   0.0666667   0.0666667   0.3750000), wk =   0.0066667
        k(   45) = (   0.0666667   0.0666667  -0.5000000), wk =   0.0033333
        k(   46) = (   0.0666667   0.1333333   0.0000000), wk =   0.0066667
        k(   47) = (   0.0666667   0.1333333   0.1250000), wk =   0.0133333
        k(   48) = (   0.0666667   0.1333333   0.2500000), wk =   0.0133333
        k(   49) = (   0.0666667   0.1333333   0.3750000), wk =   0.0133333
        k(   50) = (   0.0666667   0.1333333  -0.5000000), wk =   0.0066667
        k(   51) = (   0.0666667   0.2000000   0.0000000), wk =   0.0066667
        k(   52) = (   0.0666667   0.2000000   0.1250000), wk =   0.0133333
        k(   53) = (   0.0666667   0.2000000   0.2500000), wk =   0.0133333
        k(   54) = (   0.0666667   0.2000000   0.3750000), wk =   0.0133333
        k(   55) = (   0.0666667   0.2000000  -0.5000000), wk =   0.0066667
        k(   56) = (   0.0666667   0.2666667   0.0000000), wk =   0.0066667
        k(   57) = (   0.0666667   0.2666667   0.1250000), wk =   0.0133333
        k(   58) = (   0.0666667   0.2666667   0.2500000), wk =   0.0133333
        k(   59) = (   0.0666667   0.2666667   0.3750000), wk =   0.0133333
        k(   60) = (   0.0666667   0.2666667  -0.5000000), wk =   0.0066667
        k(   61) = (   0.0666667   0.3333333   0.0000000), wk =   0.0066667
        k(   62) = (   0.0666667   0.3333333   0.1250000), wk =   0.0133333
        k(   63) = (   0.0666667   0.3333333   0.2500000), wk =   0.0133333
        k(   64) = (   0.0666667   0.3333333   0.3750000), wk =   0.0133333
        k(   65) = (   0.0666667   0.3333333  -0.5000000), wk =   0.0066667
        k(   66) = (   0.0666667   0.4000000   0.0000000), wk =   0.0066667
        k(   67) = (   0.0666667   0.4000000   0.1250000), wk =   0.0133333
        k(   68) = (   0.0666667   0.4000000   0.2500000), wk =   0.0133333
        k(   69) = (   0.0666667   0.4000000   0.3750000), wk =   0.0133333
        k(   70) = (   0.0666667   0.4000000  -0.5000000), wk =   0.0066667
        k(   71) = (   0.0666667   0.4666667   0.0000000), wk =   0.0033333
        k(   72) = (   0.0666667   0.4666667   0.1250000), wk =   0.0066667
        k(   73) = (   0.0666667   0.4666667   0.2500000), wk =   0.0066667
        k(   74) = (   0.0666667   0.4666667   0.3750000), wk =   0.0066667
        k(   75) = (   0.0666667   0.4666667  -0.5000000), wk =   0.0033333
        k(   76) = (   0.1333333   0.1333333   0.0000000), wk =   0.0033333
        k(   77) = (   0.1333333   0.1333333   0.1250000), wk =   0.0066667
        k(   78) = (   0.1333333   0.1333333   0.2500000), wk =   0.0066667
        k(   79) = (   0.1333333   0.1333333   0.3750000), wk =   0.0066667
        k(   80) = (   0.1333333   0.1333333  -0.5000000), wk =   0.0033333
        k(   81) = (   0.1333333   0.2000000   0.0000000), wk =   0.0066667
        k(   82) = (   0.1333333   0.2000000   0.1250000), wk =   0.0133333
        k(   83) = (   0.1333333   0.2000000   0.2500000), wk =   0.0133333
        k(   84) = (   0.1333333   0.2000000   0.3750000), wk =   0.0133333
        k(   85) = (   0.1333333   0.2000000  -0.5000000), wk =   0.0066667
        k(   86) = (   0.1333333   0.2666667   0.0000000), wk =   0.0066667
        k(   87) = (   0.1333333   0.2666667   0.1250000), wk =   0.0133333
        k(   88) = (   0.1333333   0.2666667   0.2500000), wk =   0.0133333
        k(   89) = (   0.1333333   0.2666667   0.3750000), wk =   0.0133333
        k(   90) = (   0.1333333   0.2666667  -0.5000000), wk =   0.0066667
        k(   91) = (   0.1333333   0.3333333   0.0000000), wk =   0.0066667
        k(   92) = (   0.1333333   0.3333333   0.1250000), wk =   0.0133333
        k(   93) = (   0.1333333   0.3333333   0.2500000), wk =   0.0133333
        k(   94) = (   0.1333333   0.3333333   0.3750000), wk =   0.0133333
        k(   95) = (   0.1333333   0.3333333  -0.5000000), wk =   0.0066667
        k(   96) = (   0.1333333   0.4000000   0.0000000), wk =   0.0066667
        k(   97) = (   0.1333333   0.4000000   0.1250000), wk =   0.0133333
        k(   98) = (   0.1333333   0.4000000   0.2500000), wk =   0.0133333
        k(   99) = (   0.1333333   0.4000000   0.3750000), wk =   0.0133333
        k(  100) = (   0.1333333   0.4000000  -0.5000000), wk =   0.0066667
        k(  101) = (   0.2000000   0.2000000   0.0000000), wk =   0.0033333
        k(  102) = (   0.2000000   0.2000000   0.1250000), wk =   0.0066667
        k(  103) = (   0.2000000   0.2000000   0.2500000), wk =   0.0066667
        k(  104) = (   0.2000000   0.2000000   0.3750000), wk =   0.0066667
        k(  105) = (   0.2000000   0.2000000  -0.5000000), wk =   0.0033333
        k(  106) = (   0.2000000   0.2666667   0.0000000), wk =   0.0066667
        k(  107) = (   0.2000000   0.2666667   0.1250000), wk =   0.0133333
        k(  108) = (   0.2000000   0.2666667   0.2500000), wk =   0.0133333
        k(  109) = (   0.2000000   0.2666667   0.3750000), wk =   0.0133333
        k(  110) = (   0.2000000   0.2666667  -0.5000000), wk =   0.0066667
        k(  111) = (   0.2000000   0.3333333   0.0000000), wk =   0.0066667
        k(  112) = (   0.2000000   0.3333333   0.1250000), wk =   0.0133333
        k(  113) = (   0.2000000   0.3333333   0.2500000), wk =   0.0133333
        k(  114) = (   0.2000000   0.3333333   0.3750000), wk =   0.0133333
        k(  115) = (   0.2000000   0.3333333  -0.5000000), wk =   0.0066667
        k(  116) = (   0.2000000   0.4000000   0.0000000), wk =   0.0033333
        k(  117) = (   0.2000000   0.4000000   0.1250000), wk =   0.0066667
        k(  118) = (   0.2000000   0.4000000   0.2500000), wk =   0.0066667
        k(  119) = (   0.2000000   0.4000000   0.3750000), wk =   0.0066667
        k(  120) = (   0.2000000   0.4000000  -0.5000000), wk =   0.0033333
        k(  121) = (   0.2666667   0.2666667   0.0000000), wk =   0.0033333
        k(  122) = (   0.2666667   0.2666667   0.1250000), wk =   0.0066667
        k(  123) = (   0.2666667   0.2666667   0.2500000), wk =   0.0066667
        k(  124) = (   0.2666667   0.2666667   0.3750000), wk =   0.0066667
        k(  125) = (   0.2666667   0.2666667  -0.5000000), wk =   0.0033333
        k(  126) = (   0.2666667   0.3333333   0.0000000), wk =   0.0066667
        k(  127) = (   0.2666667   0.3333333   0.1250000), wk =   0.0133333
        k(  128) = (   0.2666667   0.3333333   0.2500000), wk =   0.0133333
        k(  129) = (   0.2666667   0.3333333   0.3750000), wk =   0.0133333
        k(  130) = (   0.2666667   0.3333333  -0.5000000), wk =   0.0066667
        k(  131) = (   0.3333333   0.3333333   0.0000000), wk =   0.0011111
        k(  132) = (   0.3333333   0.3333333   0.1250000), wk =   0.0022222
        k(  133) = (   0.3333333   0.3333333   0.2500000), wk =   0.0022222
        k(  134) = (   0.3333333   0.3333333   0.3750000), wk =   0.0022222
        k(  135) = (   0.3333333   0.3333333  -0.5000000), wk =   0.0011111

     Dense  grid:    16551 G-vectors     FFT dimensions: (  30,  30,  48)

     Dynamical RAM for                 wfc:       0.04 MB

     Dynamical RAM for     wfc (w. buffer):      10.51 MB

     Dynamical RAM for           str. fact:       0.01 MB

     Dynamical RAM for           local pot:       0.00 MB

     Dynamical RAM for          nlocal pot:       0.07 MB

     Dynamical RAM for                qrad:       1.52 MB

     Dynamical RAM for          rho,v,vnew:       0.20 MB

     Dynamical RAM for               rhoin:       0.07 MB

     Dynamical RAM for            rho*nmix:       0.40 MB

     Dynamical RAM for           G-vectors:       0.05 MB

     Dynamical RAM for          h,s,v(r/c):       0.08 MB

     Dynamical RAM for          <psi|beta>:       0.01 MB

     Dynamical RAM for                 psi:       0.08 MB

     Dynamical RAM for                hpsi:       0.08 MB

     Dynamical RAM for                spsi:       0.08 MB

     Dynamical RAM for      wfcinit/wfcrot:       0.09 MB

     Dynamical RAM for           addusdens:       2.39 MB

     Estimated static dynamical RAM per process >      12.58 MB

     Estimated max dynamical RAM per process >      15.37 MB

     Estimated total dynamical RAM >     307.47 MB

     Check: negative core charge=   -0.000067
     Generating pointlists ...
     new r_m :   0.4114 (alat units)  1.9220 (a.u.) for type    1

     The initial density is read from file :
     ./out/Co.save/charge-density

     Starting wfcs from file
     Checking if some PAW data can be deallocated... 

     total cpu time spent up to now is        0.9 secs

     Self-consistent Calculation

     iteration #  1     ecut=   100.00 Ry     beta= 0.40
     Davidson diagonalization with overlap

---- Real-time Memory Report at c_bands before calling an iterative solver
            53 MiB given to the printing process from OS
             0 MiB allocation reported by mallinfo(arena+hblkhd)
        333831 MiB available memory on the node where the printing process lives
------------------
     ethr =  1.00E-05,  avg # of iterations =  7.9

     Threshold (ethr) on eigenvalues was too large:
     Diagonalizing with lowered threshold

     Davidson diagonalization with overlap

---- Real-time Memory Report at c_bands before calling an iterative solver
            63 MiB given to the printing process from OS
             0 MiB allocation reported by mallinfo(arena+hblkhd)
        333665 MiB available memory on the node where the printing process lives
------------------
     c_bands:  2 eigenvalues not converged
     c_bands:  1 eigenvalues not converged
     c_bands:  1 eigenvalues not converged
     c_bands:  2 eigenvalues not converged
     c_bands:  2 eigenvalues not converged
     c_bands:  2 eigenvalues not converged
     c_bands:  2 eigenvalues not converged
     c_bands:  1 eigenvalues not converged
     c_bands:  3 eigenvalues not converged
     c_bands:  1 eigenvalues not converged
     c_bands:  1 eigenvalues not converged
     c_bands:  1 eigenvalues not converged
     c_bands:  1 eigenvalues not converged
     c_bands:  2 eigenvalues not converged
     c_bands:  2 eigenvalues not converged
     c_bands:  2 eigenvalues not converged
     c_bands:  1 eigenvalues not converged
     c_bands:  1 eigenvalues not converged
     c_bands:  2 eigenvalues not converged
     c_bands:  1 eigenvalues not converged
     c_bands:  1 eigenvalues not converged
     c_bands:  1 eigenvalues not converged
     c_bands:  1 eigenvalues not converged
     c_bands:  1 eigenvalues not converged
     c_bands:  1 eigenvalues not converged
     c_bands:  2 eigenvalues not converged
     c_bands:  1 eigenvalues not converged
     c_bands:  1 eigenvalues not converged
     c_bands:  1 eigenvalues not converged
     c_bands:  2 eigenvalues not converged
     c_bands:  2 eigenvalues not converged
     c_bands:  2 eigenvalues not converged
     c_bands:  1 eigenvalues not converged
     c_bands:  1 eigenvalues not converged
     c_bands:  2 eigenvalues not converged
     c_bands:  1 eigenvalues not converged
     c_bands:  2 eigenvalues not converged
     c_bands:  1 eigenvalues not converged
     c_bands:  2 eigenvalues not converged
     c_bands:  1 eigenvalues not converged
     c_bands:  2 eigenvalues not converged
     c_bands:  1 eigenvalues not converged
     c_bands:  1 eigenvalues not converged
     ethr =  8.50E-09,  avg # of iterations = 16.3

     total cpu time spent up to now is       19.6 secs

     total energy              =    -753.50452176 Ry
     estimated scf accuracy    <       0.00000187 Ry

     total magnetization       =     1.32 Bohr mag/cell
     absolute magnetization    =     1.42 Bohr mag/cell

     iteration #  2     ecut=   100.00 Ry     beta= 0.40
     Davidson diagonalization with overlap

---- Real-time Memory Report at c_bands before calling an iterative solver
            76 MiB given to the printing process from OS
             0 MiB allocation reported by mallinfo(arena+hblkhd)
        333603 MiB available memory on the node where the printing process lives
------------------
     ethr =  5.51E-09,  avg # of iterations =  2.3

     total cpu time spent up to now is       22.4 secs

     total energy              =    -753.50452339 Ry
     estimated scf accuracy    <       0.00000050 Ry

     total magnetization       =     1.32 Bohr mag/cell
     absolute magnetization    =     1.42 Bohr mag/cell

     iteration #  3     ecut=   100.00 Ry     beta= 0.40
     Davidson diagonalization with overlap

---- Real-time Memory Report at c_bands before calling an iterative solver
            78 MiB given to the printing process from OS
             0 MiB allocation reported by mallinfo(arena+hblkhd)
        333589 MiB available memory on the node where the printing process lives
------------------
     ethr =  1.47E-09,  avg # of iterations =  3.2

     total cpu time spent up to now is       25.6 secs

     total energy              =    -753.50452440 Ry
     estimated scf accuracy    <       0.00000016 Ry

     total magnetization       =     1.32 Bohr mag/cell
     absolute magnetization    =     1.42 Bohr mag/cell

     iteration #  4     ecut=   100.00 Ry     beta= 0.40
     Davidson diagonalization with overlap

---- Real-time Memory Report at c_bands before calling an iterative solver
            79 MiB given to the printing process from OS
             0 MiB allocation reported by mallinfo(arena+hblkhd)
        333579 MiB available memory on the node where the printing process lives
------------------
     ethr =  4.67E-10,  avg # of iterations =  6.3
 
     Magnetic moment per site  (integrated on atomic sphere of radius R)
     atom   1 (R=0.411)  charge= 15.5902  magn=  0.6832
     atom   2 (R=0.411)  charge= 15.5902  magn=  0.6832

     total cpu time spent up to now is       30.3 secs

     End of self-consistent calculation

 ------ SPIN UP ------------


          k = 0.0000 0.0000 0.0000 (  2431 PWs)   bands (ev):

   -76.4045 -76.3432 -39.8278 -39.5215 -39.5215 -39.4734 -39.4713 -39.4713
    10.0058  14.1280  16.9130  16.9655  16.9655  17.2984  17.2984  17.6997
    17.6997  18.7873  18.8523  18.8523  25.8031

     occupation numbers 
     1.0000   1.0000   1.0000   1.0000   1.0000   1.0000   1.0000   1.0000
     1.0000   1.0000   0.9991   0.9989   0.9989   0.9950   0.9950   0.9779
     0.9779   0.6821   0.6486   0.6486   0.0000

          k = 0.0000 0.0000 0.0768 (  2448 PWs)   bands (ev):

   -76.4022 -76.3455 -39.8145 -39.5196 -39.5196 -39.4871 -39.4732 -39.4732
    10.1637  14.0713  16.8682  16.9245  16.9245  17.2538  17.2538  17.7994
    17.7994  18.2623  18.8435  18.8435  26.6651

     occupation numbers 
     1.0000   1.0000   1.0000   1.0000   1.0000   1.0000   1.0000   1.0000
     1.0000   1.0000   0.9993   0.9991   0.9991   0.9959   0.9959   0.9693
     0.9693   0.8880   0.6532   0.6532   0.0000

          k = 0.0000 0.0000 0.1537 (  2436 PWs)   bands (ev):

   -76.3956 -76.3522 -39.7766 -39.5259 -39.5141 -39.5141 -39.4786 -39.4786
    10.6269  13.8157  16.7485  16.8637  16.8637  17.1418  17.1418  17.3051
    18.0270  18.0270  18.8018  18.8018  28.7082

     occupation numbers 
     1.0000   1.0000   1.0000   1.0000   1.0000   1.0000   1.0000   1.0000
     1.0000   1.0000   0.9996   0.9993   0.9993   0.9975   0.9975   0.9949
     0.9393   0.9393   0.6747   0.6747   0.0000

          k = 0.0000 0.0000 0.2305 (  2448 PWs)   bands (ev):

   -76.3856 -76.3622 -39.7195 -39.5839 -39.5060 -39.5060 -39.4868 -39.4868
    11.3588  13.1899  16.6007  16.6776  16.8502  16.8502  17.0096  17.0096
    18.2881  18.2881  18.6994  18.6994  31.3099

     occupation numbers 
     1.0000   1.0000   1.0000   1.0000   1.0000   1.0000   1.0000   1.0000
     1.0000   1.0000   0.9998   0.9997   0.9993   0.9993   0.9986   0.9986
     0.8809   0.8809   0.7250   0.7250   0.0000

          k = 0.0000 0.0000-0.3074 (  2424 PWs)   bands (ev):

   -76.3739 -76.3739 -39.6519 -39.6519 -39.4964 -39.4964 -39.4964 -39.4964
    12.2751  12.2751  16.5180  16.5180  16.9023  16.9023  16.9023  16.9023
    18.5240  18.5240  18.5240  18.5240  34.1920

     occupation numbers 
     1.0000   1.0000   1.0000   1.0000   1.0000   1.0000   1.0000   1.0000
     1.0000   1.0000   0.9999   0.9999   0.9992   0.9992   0.9992   0.9992
     0.8012   0.8012   0.8012   0.8012   0.0000

          k = 0.0000 0.0770 0.0000 (  2427 PWs)   bands (ev):

   -76.4022 -76.3421 -39.8228 -39.5327 -39.5251 -39.4830 -39.4754 -39.4732
    10.1642  14.2295  16.7535  17.0434  17.0998  17.2583  17.3677  17.5816
    17.6495  17.9335  18.8737  19.9259  25.8228

     occupation numbers 
     1.0000   1.0000   1.0000   1.0000   1.0000   1.0000   1.0000   1.0000
     1.0000   1.0000   0.9996   0.9984   0.9979   0.9958   0.9935   0.9853
     0.9814   0.9536   0.6373   0.1278   0.0000

          k = 0.0000 0.0770 0.0768 (  2435 PWs)   bands (ev):

   -76.3999 -76.3444 -39.8100 -39.5306 -39.5232 -39.4950 -39.4786 -39.4751
    10.3206  14.1783  16.7454  16.9955  17.0018  17.1572  17.3200  17.6390
    17.7610  17.8336  18.8618  19.5752  26.7153

     occupation numbers 
     1.0000   1.0000   1.0000   1.0000   1.0000   1.0000   1.0000   1.0000
     1.0000   1.0000   0.9996   0.9987   0.9986   0.9973   0.9946   0.9820
     0.9729   0.9658   0.6436   0.2609   0.0000

          k = 0.0000 0.0770 0.1537 (  2437 PWs)   bands (ev):

   -76.3934 -76.3509 -39.7734 -39.5322 -39.5245 -39.5175 -39.4851 -39.4808
    10.7793  13.9353  16.7262  16.8153  16.8399  16.9281  17.2064  17.3263
    18.0015  18.0206  18.8123  19.1154  28.7921

     occupation numbers 
     1.0000   1.0000   1.0000   1.0000   1.0000   1.0000   1.0000   1.0000
     1.0000   1.0000   0.9996   0.9994   0.9994   0.9990   0.9966   0.9945
     0.9435   0.9404   0.6693   0.5038   0.0000

          k = 0.0000 0.0770 0.2305 (  2441 PWs)   bands (ev):

   -76.3837 -76.3607 -39.7185 -39.5878 -39.5156 -39.5091 -39.4942 -39.4892
    11.5042  13.3188  16.4801  16.5754  16.8035  16.9130  17.0692  17.0737
    18.2713  18.3039  18.7003  18.8296  31.4099

     occupation numbers 
     1.0000   1.0000   1.0000   1.0000   1.0000   1.0000   1.0000   1.0000
     1.0000   1.0000   0.9999   0.9998   0.9995   0.9991   0.9982   0.9981
     0.8856   0.8764   0.7246   0.6605   0.0000

          k = 0.0000 0.0770-0.3074 (  2448 PWs)   bands (ev):

   -76.3722 -76.3722 -39.6533 -39.6533 -39.5049 -39.5049 -39.4992 -39.4992
    12.4118  12.4118  16.4308  16.4308  16.9015  16.9015  16.9656  16.9656
    18.5155  18.5155  18.5778  18.5778  34.3003

     occupation numbers 
     1.0000   1.0000   1.0000   1.0000   1.0000   1.0000   1.0000   1.0000
     1.0000   1.0000   0.9999   0.9999   0.9992   0.9992   0.9989   0.9989
     0.8045   0.8045   0.7793   0.7793   0.0000

          k = 0.0000 0.1540 0.0000 (  2431 PWs)   bands (ev):

   -76.3957 -76.3390 -39.8083 -39.5647 -39.5353 -39.5158 -39.4813 -39.4786
    10.6290  14.5039  16.5222  16.9323  17.1113  17.2689  17.3287  17.5180
    17.5671  17.6482  18.9240  21.1707  25.8904

     occupation numbers 
     1.0000   1.0000   1.0000   1.0000   1.0000   1.0000   1.0000   1.0000
     1.0000   1.0000   0.9999   0.9990   0.9978   0.9956   0.9944   0.9884
     0.9861   0.9814   0.6103   0.0019   0.0000

          k = 0.0000 0.1540 0.0768 (  2434 PWs)   bands (ev):

   -76.3935 -76.3412 -39.7970 -39.5619 -39.5332 -39.5252 -39.4863 -39.4808
    10.7803  14.4700  16.5355  16.7035  17.0391  17.1831  17.3236  17.4984
    17.6922  17.7735  18.9047  20.6237  26.8804

     occupation numbers 
     1.0000   1.0000   1.0000   1.0000   1.0000   1.0000   1.0000   1.0000
     1.0000   1.0000   0.9999   0.9997   0.9984   0.9969   0.9945   0.9892
     0.9784   0.9718   0.6208   0.0169   0.0000

          k = 0.0000 0.1540 0.1537 (  2431 PWs)   bands (ev):

   -76.3874 -76.3473 -39.7648 -39.5579 -39.5508 -39.5270 -39.4976 -39.4869
    11.2239  14.2658  16.3309  16.5849  16.7848  17.0974  17.2505  17.3898
    17.9558  18.0387  18.8364  19.7733  29.0507

     occupation numbers 
     1.0000   1.0000   1.0000   1.0000   1.0000   1.0000   1.0000   1.0000
     1.0000   1.0000   1.0000   0.9998   0.9995   0.9979   0.9959   0.9929
     0.9505   0.9373   0.6569   0.1786   0.0000

          k = 0.0000 0.1540 0.2305 (  2443 PWs)   bands (ev):

   -76.3782 -76.3566 -39.7166 -39.6028 -39.5410 -39.5178 -39.5115 -39.4961
    11.9238  13.6775  16.1502  16.4982  16.6906  17.0625  17.0838  17.2560
    18.2386  18.3659  18.7019  19.1624  31.7081

     occupation numbers 
     1.0000   1.0000   1.0000   1.0000   1.0000   1.0000   1.0000   1.0000
     1.0000   1.0000   1.0000   0.9999   0.9997   0.9982   0.9980   0.9958
     0.8943   0.8576   0.7239   0.4773   0.0000

          k = 0.0000 0.1540-0.3074 (  2452 PWs)   bands (ev):

   -76.3674 -76.3674 -39.6596 -39.6596 -39.5265 -39.5265 -39.5070 -39.5070
    12.7995  12.7995  16.2535  16.2535  16.8550  16.8550  17.1429  17.1429
    18.4974  18.4974  18.7302  18.7302  34.6131

     occupation numbers 
     1.0000   1.0000   1.0000   1.0000   1.0000   1.0000   1.0000   1.0000
     1.0000   1.0000   1.0000   1.0000   0.9993   0.9993   0.9974   0.9974
     0.8115   0.8115   0.7103   0.7103   0.0000

          k = 0.0000 0.2309 0.0000 (  2419 PWs)   bands (ev):

   -76.3858 -76.3348 -39.7856 -39.6120 -39.5636 -39.5500 -39.4914 -39.4870
    11.3661  14.8427  16.2562  16.2898  16.9760  17.3439  17.4860  17.6115
    17.6160  17.8710  18.9796  22.5404  26.0267

     occupation numbers 
     1.0000   1.0000   1.0000   1.0000   1.0000   1.0000   1.0000   1.0000
     1.0000   1.0000   1.0000   1.0000   0.9988   0.9940   0.9897   0.9837
     0.9834   0.9616   0.5799   0.0000   0.0000

          k = 0.0000 0.2309 0.0768 (  2428 PWs)   bands (ev):

   -76.3838 -76.3367 -39.7774 -39.6077 -39.5720 -39.5476 -39.4957 -39.4894
    11.5065  14.8376  16.1137  16.3184  16.9127  17.3002  17.3433  17.6984
    17.8137  17.8549  18.9515  21.7369  27.1963

     occupation numbers 
     1.0000   1.0000   1.0000   1.0000   1.0000   1.0000   1.0000   1.0000
     1.0000   1.0000   1.0000   1.0000   0.9991   0.9950   0.9941   0.9780
     0.9679   0.9634   0.5953   0.0001   0.0000

          k = 0.0000 0.2309 0.1537 (  2439 PWs)   bands (ev):

   -76.3783 -76.3423 -39.7540 -39.6024 -39.5887 -39.5408 -39.5082 -39.4962
    11.9165  14.6968  15.8674  16.3921  16.7125  17.2056  17.2664  17.6673
    17.9951  18.1095  18.8627  20.5335  29.4937

     occupation numbers 
     1.0000   1.0000   1.0000   1.0000   1.0000   1.0000   1.0000   1.0000
     1.0000   1.0000   1.0000   0.9999   0.9997   0.9966   0.9957   0.9802
     0.9445   0.9239   0.6431   0.0230   0.0000

          k = 0.0000 0.2309 0.2305 (  2434 PWs)   bands (ev):

   -76.3701 -76.3505 -39.7188 -39.6350 -39.5728 -39.5306 -39.5272 -39.5065
    12.5587  14.1568  15.8656  16.3600  16.6057  17.0194  17.2971  17.5278
    18.2449  18.4785  18.7082  19.6024  32.1780

     occupation numbers 
     1.0000   1.0000   1.0000   1.0000   1.0000   1.0000   1.0000   1.0000
     1.0000   1.0000   1.0000   1.0000   0.9998   0.9985   0.9951   0.9879
     0.8926   0.8186   0.7209   0.2485   0.0000

          k = 0.0000 0.2309-0.3074 (  2436 PWs)   bands (ev):

   -76.3603 -76.3603 -39.6770 -39.6770 -39.5500 -39.5500 -39.5185 -39.5185
    13.3555  13.3555  16.0863  16.0863  16.7922  16.7922  17.3914  17.3914
    18.4949  18.4949  18.9531  18.9531  34.9695

     occupation numbers 
     1.0000   1.0000   1.0000   1.0000   1.0000   1.0000   1.0000   1.0000
     1.0000   1.0000   1.0000   1.0000   0.9995   0.9995   0.9928   0.9928
     0.8125   0.8125   0.5945   0.5945   0.0000

          k = 0.0000 0.3079 0.0000 (  2423 PWs)   bands (ev):

   -76.3740 -76.3303 -39.7571 -39.6668 -39.6176 -39.5664 -39.5055 -39.4969
    12.3016  15.0318  15.7118  16.1785  16.9236  17.1630  17.3168  18.0198
    18.0384  18.2382  19.0256  24.0219  26.2263

     occupation numbers 
     1.0000   1.0000   1.0000   1.0000   1.0000   1.0000   1.0000   1.0000
     1.0000   1.0000   1.0000   1.0000   0.9991   0.9972   0.9947   0.9405
     0.9373   0.8944   0.5543   0.0000   0.0000

          k = 0.0000 0.3079 0.0768 (  2430 PWs)   bands (ev):

   -76.3723 -76.3320 -39.7558 -39.6579 -39.6251 -39.5638 -39.5082 -39.4996
    12.4190  15.0514  15.6331  16.2084  16.8226  17.1946  17.3488  18.0651
    18.0728  18.2012  18.9909  22.8579  27.6783

     occupation numbers 
     1.0000   1.0000   1.0000   1.0000   1.0000   1.0000   1.0000   1.0000
     1.0000   1.0000   1.0000   1.0000   0.9994   0.9968   0.9939   0.9325
     0.9311   0.9036   0.5736   0.0000   0.0000

          k = 0.0000 0.3079 0.1537 (  2436 PWs)   bands (ev):

   -76.3676 -76.3367 -39.7492 -39.6540 -39.6261 -39.5563 -39.5180 -39.5071
    12.7580  14.9581  15.5425  16.2714  16.6709  17.2882  17.3083  18.0174
    18.2229  18.2657  18.8914  21.3286  30.0463

     occupation numbers 
     1.0000   1.0000   1.0000   1.0000   1.0000   1.0000   1.0000   1.0000
     1.0000   1.0000   1.0000   1.0000   0.9997   0.9953   0.9948   0.9409
     0.8983   0.8871   0.6279   0.0009   0.0000

          k = 0.0000 0.3079 0.2305 (  2428 PWs)   bands (ev):

   -76.3605 -76.3438 -39.7338 -39.6809 -39.5961 -39.5450 -39.5368 -39.5184
    13.2759  14.5125  15.6983  16.2038  16.6891  17.1397  17.4378  17.8361
    18.3742  18.6346  18.7402  20.1007  32.2005

     occupation numbers 
     1.0000   1.0000   1.0000   1.0000   1.0000   1.0000   1.0000   1.0000
     1.0000   1.0000   1.0000   1.0000   0.9997   0.9975   0.9914   0.9655
     0.8549   0.7547   0.7055   0.0832   0.0000

          k = 0.0000 0.3079-0.3074 (  2430 PWs)   bands (ev):

   -76.3522 -76.3522 -39.7099 -39.7099 -39.5639 -39.5639 -39.5317 -39.5317
    13.8974  13.8974  15.9629  15.9629  16.9000  16.9000  17.6291  17.6291
    18.5585  18.5585  19.2216  19.2216  33.2028

     occupation numbers 
     1.0000   1.0000   1.0000   1.0000   1.0000   1.0000   1.0000   1.0000
     1.0000   1.0000   1.0000   1.0000   0.9992   0.9992   0.9826   0.9826
     0.7873   0.7873   0.4441   0.4441   0.0000

          k = 0.0000 0.3849 0.0000 (  2429 PWs)   bands (ev):

   -76.3620 -76.3267 -39.7257 -39.7195 -39.6685 -39.5819 -39.5229 -39.5067
    13.2838  14.9617  15.3065  16.2337  17.0034  17.0437  17.1599  18.4654
    18.5999  18.6156  19.0576  25.5954  26.1871

     occupation numbers 
     1.0000   1.0000   1.0000   1.0000   1.0000   1.0000   1.0000   1.0000
     1.0000   1.0000   1.0000   1.0000   0.9986   0.9984   0.9972   0.8235
     0.7699   0.7631   0.5364   0.0000   0.0000

          k = 0.0000 0.3849 0.0768 (  2428 PWs)   bands (ev):

   -76.3606 -76.3281 -39.7490 -39.6920 -39.6720 -39.5790 -39.5237 -39.5096
    13.3524  14.9733  15.3182  16.1686  16.9656  17.0581  17.3569  18.4814
    18.5568  18.5701  19.0237  23.8813  27.8890

     occupation numbers 
     1.0000   1.0000   1.0000   1.0000   1.0000   1.0000   1.0000   1.0000
     1.0000   1.0000   1.0000   1.0000   0.9989   0.9982   0.9937   0.8176
     0.7880   0.7825   0.5553   0.0000   0.0000

          k = 0.0000 0.3849 0.1537 (  2431 PWs)   bands (ev):

   -76.3568 -76.3319 -39.7629 -39.7029 -39.6420 -39.5709 -39.5289 -39.5177
    13.5486  14.8846  15.3967  16.1084  16.9392  17.2168  17.6244  18.3638
    18.5458  18.5526  18.9411  22.1269  29.0519

     occupation numbers 
     1.0000   1.0000   1.0000   1.0000   1.0000   1.0000   1.0000   1.0000
     1.0000   1.0000   1.0000   1.0000   0.9990   0.9965   0.9829   0.8582
     0.7925   0.7897   0.6010   0.0000   0.0000

          k = 0.0000 0.3849 0.2305 (  2432 PWs)   bands (ev):

   -76.3511 -76.3376 -39.7630 -39.7281 -39.6025 -39.5587 -39.5431 -39.5299
    13.8470  14.5885  15.6003  16.0387  17.0830  17.4630  17.6486  18.0865
    18.6285  18.8327  18.8382  20.6666  29.8062

     occupation numbers 
     1.0000   1.0000   1.0000   1.0000   1.0000   1.0000   1.0000   1.0000
     1.0000   1.0000   1.0000   1.0000   0.9980   0.9905   0.9814   0.9285
     0.7575   0.6589   0.6560   0.0145   0.0000

          k = 0.0000 0.3849-0.3074 (  2428 PWs)   bands (ev):

   -76.3444 -76.3444 -39.7502 -39.7502 -39.5681 -39.5681 -39.5443 -39.5443
    14.2109  14.2109  15.8473  15.8473  17.3889  17.3889  17.7673  17.7673
    18.7302  18.7302  19.5568  19.5568  30.6558

     occupation numbers 
     1.0000   1.0000   1.0000   1.0000   1.0000   1.0000   1.0000   1.0000
     1.0000   1.0000   1.0000   1.0000   0.9929   0.9929   0.9723   0.9723
     0.7103   0.7103   0.2694   0.2694   0.0000

          k = 0.0000 0.4619 0.0000 (  2427 PWs)   bands (ev):

   -76.3517 -76.3248 -39.7609 -39.7078 -39.6962 -39.5938 -39.5417 -39.5144
    14.0545  14.7965  15.0389  16.4376  16.8856  17.0394  17.2278  18.8062
    18.9433  19.0766  19.4228  24.8762  27.2094

     occupation numbers 
     1.0000   1.0000   1.0000   1.0000   1.0000   1.0000   1.0000   1.0000
     1.0000   1.0000   1.0000   0.9999   0.9992   0.9984   0.9963   0.6725
     0.5998   0.5257   0.3353   0.0000   0.0000

          k = 0.0000 0.4619 0.0768 (  2422 PWs)   bands (ev):

   -76.3507 -76.3258 -39.7731 -39.7186 -39.6744 -39.5908 -39.5403 -39.5175
    14.0301  14.7830  15.1934  16.1356  16.9509  17.2088  17.4728  18.8073
    18.8554  19.0682  19.3345  24.1415  27.0908

     occupation numbers 
     1.0000   1.0000   1.0000   1.0000   1.0000   1.0000   1.0000   1.0000
     1.0000   1.0000   1.0000   1.0000   0.9989   0.9966   0.9902   0.6719
     0.6470   0.5304   0.3819   0.0000   0.0000

          k = 0.0000 0.4619 0.1537 (  2415 PWs)   bands (ev):

   -76.3478 -76.3287 -39.7886 -39.7409 -39.6364 -39.5822 -39.5403 -39.5261
    14.0235  14.7419  15.4097  15.9068  17.1411  17.2444  18.1734  18.5780
    18.8512  19.0405  19.0789  22.7054  27.2746

     occupation numbers 
     1.0000   1.0000   1.0000   1.0000   1.0000   1.0000   1.0000   1.0000
     1.0000   1.0000   1.0000   1.0000   0.9975   0.9960   0.9102   0.7792
     0.6492   0.5460   0.5244   0.0000   0.0000

          k = 0.0000 0.4619 0.2305 (  2424 PWs)   bands (ev):

   -76.3434 -76.3331 -39.7933 -39.7658 -39.5986 -39.5694 -39.5484 -39.5390
    14.1098  14.5538  15.5494  15.8829  17.4382  17.5215  18.2116  18.5658
    18.8943  18.9973  19.0896  21.2776  27.7441

     occupation numbers 
     1.0000   1.0000   1.0000   1.0000   1.0000   1.0000   1.0000   1.0000
     1.0000   1.0000   1.0000   1.0000   0.9914   0.9882   0.9011   0.7843
     0.6263   0.5700   0.5184   0.0012   0.0000

          k = 0.0000 0.4619-0.3074 (  2426 PWs)   bands (ev):

   -76.3383 -76.3383 -39.7850 -39.7850 -39.5680 -39.5680 -39.5542 -39.5542
    14.3010  14.3010  15.7416  15.7416  17.8107  17.8107  18.0470  18.0470
    18.9459  18.9459  20.0565  20.0565  28.4401

     occupation numbers 
     1.0000   1.0000   1.0000   1.0000   1.0000   1.0000   1.0000   1.0000
     1.0000   1.0000   1.0000   1.0000   0.9682   0.9682   0.9358   0.9358
     0.5984   0.5984   0.0932   0.0932   0.0000

          k = 0.0000 0.5389 0.0000 (  2416 PWs)   bands (ev):

   -76.3454 -76.3244 -39.7836 -39.7291 -39.6760 -39.6002 -39.5558 -39.5187
    14.4499  14.6466  14.9060  16.6909  16.8233  16.9742  17.3338  18.9906
    19.0851  19.1421  20.4690  23.1341  28.6125

     occupation numbers 
     1.0000   1.0000   1.0000   1.0000   1.0000   1.0000   1.0000   1.0000
     1.0000   1.0000   1.0000   0.9997   0.9994   0.9988   0.9943   0.5738
     0.5209   0.4887   0.0284   0.0000   0.0000

          k = 0.0000 0.5389 0.0768 (  2412 PWs)   bands (ev):

   -76.3446 -76.3252 -39.7925 -39.7389 -39.6603 -39.5972 -39.5528 -39.5218
    14.3065  14.6439  15.1892  16.1391  16.8931  17.3262  17.6593  18.9287
    19.0372  19.1472  20.3348  22.9637  27.8647

     occupation numbers 
     1.0000   1.0000   1.0000   1.0000   1.0000   1.0000   1.0000   1.0000
     1.0000   1.0000   1.0000   1.0000   0.9992   0.9945   0.9807   0.6078
     0.5478   0.4858   0.0432   0.0000   0.0000

          k = 0.0000 0.5389 0.1537 (  2418 PWs)   bands (ev):

   -76.3423 -76.3275 -39.8063 -39.7617 -39.6274 -39.5883 -39.5489 -39.5307
    14.1668  14.6581  15.5441  15.7250  17.0968  17.3924  18.5420  18.6503
    19.0399  19.1367  19.9499  22.4358  27.0848

     occupation numbers 
     1.0000   1.0000   1.0000   1.0000   1.0000   1.0000   1.0000   1.0000
     1.0000   1.0000   1.0000   1.0000   0.9979   0.9928   0.7940   0.7477
     0.5463   0.4918   0.1209   0.0000   0.0000

          k = 0.0000 0.5389 0.2305 (  2422 PWs)   bands (ev):

   -76.3389 -76.3309 -39.8117 -39.7864 -39.5936 -39.5752 -39.5523 -39.5440
    14.1679  14.5252  15.5433  15.7838  17.4157  17.7576  18.2512  19.0615
    19.0763  19.1151  19.7490  21.6070  26.8051

     occupation numbers 
     1.0000   1.0000   1.0000   1.0000   1.0000   1.0000   1.0000   1.0000
     1.0000   1.0000   1.0000   1.0000   0.9921   0.9732   0.8910   0.5342
     0.5258   0.5039   0.1877   0.0002   0.0000

          k = 0.0000 0.5389-0.3074 (  2428 PWs)   bands (ev):

   -76.3349 -76.3349 -39.8047 -39.8047 -39.5672 -39.5672 -39.5596 -39.5596
    14.3072  14.3072  15.6804  15.6804  17.8171  17.8171  18.4294  18.4294
    19.0884  19.0884  20.6400  20.6400  26.9814

     occupation numbers 
     1.0000   1.0000   1.0000   1.0000   1.0000   1.0000   1.0000   1.0000
     1.0000   1.0000   1.0000   1.0000   0.9675   0.9675   0.8364   0.8364
     0.5190   0.5190   0.0159   0.0159   0.0000

          k = 0.0667 0.1155 0.0000 (  2425 PWs)   bands (ev):

   -76.3978 -76.3400 -39.8131 -39.5530 -39.5348 -39.5028 -39.4793 -39.4779
    10.4759  14.4188  16.5828  17.1468  17.1718  17.2081  17.2217  17.4940
    17.5156  17.7445  18.9042  20.8257  25.8669

     occupation numbers 
     1.0000   1.0000   1.0000   1.0000   1.0000   1.0000   1.0000   1.0000
     1.0000   1.0000   0.9998   0.9974   0.9971   0.9966   0.9964   0.9893
     0.9885   0.9743   0.6210   0.0080   0.0000

          k = 0.0667 0.1155 0.0768 (  2429 PWs)   bands (ev):

   -76.3956 -76.3422 -39.8012 -39.5504 -39.5333 -39.5125 -39.4838 -39.4800
    10.6291  14.3791  16.5918  16.8614  17.0559  17.1326  17.3292  17.4412
    17.7052  17.8008  18.8880  20.3351  26.8235

     occupation numbers 
     1.0000   1.0000   1.0000   1.0000   1.0000   1.0000   1.0000   1.0000
     1.0000   1.0000   0.9998   0.9993   0.9983   0.9976   0.9944   0.9913
     0.9775   0.9692   0.6297   0.0431   0.0000

          k = 0.0667 0.1155 0.1537 (  2436 PWs)   bands (ev):

   -76.3894 -76.3485 -39.7675 -39.5477 -39.5431 -39.5246 -39.4931 -39.4860
    11.0781  14.1618  16.4668  16.6299  16.7942  17.0529  17.2653  17.3298
    17.9952  18.0059  18.8275  19.5832  28.9639

     occupation numbers 
     1.0000   1.0000   1.0000   1.0000   1.0000   1.0000   1.0000   1.0000
     1.0000   1.0000   0.9999   0.9998   0.9995   0.9983   0.9957   0.9944
     0.9445   0.9428   0.6615   0.2572   0.0000

          k = 0.0667 0.1155 0.2305 (  2438 PWs)   bands (ev):

   -76.3800 -76.3579 -39.7169 -39.5972 -39.5322 -39.5174 -39.5042 -39.4948
    11.7871  13.5638  16.2388  16.5252  16.7184  17.0225  17.0811  17.1978
    18.2563  18.3342  18.7031  19.0599  31.6098

     occupation numbers 
     1.0000   1.0000   1.0000   1.0000   1.0000   1.0000   1.0000   1.0000
     1.0000   1.0000   1.0000   0.9999   0.9997   0.9985   0.9981   0.9967
     0.8896   0.8674   0.7233   0.5351   0.0000

          k = 0.0667 0.1155-0.3074 (  2440 PWs)   bands (ev):

   -76.3689 -76.3689 -39.6571 -39.6571 -39.5198 -39.5198 -39.5047 -39.5047
    12.6748  12.6748  16.3036  16.3036  16.8664  16.8664  17.0909  17.0909
    18.5026  18.5026  18.6816  18.6816  34.5126

     occupation numbers 
     1.0000   1.0000   1.0000   1.0000   1.0000   1.0000   1.0000   1.0000
     1.0000   1.0000   1.0000   1.0000   0.9993   0.9993   0.9980   0.9980
     0.8095   0.8095   0.7334   0.7334   0.0000

          k = 0.0667 0.1925 0.0000 (  2432 PWs)   bands (ev):

   -76.3896 -76.3364 -39.7944 -39.5902 -39.5596 -39.5312 -39.4874 -39.4867
    11.0786  14.7379  16.3393  16.5002  17.0475  17.3061  17.4169  17.5041
    17.6366  17.8006  18.9472  22.0461  25.9737

     occupation numbers 
     1.0000   1.0000   1.0000   1.0000   1.0000   1.0000   1.0000   1.0000
     1.0000   1.0000   1.0000   0.9999   0.9983   0.9949   0.9921   0.9889
     0.9822   0.9692   0.5977   0.0000   0.0000

          k = 0.0667 0.1925 0.0768 (  2435 PWs)   bands (ev):

   -76.3875 -76.3384 -39.7849 -39.5867 -39.5624 -39.5355 -39.4917 -39.4887
    11.2239  14.7222  16.3220  16.3632  17.0119  17.1850  17.3643  17.5741
    17.7917  17.8234  18.9248  21.3444  27.0685

     occupation numbers 
     1.0000   1.0000   1.0000   1.0000   1.0000   1.0000   1.0000   1.0000
     1.0000   1.0000   1.0000   1.0000   0.9986   0.9969   0.9935   0.9857
     0.9701   0.9669   0.6099   0.0008   0.0000

          k = 0.0667 0.1925 0.1537 (  2433 PWs)   bands (ev):

   -76.3818 -76.3442 -39.7576 -39.5837 -39.5742 -39.5372 -39.5026 -39.4951
    11.6493  14.5573  16.0200  16.4302  16.7630  17.1606  17.2365  17.5530
    18.0022  18.0652  18.8500  20.2650  29.3202

     occupation numbers 
     1.0000   1.0000   1.0000   1.0000   1.0000   1.0000   1.0000   1.0000
     1.0000   1.0000   1.0000   0.9999   0.9996   0.9972   0.9962   0.9868
     0.9434   0.9325   0.6498   0.0530   0.0000

          k = 0.0667 0.1925 0.2305 (  2437 PWs)   bands (ev):

   -76.3732 -76.3528 -39.7168 -39.6210 -39.5598 -39.5328 -39.5160 -39.5046
    12.3183  13.9940  15.9547  16.4178  16.6034  16.9916  17.2418  17.4297
    18.2575  18.4159  18.7139  19.4432  32.0038

     occupation numbers 
     1.0000   1.0000   1.0000   1.0000   1.0000   1.0000   1.0000   1.0000
     1.0000   1.0000   1.0000   0.9999   0.9998   0.9987   0.9961   0.9917
     0.8893   0.8410   0.7181   0.3249   0.0000

          k = 0.0667 0.1925-0.3074 (  2444 PWs)   bands (ev):

   -76.3630 -76.3630 -39.6687 -39.6687 -39.5422 -39.5422 -39.5148 -39.5148
    13.1532  13.1532  16.1437  16.1437  16.7774  16.7774  17.3132  17.3132
    18.4985  18.4985  18.8702  18.8702  34.9022

     occupation numbers 
     1.0000   1.0000   1.0000   1.0000   1.0000   1.0000   1.0000   1.0000
     1.0000   1.0000   1.0000   1.0000   0.9995   0.9995   0.9947   0.9947
     0.8111   0.8111   0.6392   0.6392   0.0000

          k = 0.0667 0.2694 0.0000 (  2430 PWs)   bands (ev):

   -76.3787 -76.3320 -39.7688 -39.6399 -39.6016 -39.5556 -39.4995 -39.4973
    11.9219  15.0338  15.9311  16.1323  16.9431  17.1216  17.4829  17.7064
    17.9058  18.1870  18.9893  23.4347  26.1652

     occupation numbers 
     1.0000   1.0000   1.0000   1.0000   1.0000   1.0000   1.0000   1.0000
     1.0000   1.0000   1.0000   1.0000   0.9990   0.9977   0.9898   0.9774
     0.9573   0.9070   0.5745   0.0000   0.0000

          k = 0.0667 0.2694 0.0768 (  2434 PWs)   bands (ev):

   -76.3769 -76.3338 -39.7637 -39.6340 -39.6071 -39.5559 -39.5034 -39.4987
    12.0512  15.0503  15.8156  16.1673  16.8561  17.1634  17.3912  17.7792
    17.9969  18.1610  18.9634  22.4331  27.4900

     occupation numbers 
     1.0000   1.0000   1.0000   1.0000   1.0000   1.0000   1.0000   1.0000
     1.0000   1.0000   1.0000   1.0000   0.9993   0.9972   0.9928   0.9712
     0.9442   0.9130   0.5888   0.0000   0.0000

          k = 0.0667 0.2694 0.1537 (  2430 PWs)   bands (ev):

   -76.3719 -76.3389 -39.7488 -39.6324 -39.6103 -39.5531 -39.5135 -39.5051
    12.4269  14.9490  15.6449  16.2530  16.6752  17.1523  17.3155  17.8353
    18.1706  18.2207  18.8835  21.0303  29.8564

     occupation numbers 
     1.0000   1.0000   1.0000   1.0000   1.0000   1.0000   1.0000   1.0000
     1.0000   1.0000   1.0000   1.0000   0.9997   0.9973   0.9947   0.9656
     0.9108   0.8988   0.6321   0.0035   0.0000

          k = 0.0667 0.2694 0.2305 (  2436 PWs)   bands (ev):

   -76.3643 -76.3464 -39.7247 -39.6605 -39.5870 -39.5478 -39.5279 -39.5158
    13.0094  14.4394  15.7570  16.2688  16.5609  16.9634  17.4071  17.7204
    18.3571  18.5533  18.7574  19.9133  32.5016

     occupation numbers 
     1.0000   1.0000   1.0000   1.0000   1.0000   1.0000   1.0000   1.0000
     1.0000   1.0000   1.0000   1.0000   0.9999   0.9989   0.9924   0.9763
     0.8604   0.7894   0.6970   0.1316   0.0000

          k = 0.0667 0.2694-0.3074 (  2430 PWs)   bands (ev):

   -76.3554 -76.3554 -39.6938 -39.6938 -39.5609 -39.5609 -39.5273 -39.5273
    13.7222  13.7222  16.0220  16.0220  16.7306  16.7306  17.5549  17.5549
    18.5577  18.5577  19.1191  19.1191  34.5237

     occupation numbers 
     1.0000   1.0000   1.0000   1.0000   1.0000   1.0000   1.0000   1.0000
     1.0000   1.0000   1.0000   1.0000   0.9996   0.9996   0.9867   0.9867
     0.7876   0.7876   0.5017   0.5017   0.0000

          k = 0.0667 0.3464 0.0000 (  2427 PWs)   bands (ev):

   -76.3668 -76.3280 -39.7386 -39.6931 -39.6489 -39.5762 -39.5154 -39.5083
    12.9006  15.0867  15.4828  16.0964  16.9642  16.9755  17.3048  18.0996
    18.3385  18.6567  19.0221  24.9469  26.3698

     occupation numbers 
     1.0000   1.0000   1.0000   1.0000   1.0000   1.0000   1.0000   1.0000
     1.0000   1.0000   1.0000   1.0000   0.9989   0.9988   0.9949   0.9259
     0.8661   0.7448   0.5563   0.0000   0.0000

          k = 0.0667 0.3464 0.0768 (  2425 PWs)   bands (ev):

   -76.3653 -76.3295 -39.7460 -39.6787 -39.6534 -39.5748 -39.5179 -39.5096
    12.9964  15.1143  15.4335  16.1180  16.8220  17.1197  17.3158  18.1057
    18.3837  18.5848  19.0126  23.5199  28.0167

     occupation numbers 
     1.0000   1.0000   1.0000   1.0000   1.0000   1.0000   1.0000   1.0000
     1.0000   1.0000   1.0000   1.0000   0.9994   0.9977   0.9947   0.9247
     0.8518   0.7763   0.5616   0.0000   0.0000

          k = 0.0667 0.3464 0.1537 (  2438 PWs)   bands (ev):

   -76.3611 -76.3337 -39.7519 -39.6820 -39.6363 -39.5694 -39.5262 -39.5149
    13.2699  15.0169  15.4415  16.1772  16.7076  17.2574  17.3206  18.1276
    18.4576  18.5113  18.9693  21.8439  30.0812

     occupation numbers 
     1.0000   1.0000   1.0000   1.0000   1.0000   1.0000   1.0000   1.0000
     1.0000   1.0000   1.0000   1.0000   0.9997   0.9958   0.9946   0.9202
     0.8263   0.8062   0.5856   0.0001   0.0000

          k = 0.0667 0.3464 0.2305 (  2433 PWs)   bands (ev):

   -76.3548 -76.3400 -39.7467 -39.7065 -39.6014 -39.5611 -39.5394 -39.5257
    13.6798  14.6420  15.6575  16.1422  16.7410  17.1612  17.4818  17.9772
    18.5663  18.7589  18.9078  20.4682  31.1072

     occupation numbers 
     1.0000   1.0000   1.0000   1.0000   1.0000   1.0000   1.0000   1.0000
     1.0000   1.0000   1.0000   1.0000   0.9996   0.9972   0.9898   0.9473
     0.7841   0.6962   0.6191   0.0285   0.0000

          k = 0.0667 0.3464-0.3074 (  2432 PWs)   bands (ev):

   -76.3474 -76.3474 -39.7304 -39.7304 -39.5709 -39.5709 -39.5392 -39.5392
    14.1628  14.1628  15.9286  15.9286  16.9461  16.9461  17.7161  17.7161
    18.7310  18.7310  19.4495  19.4495  31.9890

     occupation numbers 
     1.0000   1.0000   1.0000   1.0000   1.0000   1.0000   1.0000   1.0000
     1.0000   1.0000   1.0000   1.0000   0.9990   0.9990   0.9766   0.9766
     0.7099   0.7099   0.3217   0.3217   0.0000

          k = 0.0667 0.4234 0.0000 (  2415 PWs)   bands (ev):

   -76.3555 -76.3254 -39.7399 -39.7077 -39.6904 -39.5927 -39.5341 -39.5179
    13.8066  14.9415  15.1634  16.2231  16.8537  17.1341  17.1455  18.5580
    18.7188  19.0432  19.2535  25.8267  26.5447

     occupation numbers 
     1.0000   1.0000   1.0000   1.0000   1.0000   1.0000   1.0000   1.0000
     1.0000   1.0000   1.0000   1.0000   0.9993   0.9975   0.9974   0.7875
     0.7158   0.5444   0.4263   0.0000   0.0000

          k = 0.0667 0.4234 0.0768 (  2421 PWs)   bands (ev):

   -76.3544 -76.3265 -39.7567 -39.7041 -39.6774 -39.5904 -39.5344 -39.5196
    13.8331  14.9448  15.2332  16.1015  16.9027  17.1463  17.3234  18.5269
    18.7492  18.9103  19.2723  24.3490  27.4828

     occupation numbers 
     1.0000   1.0000   1.0000   1.0000   1.0000   1.0000   1.0000   1.0000
     1.0000   1.0000   1.0000   1.0000   0.9992   0.9974   0.9945   0.8000
     0.7011   0.6177   0.4159   0.0000   0.0000

          k = 0.0667 0.4234 0.1537 (  2430 PWs)   bands (ev):

   -76.3511 -76.3298 -39.7730 -39.7237 -39.6399 -39.5826 -39.5394 -39.5239
    13.9244  14.8763  15.3787  16.0208  16.9314  17.2680  17.6656  18.4175
    18.6853  18.8475  19.2528  22.6292  28.1005

     occupation numbers 
     1.0000   1.0000   1.0000   1.0000   1.0000   1.0000   1.0000   1.0000
     1.0000   1.0000   1.0000   1.0000   0.9990   0.9956   0.9803   0.8405
     0.7316   0.6512   0.4267   0.0000   0.0000

          k = 0.0667 0.4234 0.2305 (  2427 PWs)   bands (ev):

   -76.3462 -76.3347 -39.7768 -39.7478 -39.6037 -39.5708 -39.5506 -39.5329
    14.0971  14.6401  15.5840  15.9972  17.0883  17.4728  17.7995  18.1304
    18.7431  18.9963  19.3027  21.1375  28.7483

     occupation numbers 
     1.0000   1.0000   1.0000   1.0000   1.0000   1.0000   1.0000   1.0000
     1.0000   1.0000   1.0000   1.0000   0.9980   0.9902   0.9693   0.9196
     0.7040   0.5706   0.3992   0.0022   0.0000

          k = 0.0667 0.4234-0.3074 (  2428 PWs)   bands (ev):

   -76.3404 -76.3404 -39.7674 -39.7674 -39.5764 -39.5764 -39.5474 -39.5474
    14.3479  14.3479  15.8246  15.8246  17.4239  17.4239  17.8407  17.8407
    18.9262  18.9262  19.9740  19.9740  29.5588

     occupation numbers 
     1.0000   1.0000   1.0000   1.0000   1.0000   1.0000   1.0000   1.0000
     1.0000   1.0000   1.0000   1.0000   0.9918   0.9918   0.9650   0.9650
     0.6091   0.6091   0.1142   0.1142   0.0000

          k = 0.0667 0.5004 0.0000 (  2409 PWs)   bands (ev):

   -76.3470 -76.3244 -39.7718 -39.7186 -39.6815 -39.6036 -39.5518 -39.5245
    14.3792  14.7796  14.9729  16.4762  16.7983  17.0032  17.3030  18.9075
    18.9879  19.0544  20.1308  24.0689  28.1227

     occupation numbers 
     1.0000   1.0000   1.0000   1.0000   1.0000   1.0000   1.0000   1.0000
     1.0000   1.0000   1.0000   0.9999   0.9995   0.9986   0.9950   0.6193
     0.5753   0.5381   0.0769   0.0000   0.0000

          k = 0.0667 0.5004 0.0768 (  2414 PWs)   bands (ev):

   -76.3462 -76.3253 -39.7814 -39.7288 -39.6647 -39.6002 -39.5501 -39.5265
    14.2899  14.7676  15.2045  16.1016  16.8551  17.3155  17.4509  18.8526
    18.9910  19.0011  20.0672  23.7604  27.3980

     occupation numbers 
     1.0000   1.0000   1.0000   1.0000   1.0000   1.0000   1.0000   1.0000
     1.0000   1.0000   1.0000   1.0000   0.9993   0.9947   0.9909   0.6484
     0.5736   0.5679   0.0907   0.0000   0.0000

          k = 0.0667 0.5004 0.1537 (  2418 PWs)   bands (ev):

   -76.3437 -76.3277 -39.7957 -39.7514 -39.6327 -39.5898 -39.5511 -39.5308
    14.1993  14.7653  15.4789  15.8351  16.9353  17.4448  18.0642  18.5894
    18.9219  19.0670  19.9216  22.8772  26.9753

     occupation numbers 
     1.0000   1.0000   1.0000   1.0000   1.0000   1.0000   1.0000   1.0000
     1.0000   1.0000   1.0000   1.0000   0.9990   0.9912   0.9327   0.7744
     0.6115   0.5311   0.1291   0.0000   0.0000

          k = 0.0667 0.5004 0.2305 (  2423 PWs)   bands (ev):

   -76.3400 -76.3314 -39.8011 -39.7759 -39.6029 -39.5737 -39.5602 -39.5376
    14.2278  14.6108  15.5621  15.8750  17.1744  17.7577  18.1124  18.4390
    18.9044  19.1274  20.0049  21.7475  27.1162

     occupation numbers 
     1.0000   1.0000   1.0000   1.0000   1.0000   1.0000   1.0000   1.0000
     1.0000   1.0000   1.0000   1.0000   0.9971   0.9732   0.9234   0.8330
     0.6209   0.4970   0.1059   0.0001   0.0000

          k = 0.0667 0.5004-0.3074 (  2420 PWs)   bands (ev):

   -76.3357 -76.3357 -39.7941 -39.7941 -39.5805 -39.5805 -39.5511 -39.5511
    14.3817  14.3817  15.7433  15.7433  17.6204  17.6204  18.1909  18.1909
    19.0181  19.0181  20.7076  20.7076  27.6268

     occupation numbers 
     1.0000   1.0000   1.0000   1.0000   1.0000   1.0000   1.0000   1.0000
     1.0000   1.0000   1.0000   1.0000   0.9832   0.9832   0.9061   0.9061
     0.5585   0.5585   0.0125   0.0125   0.0000

          k = 0.0667 0.5774 0.0000 (  2420 PWs)   bands (ev):

   -76.3437 -76.3245 -39.7831 -39.7285 -39.6702 -39.6074 -39.5602 -39.5269
    14.5989  14.6630  14.9096  16.6272  16.7860  16.9504  17.3590  19.0201
    19.0578  19.0944  20.9250  22.8611  29.0494

     occupation numbers 
     1.0000   1.0000   1.0000   1.0000   1.0000   1.0000   1.0000   1.0000
     1.0000   1.0000   1.0000   0.9998   0.9995   0.9989   0.9937   0.5574
     0.5362   0.5156   0.0054   0.0000   0.0000

          k = 0.0667 0.5774 0.0768 (  2413 PWs)   bands (ev):

   -76.3429 -76.3252 -39.7913 -39.7383 -39.6566 -39.6033 -39.5576 -39.5290
    14.4024  14.6928  15.2224  16.1140  16.8212  17.3773  17.5496  18.9194
    19.0612  19.0882  20.8209  22.7599  28.5054

     occupation numbers 
     1.0000   1.0000   1.0000   1.0000   1.0000   1.0000   1.0000   1.0000
     1.0000   1.0000   1.0000   1.0000   0.9994   0.9932   0.9869   0.6128
     0.5343   0.5191   0.0081   0.0000   0.0000

          k = 0.0667 0.5774 0.1537 (  2413 PWs)   bands (ev):

   -76.3408 -76.3273 -39.8047 -39.7612 -39.6290 -39.5910 -39.5567 -39.5334
    14.2482  14.7240  15.6457  15.6643  16.9128  17.5194  18.2214  18.6226
    19.0705  19.1132  20.5762  22.4347  27.7587

     occupation numbers 
     1.0000   1.0000   1.0000   1.0000   1.0000   1.0000   1.0000   1.0000
     1.0000   1.0000   1.0000   1.0000   0.9991   0.9883   0.8986   0.7600
     0.5291   0.5050   0.0199   0.0000   0.0000

          k = 0.0667 0.5774 0.2305 (  2414 PWs)   bands (ev):

   -76.3377 -76.3304 -39.8103 -39.7858 -39.6029 -39.5715 -39.5658 -39.5394
    14.2442  14.5981  15.5651  15.8259  17.1734  17.8868  18.1307  18.6264
    19.0446  19.1121  20.5698  21.8649  27.0366

     occupation numbers 
     1.0000   1.0000   1.0000   1.0000   1.0000   1.0000   1.0000   1.0000
     1.0000   1.0000   1.0000   1.0000   0.9971   0.9597   0.9196   0.7584
     0.5436   0.5057   0.0203   0.0001   0.0000

          k = 0.0667 0.5774-0.3074 (  2412 PWs)   bands (ev):

   -76.3341 -76.3341 -39.8037 -39.8037 -39.5821 -39.5821 -39.5520 -39.5520
    14.3808  14.3808  15.7137  15.7137  17.6370  17.6370  18.3913  18.3913
    19.0279  19.0279  21.1413  21.1413  26.7977

     occupation numbers 
     1.0000   1.0000   1.0000   1.0000   1.0000   1.0000   1.0000   1.0000
     1.0000   1.0000   1.0000   1.0000   0.9821   0.9821   0.8493   0.8493
     0.5530   0.5530   0.0021   0.0021   0.0000

          k = 0.1333 0.2309 0.0000 (  2445 PWs)   bands (ev):

   -76.3804 -76.3326 -39.7728 -39.6240 -39.6042 -39.5461 -39.5012 -39.4975
[...]
    14.3884  15.2370  16.4109  16.4832  17.1775  17.2842  18.0464  18.6805
    19.4509  19.7698  20.2563  21.6206  31.6891

     occupation numbers 
     1.0000   1.0000   1.0000   1.0000   1.0000   1.0000   1.0000   1.0000
     1.0000   1.0000   0.9999   0.9999   0.9970   0.9953   0.9359   0.7339
     0.3210   0.1798   0.0544   0.0002   0.0000

          k = 0.2000 0.3464-0.3074 (  2436 PWs)   bands (ev):

   -75.5102 -75.5102 -38.9371 -38.9371 -38.7863 -38.7863 -38.7312 -38.7312
    14.8200  14.8200  16.5745  16.5745  17.0979  17.0979  18.3401  18.3401
    19.7755  19.7755  20.6315  20.6315  32.4715

     occupation numbers 
     1.0000   1.0000   1.0000   1.0000   1.0000   1.0000   1.0000   1.0000
     1.0000   1.0000   0.9998   0.9998   0.9979   0.9979   0.8656   0.8656
     0.1778   0.1778   0.0164   0.0164   0.0000

          k = 0.2000 0.4234 0.0000 (  2421 PWs)   bands (ev):

   -75.5169 -75.4917 -38.9243 -38.8984 -38.8788 -38.8086 -38.7532 -38.7332
    14.5995  15.6842  15.8322  16.1635  17.2406  17.7559  17.8770  18.9305
    19.7116  19.7151  20.7377  26.9507  27.8410

     occupation numbers 
     1.0000   1.0000   1.0000   1.0000   1.0000   1.0000   1.0000   1.0000
     1.0000   1.0000   1.0000   1.0000   0.9961   0.9733   0.9609   0.6068
     0.2022   0.2008   0.0112   0.0000   0.0000

          k = 0.2000 0.4234 0.0768 (  2420 PWs)   bands (ev):

   -75.5159 -75.4926 -38.9344 -38.9145 -38.8515 -38.8129 -38.7563 -38.7269
    14.6417  15.6404  15.8915  16.2340  17.2731  17.6644  17.8953  18.9508
    19.5715  19.7652  20.7919  25.6095  28.3344

     occupation numbers 
     1.0000   1.0000   1.0000   1.0000   1.0000   1.0000   1.0000   1.0000
     1.0000   1.0000   1.0000   1.0000   0.9955   0.9804   0.9586   0.5957
     0.2626   0.1816   0.0091   0.0000   0.0000

          k = 0.2000 0.4234 0.1537 (  2420 PWs)   bands (ev):

   -75.5132 -75.4954 -38.9529 -38.9284 -38.8273 -38.8086 -38.7606 -38.7185
    14.7613  15.5311  16.0434  16.4290  17.2739  17.4741  17.9593  18.9925
    19.3149  19.8752  20.9071  23.9668  28.8138

     occupation numbers 
     1.0000   1.0000   1.0000   1.0000   1.0000   1.0000   1.0000   1.0000
     1.0000   1.0000   1.0000   0.9999   0.9955   0.9901   0.9500   0.5727
     0.3926   0.1434   0.0058   0.0000   0.0000

          k = 0.2000 0.4234 0.2305 (  2433 PWs)   bands (ev):

   -75.5091 -75.4994 -38.9618 -38.9448 -38.8197 -38.7998 -38.7511 -38.7189
    14.9400  15.3609  16.2829  16.6448  17.1133  17.3260  18.0974  18.7068
    19.5039  19.9366  21.1060  22.5804  29.4851

     occupation numbers 
     1.0000   1.0000   1.0000   1.0000   1.0000   1.0000   1.0000   1.0000
     1.0000   1.0000   1.0000   0.9998   0.9978   0.9945   0.9264   0.7215
     0.2946   0.1247   0.0025   0.0000   0.0000

          k = 0.2000 0.4234-0.3074 (  2426 PWs)   bands (ev):

   -75.5043 -75.5043 -38.9582 -38.9582 -38.8087 -38.8087 -38.7311 -38.7311
    15.1516  15.1516  16.5612  16.5612  17.1517  17.1517  18.3484  18.3484
    19.8252  19.8252  21.5994  21.5994  30.3257

     occupation numbers 
     1.0000   1.0000   1.0000   1.0000   1.0000   1.0000   1.0000   1.0000
     1.0000   1.0000   0.9999   0.9999   0.9973   0.9973   0.8631   0.8631
     0.1601   0.1601   0.0002   0.0002   0.0000

          k = 0.2000 0.5004 0.0000 (  2420 PWs)   bands (ev):

   -75.5087 -75.4918 -38.9486 -38.9020 -38.8512 -38.8335 -38.7668 -38.7535
    15.2314  15.5874  15.6664  16.3075  17.2321  17.5526  18.0505  19.2595
    19.7006  19.7805  21.6903  25.2328  28.8036

     occupation numbers 
     1.0000   1.0000   1.0000   1.0000   1.0000   1.0000   1.0000   1.0000
     1.0000   1.0000   1.0000   1.0000   0.9962   0.9868   0.9352   0.4230
     0.2066   0.1759   0.0001   0.0000   0.0000

          k = 0.2000 0.5004 0.0768 (  2415 PWs)   bands (ev):

   -75.5081 -75.4924 -38.9545 -38.9146 -38.8506 -38.8199 -38.7732 -38.7427
    15.1727  15.6741  15.7376  16.2893  17.2522  17.5340  18.0779  19.2652
    19.5578  19.8204  21.7481  25.0760  28.0785

     occupation numbers 
     1.0000   1.0000   1.0000   1.0000   1.0000   1.0000   1.0000   1.0000
     1.0000   1.0000   1.0000   1.0000   0.9959   0.9876   0.9301   0.4198
     0.2689   0.1617   0.0001   0.0000   0.0000

          k = 0.2000 0.5004 0.1537 (  2417 PWs)   bands (ev):

   -75.5062 -75.4943 -38.9670 -38.9362 -38.8501 -38.8001 -38.7733 -38.7286
    15.1304  15.6622  15.9408  16.4255  17.1509  17.5439  18.1713  19.1482
    19.3830  19.8937  21.9066  24.4626  27.5455

     occupation numbers 
     1.0000   1.0000   1.0000   1.0000   1.0000   1.0000   1.0000   1.0000
     1.0000   1.0000   1.0000   0.9999   0.9973   0.9872   0.9106   0.4853
     0.3561   0.1376   0.0000   0.0000   0.0000

          k = 0.2000 0.5004 0.2305 (  2412 PWs)   bands (ev):

   -75.5035 -75.4970 -38.9749 -38.9574 -38.8409 -38.8093 -38.7497 -38.7229
    15.1770  15.4950  16.2118  16.7292  16.9531  17.4821  18.3088  18.7711
    19.5396  19.9002  22.1993  23.5411  27.7222

     occupation numbers 
     1.0000   1.0000   1.0000   1.0000   1.0000   1.0000   1.0000   1.0000
     1.0000   1.0000   1.0000   0.9996   0.9989   0.9898   0.8750   0.6902
     0.2775   0.1356   0.0000   0.0000   0.0000

          k = 0.2000 0.5004-0.3074 (  2412 PWs)   bands (ev):

   -75.5002 -75.5002 -38.9717 -38.9717 -38.8257 -38.8257 -38.7301 -38.7301
    15.3090  15.3090  16.5285  16.5285  17.2275  17.2275  18.4848  18.4848
    19.7658  19.7658  22.7300  22.7300  28.3206

     occupation numbers 
     1.0000   1.0000   1.0000   1.0000   1.0000   1.0000   1.0000   1.0000
     1.0000   1.0000   0.9999   0.9999   0.9963   0.9963   0.8163   0.8163
     0.1813   0.1813   0.0000   0.0000   0.0000

          k = 0.2000 0.5774 0.0000 (  2432 PWs)   bands (ev):

   -75.5052 -75.4924 -38.9570 -38.9012 -38.8446 -38.8379 -38.7715 -38.7643
    15.4316  15.5560  15.5971  16.4069  17.2715  17.4377  18.1186  19.4803
    19.6955  19.7116  22.5492  23.9676  28.7647

     occupation numbers 
     1.0000   1.0000   1.0000   1.0000   1.0000   1.0000   1.0000   1.0000
     1.0000   1.0000   1.0000   0.9999   0.9956   0.9914   0.9221   0.3062
     0.2087   0.2023   0.0000   0.0000   0.0000

          k = 0.2000 0.5774 0.0768 (  2425 PWs)   bands (ev):

   -75.5047 -75.4929 -38.9623 -38.9123 -38.8592 -38.8104 -38.7822 -38.7502
    15.2699  15.6418  15.8353  16.2898  17.2286  17.5163  18.1529  19.4860
    19.5417  19.7494  22.6207  23.9417  28.7084

     occupation numbers 
     1.0000   1.0000   1.0000   1.0000   1.0000   1.0000   1.0000   1.0000
     1.0000   1.0000   1.0000   1.0000   0.9963   0.9884   0.9148   0.3034
     0.2765   0.1875   0.0000   0.0000   0.0000

          k = 0.2000 0.5774 0.1537 (  2417 PWs)   bands (ev):

   -75.5033 -75.4943 -38.9733 -38.9367 -38.8600 -38.7963 -38.7765 -38.7335
    15.1814  15.7037  16.1201  16.2630  17.0828  17.6212  18.2641  19.1860
    19.5136  19.8095  22.8055  23.8525  28.1766

     occupation numbers 
     1.0000   1.0000   1.0000   1.0000   1.0000   1.0000   1.0000   1.0000
     1.0000   1.0000   1.0000   1.0000   0.9980   0.9831   0.8875   0.4640
     0.2899   0.1655   0.0000   0.0000   0.0000

          k = 0.2000 0.5774 0.2305 (  2404 PWs)   bands (ev):

   -75.5013 -75.4964 -38.9801 -38.9607 -38.8490 -38.8134 -38.7476 -38.7251
    15.2128  15.5593  16.2347  16.7240  16.8628  17.5622  18.4250  18.8217
    19.5890  19.8098  23.0720  23.6712  27.5591

     occupation numbers 
     1.0000   1.0000   1.0000   1.0000   1.0000   1.0000   1.0000   1.0000
     1.0000   1.0000   1.0000   0.9997   0.9993   0.9863   0.8379   0.6645
     0.2546   0.1654   0.0000   0.0000   0.0000

          k = 0.2000 0.5774-0.3074 (  2420 PWs)   bands (ev):

   -75.4988 -75.4988 -38.9763 -38.9763 -38.8320 -38.8320 -38.7296 -38.7296
    15.3509  15.3509  16.5177  16.5177  17.2421  17.2421  18.5905  18.5905
    19.7128  19.7128  23.3888  23.3888  27.3610

     occupation numbers 
     1.0000   1.0000   1.0000   1.0000   1.0000   1.0000   1.0000   1.0000
     1.0000   1.0000   0.9999   0.9999   0.9961   0.9961   0.7739   0.7739
     0.2018   0.2018   0.0000   0.0000   0.0000

          k = 0.2667 0.4619 0.0000 (  2421 PWs)   bands (ev):

   -75.5083 -75.4918 -38.9332 -38.9028 -38.8499 -38.8349 -38.7833 -38.7546
    15.3093  15.6348  15.9578  15.9825  17.1707  17.5595  18.0702  19.1019
    19.6692  19.7808  21.7214  26.6678  27.1466

     occupation numbers 
     1.0000   1.0000   1.0000   1.0000   1.0000   1.0000   1.0000   1.0000
     1.0000   1.0000   1.0000   1.0000   0.9971   0.9864   0.9316   0.5114
     0.2196   0.1758   0.0001   0.0000   0.0000

          k = 0.2667 0.4619 0.0768 (  2416 PWs)   bands (ev):

   -75.5077 -75.4924 -38.9344 -38.9212 -38.8438 -38.8304 -38.7839 -38.7450
    15.3300  15.6026  15.9808  16.0951  17.2160  17.4608  18.0682  19.1261
    19.5234  19.8218  21.7991  26.1895  27.3098

     occupation numbers 
     1.0000   1.0000   1.0000   1.0000   1.0000   1.0000   1.0000   1.0000
     1.0000   1.0000   1.0000   1.0000   0.9965   0.9906   0.9320   0.4978
     0.2852   0.1612   0.0001   0.0000   0.0000

          k = 0.2667 0.4619 0.1537 (  2419 PWs)   bands (ev):

   -75.5059 -75.4942 -38.9456 -38.9407 -38.8540 -38.8149 -38.7734 -38.7297
    15.3770  15.5591  16.0788  16.3569  17.2126  17.2772  18.0790  19.0820
    19.3245  19.8958  22.0009  25.0305  27.7725

     occupation numbers 
     1.0000   1.0000   1.0000   1.0000   1.0000   1.0000   1.0000   1.0000
     1.0000   1.0000   1.0000   1.0000   0.9965   0.9955   0.9299   0.5226
     0.3873   0.1370   0.0000   0.0000   0.0000

          k = 0.2667 0.4619 0.2305 (  2417 PWs)   bands (ev):

   -75.5032 -75.4969 -38.9599 -38.9525 -38.8512 -38.8237 -38.7480 -38.7227
    15.4292  15.5223  16.2809  16.6828  16.8984  17.2219  18.1554  18.6964
    19.5290  19.9057  22.3377  23.8386  28.4632

     occupation numbers 
     1.0000   1.0000   1.0000   1.0000   1.0000   1.0000   1.0000   1.0000
     1.0000   1.0000   1.0000   0.9997   0.9992   0.9964   0.9142   0.7264
     0.2825   0.1339   0.0000   0.0000   0.0000

          k = 0.2667 0.4619-0.3074 (  2420 PWs)   bands (ev):

   -75.5001 -75.5001 -38.9614 -38.9614 -38.8386 -38.8386 -38.7289 -38.7289
    15.4794  15.4794  16.5659  16.5659  17.0076  17.0076  18.3568  18.3568
    19.7772  19.7772  22.9197  22.9197  29.2128

     occupation numbers 
     1.0000   1.0000   1.0000   1.0000   1.0000   1.0000   1.0000   1.0000
     1.0000   1.0000   0.9998   0.9998   0.9986   0.9986   0.8605   0.8605
     0.1771   0.1771   0.0000   0.0000   0.0000

          k = 0.2667 0.5389 0.0000 (  2423 PWs)   bands (ev):

   -75.5021 -75.4935 -38.9386 -38.8901 -38.8615 -38.8251 -38.8021 -38.7752
    15.6194  15.6489  15.8547  16.1313  17.1952  17.3801  18.2042  19.3292
    19.6436  19.6642  22.9642  24.9728  26.7013

     occupation numbers 
     1.0000   1.0000   1.0000   1.0000   1.0000   1.0000   1.0000   1.0000
     1.0000   1.0000   1.0000   1.0000   0.9968   0.9931   0.9029   0.3848
     0.2304   0.2217   0.0000   0.0000   0.0000

          k = 0.2667 0.5389 0.0768 (  2415 PWs)   bands (ev):

   -75.5018 -75.4938 -38.9398 -38.9048 -38.8738 -38.8136 -38.7986 -38.7619
    15.5453  15.7827  15.9160  16.1245  17.1904  17.3285  18.2035  19.3508
    19.4915  19.6968  23.0794  24.9972  26.7654

     occupation numbers 
     1.0000   1.0000   1.0000   1.0000   1.0000   1.0000   1.0000   1.0000
     1.0000   1.0000   1.0000   1.0000   0.9969   0.9944   0.9031   0.3732
     0.3007   0.2082   0.0000   0.0000   0.0000

          k = 0.2667 0.5389 0.1537 (  2411 PWs)   bands (ev):

   -75.5008 -75.4947 -38.9477 -38.9282 -38.8837 -38.8235 -38.7685 -38.7407
    15.5356  15.8954  16.0274  16.2332  17.0977  17.2483  18.2150  19.1144
    19.4397  19.7551  23.3659  24.9846  26.9175

     occupation numbers 
     1.0000   1.0000   1.0000   1.0000   1.0000   1.0000   1.0000   1.0000
     1.0000   1.0000   1.0000   1.0000   0.9979   0.9960   0.9002   0.5044
     0.3267   0.1853   0.0000   0.0000   0.0000

          k = 0.2667 0.5389 0.2305 (  2411 PWs)   bands (ev):

   -75.4994 -75.4961 -38.9581 -38.9482 -38.8760 -38.8402 -38.7420 -38.7274
    15.5942  15.8205  16.2392  16.4784  16.9227  17.1485  18.2719  18.7162
    19.5660  19.7682  23.7574  24.7241  27.1665

     occupation numbers 
     1.0000   1.0000   1.0000   1.0000   1.0000   1.0000   1.0000   1.0000
     1.0000   1.0000   1.0000   0.9999   0.9991   0.9974   0.8854   0.7170
     0.2651   0.1804   0.0000   0.0000   0.0000

          k = 0.2667 0.5389-0.3074 (  2402 PWs)   bands (ev):

   -75.4978 -75.4978 -38.9593 -38.9593 -38.8592 -38.8592 -38.7275 -38.7275
    15.6998  15.6998  16.4724  16.4724  16.9667  16.9667  18.4235  18.4235
    19.6971  19.6971  24.2389  24.2389  27.6591

     occupation numbers 
     1.0000   1.0000   1.0000   1.0000   1.0000   1.0000   1.0000   1.0000
     1.0000   1.0000   0.9999   0.9999   0.9988   0.9988   0.8384   0.8384
     0.2081   0.2081   0.0000   0.0000   0.0000

          k = 0.3333 0.5774 0.0000 (  2424 PWs)   bands (ev):

   -75.4969 -75.4969 -38.9303 -38.8775 -38.8775 -38.8217 -38.7994 -38.7994
    15.6385  15.8575  15.8575  16.0797  17.2468  17.2468  18.2766  19.4734
    19.4734  19.6225  24.1725  25.0272  25.0272

     occupation numbers 
     1.0000   1.0000   1.0000   1.0000   1.0000   1.0000   1.0000   1.0000
     1.0000   1.0000   1.0000   1.0000   0.9960   0.9960   0.8841   0.3097
     0.3097   0.2396   0.0000   0.0000   0.0000

          k = 0.3333 0.5774 0.0768 (  2421 PWs)   bands (ev):

   -75.4969 -75.4969 -38.9262 -38.8943 -38.8943 -38.8258 -38.7825 -38.7825
    15.6864  15.8905  15.8905  16.0958  17.2065  17.2065  18.2625  19.4653
    19.5033  19.5033  24.4119  25.0566  25.0566

     occupation numbers 
     1.0000   1.0000   1.0000   1.0000   1.0000   1.0000   1.0000   1.0000
     1.0000   1.0000   1.0000   1.0000   0.9966   0.9966   0.8880   0.3137
     0.2949   0.2949   0.0000   0.0000   0.0000

          k = 0.3333 0.5774 0.1537 (  2418 PWs)   bands (ev):

   -75.4969 -75.4969 -38.9219 -38.9219 -38.9145 -38.8376 -38.7547 -38.7547
    15.8150  15.9766  15.9766  16.1319  17.1067  17.1067  18.2383  19.0948
    19.5721  19.5721  25.0433  25.1376  25.1376

     occupation numbers 
     1.0000   1.0000   1.0000   1.0000   1.0000   1.0000   1.0000   1.0000
     1.0000   1.0000   1.0000   1.0000   0.9978   0.9978   0.8943   0.5154
     0.2623   0.2623   0.0000   0.0000   0.0000

          k = 0.3333 0.5774 0.2305 (  2418 PWs)   bands (ev):

   -75.4969 -75.4969 -38.9423 -38.9423 -38.8969 -38.8553 -38.7340 -38.7340
    15.9779  16.0754  16.0754  16.1512  16.9989  16.9989  18.2580  18.6927
    19.6365  19.6365  25.2373  25.2373  25.9260

     occupation numbers 
     1.0000   1.0000   1.0000   1.0000   1.0000   1.0000   1.0000   1.0000
     1.0000   1.0000   1.0000   1.0000   0.9987   0.9987   0.8892   0.7282
     0.2335   0.2335   0.0000   0.0000   0.0000

          k = 0.3333 0.5774-0.3074 (  2400 PWs)   bands (ev):

   -75.4969 -75.4969 -38.9497 -38.9497 -38.8762 -38.8762 -38.7265 -38.7265
    16.1054  16.1054  16.1220  16.1220  16.9497  16.9497  18.3963  18.3963
    19.6620  19.6620  25.2860  25.2860  26.9779

     occupation numbers 
     1.0000   1.0000   1.0000   1.0000   1.0000   1.0000   1.0000   1.0000
     1.0000   1.0000   1.0000   1.0000   0.9989   0.9989   0.8477   0.8477
     0.2226   0.2226   0.0000   0.0000   0.0000

     the Fermi energy is    19.1221 ev

!    total energy              =    -753.50452448 Ry
     total all-electron energy =     -5573.861216 Ry
     estimated scf accuracy    <       0.00000003 Ry
     smearing contrib. (-TS)   =      -0.12952807 Ry
     internal energy E=F+TS    =    -753.37499641 Ry

     The total energy is F=E-TS. E is the sum of the following terms:
     one-electron contribution =    -278.79701899 Ry
     hartree contribution      =     163.54457290 Ry
     xc contribution           =     -61.30426566 Ry
     ewald contribution        =    -401.63724122 Ry
     one-center paw contrib.   =    -175.18104344 Ry
      -> PAW hartree energy AE =     222.28525413 Ry
      -> PAW hartree energy PS =    -221.22739040 Ry
      -> PAW xc energy AE      =    -117.62976639 Ry
      -> PAW xc energy PS      =      28.98138093 Ry
      -> total E_H with PAW    =     164.60243663 Ry
      -> total E_XC with PAW   =    -149.95265111 Ry

     total magnetization       =     1.32 Bohr mag/cell
     absolute magnetization    =     1.42 Bohr mag/cell

     convergence has been achieved in   4 iterations

     Writing all to output data dir ./out/Co.save/
 
     init_run     :      0.53s CPU      0.75s WALL (       1 calls)
     electrons    :     28.17s CPU     29.46s WALL (       1 calls)

     Called by init_run:
     wfcinit      :      0.38s CPU      0.57s WALL (       1 calls)
     potinit      :      0.11s CPU      0.13s WALL (       1 calls)
     hinit0       :      0.03s CPU      0.03s WALL (       1 calls)

     Called by electrons:
     c_bands      :     25.81s CPU     26.92s WALL (       5 calls)
     sum_band     :      1.93s CPU      2.01s WALL (       5 calls)
     v_of_rho     :      0.01s CPU      0.01s WALL (       5 calls)
     v_h          :      0.00s CPU      0.00s WALL (       5 calls)
     v_xc         :      0.01s CPU      0.01s WALL (       5 calls)
     newd         :      0.02s CPU      0.02s WALL (       5 calls)
     PAW_pot      :      0.49s CPU      0.61s WALL (       5 calls)
     mix_rho      :      0.00s CPU      0.00s WALL (       5 calls)

     Called by c_bands:
     init_us_2    :      0.11s CPU      0.11s WALL (    2700 calls)
     init_us_2:cp :      0.11s CPU      0.11s WALL (    2700 calls)
     cegterg      :     25.19s CPU     26.04s WALL (    1351 calls)

     Called by sum_band:
     sum_band:wei :      0.13s CPU      0.13s WALL (       5 calls)
     sum_band:loo :      1.77s CPU      1.85s WALL (       5 calls)
     sum_band:buf :      0.01s CPU      0.01s WALL (    1350 calls)
     sum_band:ini :      0.06s CPU      0.06s WALL (    1350 calls)
     sum_band:cal :      0.11s CPU      0.11s WALL (    1350 calls)
     sum_band:bec :      0.01s CPU      0.02s WALL (    1350 calls)
     addusdens    :      0.03s CPU      0.03s WALL (       5 calls)
                                        0.00s GPU  (       5 calls)
     addusd:skk   :      0.00s CPU      0.00s WALL (       5 calls)
                                        0.00s GPU  (       5 calls)

     Called by *egterg:
     cdiaghg      :      6.64s CPU      6.77s WALL (   10538 calls)
     cegterg:over :      0.86s CPU      0.82s WALL (    9728 calls)
     cegterg:upda :      0.12s CPU      0.20s WALL (    9728 calls)
     cegterg:last :      0.37s CPU      0.39s WALL (    6949 calls)
     h_psi        :     16.08s CPU     16.71s WALL (   11079 calls)
     s_psi        :      0.32s CPU      0.29s WALL (   11079 calls)
     g_psi        :      0.06s CPU      0.07s WALL (    9728 calls)

     Called by h_psi:
     h_psi:calbec :      0.73s CPU      0.69s WALL (   11079 calls)
     vloc_psi     :     14.99s CPU     15.57s WALL (   11079 calls)
     add_vuspsi   :      0.31s CPU      0.37s WALL (   11079 calls)

     General routines
     calbec       :      0.83s CPU      0.78s WALL (   12429 calls)
     fft          :      0.01s CPU      0.01s WALL (     105 calls)
     ffts         :      0.00s CPU      0.00s WALL (      10 calls)
     fftw         :     15.88s CPU     16.15s WALL (  315370 calls)
 
     Parallel routines

     PAW routines
     PAW_pot      :      0.49s CPU      0.61s WALL (       5 calls)
     PAW_symme    :      0.00s CPU      0.01s WALL (       9 calls)
 
     PWSCF        :     29.18s CPU     31.54s WALL

 
   This run was terminated on:  16:17:12  13Mar2024            

=------------------------------------------------------------------------------=
   JOB DONE.
=------------------------------------------------------------------------------=
