
     Program PWSCF v.7.2 starts on 13Mar2024 at 16:18:12 

     This program is part of the open-source Quantum ESPRESSO suite
     for quantum simulation of materials; please cite
         "P. Giannozzi et al., J. Phys.:Condens. Matter 21 395502 (2009);
         "P. Giannozzi et al., J. Phys.:Condens. Matter 29 465901 (2017);
         "P. Giannozzi et al., J. Chem. Phys. 152 154105 (2020);
          URL http://www.quantum-espresso.org", 
     in publications or presentations arising from this work. More details at
     http://www.quantum-espresso.org/quote

     Parallel version (MPI), running on    20 processors

     MPI processes distributed on     1 nodes
     334299 MiB available memory on the printing compute node when the environment starts
 
     Waiting for input...
     Reading input from standard input

     Current dimensions of program PWSCF are:
     Max number of different atomic species (ntypx) = 10
     Max number of k-points (npk) = 120000
     Max angular momentum in pseudopotentials (lmaxx) =  4
     file Co.pbe-spn-kjpaw_psl.0.3.1.UPF: wavefunction(s)  3P 3D renormalized
     Message from routine set_cutoff:
     ecutrho < 4*ecutwfc, are you sure?
     Message from routine setup:
     using ibrav=0 with symmetry is DISCOURAGED, use correct ibrav instead
 
     R & G space division:  proc/nbgrp/npool/nimage =      20
     Subspace diagonalization in iterative solution of the eigenvalue problem:
     a serial algorithm will be used

 
     Parallelization info
     --------------------
     sticks:   dense  smooth     PW     G-vecs:    dense   smooth      PW
     Min          27      27     11                  825      825     229
     Max          28      28     12                  830      830     234
     Sum         547     547    235                16551    16551    4619
 
     Using Slab Decomposition
 


     bravais-lattice index     =            0
     lattice parameter (alat)  =       4.6714  a.u.
     unit-cell volume          =     143.6064 (a.u.)^3
     number of atoms/cell      =            2
     number of atomic types    =            1
     number of electrons       =        34.00
     number of Kohn-Sham states=           21
     kinetic-energy cutoff     =     130.0000  Ry
     charge density cutoff     =     360.0000  Ry
     scf convergence threshold =      8.0E-08
     mixing beta               =       0.4000
     number of iterations used =            8  plain     mixing
     Exchange-correlation= SLA  PW   PBX  PBC
                           (   1   4   3   4   0   0   0)

     celldm(1)=   4.671403  celldm(2)=   0.000000  celldm(3)=   0.000000
     celldm(4)=   0.000000  celldm(5)=   0.000000  celldm(6)=   0.000000

     crystal axes: (cart. coord. in units of alat)
               a(1) = (   1.000000   0.000000   0.000000 )  
               a(2) = (  -0.500000   0.866025   0.000000 )  
               a(3) = (   0.000000   0.000000   1.626676 )  

     reciprocal axes: (cart. coord. in units 2 pi/alat)
               b(1) = (  1.000000  0.577350  0.000000 )  
               b(2) = (  0.000000  1.154701  0.000000 )  
               b(3) = (  0.000000  0.000000  0.614750 )  


     PseudoPot. # 1 for Co read from file:
     /truba/home/amuhaymin/ZnS/pseudo/QE/Co.pbe-spn-kjpaw_psl.0.3.1.UPF
     MD5 check sum: b0a1ad65bf214e88c1f3d33b20c7d919
     Pseudo is Projector augmented-wave + core cor, Zval = 17.0
     Generated using &quot;atomic&quot; code by A. Dal Corso  v.6.2.2
     Shape of augmentation charge: PSQ
     Using radial grid of 1193 points,  6 beta functions with: 
                l(1) =   0
                l(2) =   0
                l(3) =   1
                l(4) =   1
                l(5) =   2
                l(6) =   2
     Q(r) pseudized with 0 coefficients 


     atomic species   valence    mass     pseudopotential
        Co            17.00    58.93300     Co( 1.00)

     Starting magnetic structure 
     atomic species   magnetization
        Co           0.294

     24 Sym. Ops., with inversion, found (12 have fractional translation)


                                    s                        frac. trans.

      isym =  1     identity                                     

 cryst.   s( 1) = (     1          0          0      )
                  (     0          1          0      )
                  (     0          0          1      )

 cart.    s( 1) = (  1.0000000  0.0000000  0.0000000 )
                  (  0.0000000  1.0000000  0.0000000 )
                  (  0.0000000  0.0000000  1.0000000 )


      isym =  2     180 deg rotation - cart. axis [0,0,1]        

 cryst.   s( 2) = (    -1          0          0      )    f =(  0.0000000 )
                  (     0         -1          0      )       (  0.0000000 )
                  (     0          0          1      )       ( -0.5000000 )

 cart.    s( 2) = ( -1.0000000  0.0000000  0.0000000 )    f =(  0.0000000 )
                  (  0.0000000 -1.0000000  0.0000000 )       (  0.0000000 )
                  (  0.0000000  0.0000000  1.0000000 )       ( -0.8133382 )


      isym =  3     180 deg rotation - cart. axis [0,1,0]        

 cryst.   s( 3) = (    -1          0          0      )    f =(  0.0000000 )
                  (     1          1          0      )       (  0.0000000 )
                  (     0          0         -1      )       (  0.5000000 )

 cart.    s( 3) = ( -1.0000000  0.0000000  0.0000000 )    f =(  0.0000000 )
                  (  0.0000000  1.0000000  0.0000000 )       (  0.0000000 )
                  (  0.0000000  0.0000000 -1.0000000 )       (  0.8133382 )


      isym =  4     180 deg rotation - cart. axis [1,0,0]        

 cryst.   s( 4) = (     1          0          0      )
                  (    -1         -1          0      )
                  (     0          0         -1      )

 cart.    s( 4) = (  1.0000000  0.0000000  0.0000000 )
                  (  0.0000000 -1.0000000  0.0000000 )
                  (  0.0000000  0.0000000 -1.0000000 )


      isym =  5      60 deg rotation - cryst. axis [0,0,1]       

 cryst.   s( 5) = (     1          1          0      )    f =(  0.0000000 )
                  (    -1          0          0      )       ( -0.0000000 )
                  (     0          0          1      )       ( -0.5000000 )

 cart.    s( 5) = (  0.5000000 -0.8660254  0.0000000 )    f =(  0.0000000 )
                  (  0.8660254  0.5000000  0.0000000 )       ( -0.0000000 )
                  (  0.0000000  0.0000000  1.0000000 )       ( -0.8133382 )


      isym =  6      60 deg rotation - cryst. axis [0,0,-1]      

 cryst.   s( 6) = (     0         -1          0      )    f =(  0.0000000 )
                  (     1          1          0      )       ( -0.0000000 )
                  (     0          0          1      )       ( -0.5000000 )

 cart.    s( 6) = (  0.5000000  0.8660254  0.0000000 )    f =(  0.0000000 )
                  ( -0.8660254  0.5000000  0.0000000 )       ( -0.0000000 )
                  (  0.0000000  0.0000000  1.0000000 )       ( -0.8133382 )


      isym =  7     120 deg rotation - cryst. axis [0,0,1]       

 cryst.   s( 7) = (     0          1          0      )
                  (    -1         -1          0      )
                  (     0          0          1      )

 cart.    s( 7) = ( -0.5000000 -0.8660254  0.0000000 )
                  (  0.8660254 -0.5000000  0.0000000 )
                  (  0.0000000  0.0000000  1.0000000 )


      isym =  8     120 deg rotation - cryst. axis [0,0,-1]      

 cryst.   s( 8) = (    -1         -1          0      )
                  (     1          0          0      )
                  (     0          0          1      )

 cart.    s( 8) = ( -0.5000000  0.8660254  0.0000000 )
                  ( -0.8660254 -0.5000000  0.0000000 )
                  (  0.0000000  0.0000000  1.0000000 )


      isym =  9     180 deg rotation - cryst. axis [1,-1,0]      

 cryst.   s( 9) = (     0         -1          0      )    f =(  0.0000000 )
                  (    -1          0          0      )       (  0.0000000 )
                  (     0          0         -1      )       (  0.5000000 )

 cart.    s( 9) = (  0.5000000 -0.8660254  0.0000000 )    f =(  0.0000000 )
                  ( -0.8660254 -0.5000000  0.0000000 )       (  0.0000000 )
                  (  0.0000000  0.0000000 -1.0000000 )       (  0.8133382 )


      isym = 10     180 deg rotation - cryst. axis [2,1,0]       

 cryst.   s(10) = (     1          1          0      )    f =(  0.0000000 )
                  (     0         -1          0      )       ( -0.0000000 )
                  (     0          0         -1      )       (  0.5000000 )

 cart.    s(10) = (  0.5000000  0.8660254  0.0000000 )    f =(  0.0000000 )
                  (  0.8660254 -0.5000000  0.0000000 )       ( -0.0000000 )
                  (  0.0000000  0.0000000 -1.0000000 )       (  0.8133382 )


      isym = 11     180 deg rotation - cryst. axis [0,1,0]       

 cryst.   s(11) = (    -1         -1          0      )
                  (     0          1          0      )
                  (     0          0         -1      )

 cart.    s(11) = ( -0.5000000 -0.8660254  0.0000000 )
                  ( -0.8660254  0.5000000  0.0000000 )
                  (  0.0000000  0.0000000 -1.0000000 )


      isym = 12     180 deg rotation - cryst. axis [1,1,0]       

 cryst.   s(12) = (     0          1          0      )
                  (     1          0          0      )
                  (     0          0         -1      )

 cart.    s(12) = ( -0.5000000  0.8660254  0.0000000 )
                  (  0.8660254  0.5000000  0.0000000 )
                  (  0.0000000  0.0000000 -1.0000000 )


      isym = 13     inversion                                    

 cryst.   s(13) = (    -1          0          0      )
                  (     0         -1          0      )
                  (     0          0         -1      )

 cart.    s(13) = ( -1.0000000  0.0000000  0.0000000 )
                  (  0.0000000 -1.0000000  0.0000000 )
                  (  0.0000000  0.0000000 -1.0000000 )


      isym = 14     inv. 180 deg rotation - cart. axis [0,0,1]   

 cryst.   s(14) = (     1          0          0      )    f =(  0.0000000 )
                  (     0          1          0      )       (  0.0000000 )
                  (     0          0         -1      )       (  0.5000000 )

 cart.    s(14) = (  1.0000000  0.0000000  0.0000000 )    f =(  0.0000000 )
                  (  0.0000000  1.0000000  0.0000000 )       (  0.0000000 )
                  (  0.0000000  0.0000000 -1.0000000 )       (  0.8133382 )


      isym = 15     inv. 180 deg rotation - cart. axis [0,1,0]   

 cryst.   s(15) = (     1          0          0      )    f =(  0.0000000 )
                  (    -1         -1          0      )       (  0.0000000 )
                  (     0          0          1      )       ( -0.5000000 )

 cart.    s(15) = (  1.0000000  0.0000000  0.0000000 )    f =(  0.0000000 )
                  (  0.0000000 -1.0000000  0.0000000 )       (  0.0000000 )
                  (  0.0000000  0.0000000  1.0000000 )       ( -0.8133382 )


      isym = 16     inv. 180 deg rotation - cart. axis [1,0,0]   

 cryst.   s(16) = (    -1          0          0      )
                  (     1          1          0      )
                  (     0          0          1      )

 cart.    s(16) = ( -1.0000000  0.0000000  0.0000000 )
                  (  0.0000000  1.0000000  0.0000000 )
                  (  0.0000000  0.0000000  1.0000000 )


      isym = 17     inv.  60 deg rotation - cryst. axis [0,0,1]  

 cryst.   s(17) = (    -1         -1          0      )    f =(  0.0000000 )
                  (     1          0          0      )       (  0.0000000 )
                  (     0          0         -1      )       (  0.5000000 )

 cart.    s(17) = ( -0.5000000  0.8660254  0.0000000 )    f =(  0.0000000 )
                  ( -0.8660254 -0.5000000  0.0000000 )       (  0.0000000 )
                  (  0.0000000  0.0000000 -1.0000000 )       (  0.8133382 )


      isym = 18     inv.  60 deg rotation - cryst. axis [0,0,-1] 

 cryst.   s(18) = (     0          1          0      )    f =(  0.0000000 )
                  (    -1         -1          0      )       ( -0.0000000 )
                  (     0          0         -1      )       (  0.5000000 )

 cart.    s(18) = ( -0.5000000 -0.8660254  0.0000000 )    f =(  0.0000000 )
                  (  0.8660254 -0.5000000  0.0000000 )       ( -0.0000000 )
                  (  0.0000000  0.0000000 -1.0000000 )       (  0.8133382 )


      isym = 19     inv. 120 deg rotation - cryst. axis [0,0,1]  

 cryst.   s(19) = (     0         -1          0      )
                  (     1          1          0      )
                  (     0          0         -1      )

 cart.    s(19) = (  0.5000000  0.8660254  0.0000000 )
                  ( -0.8660254  0.5000000  0.0000000 )
                  (  0.0000000  0.0000000 -1.0000000 )


      isym = 20     inv. 120 deg rotation - cryst. axis [0,0,-1] 

 cryst.   s(20) = (     1          1          0      )
                  (    -1          0          0      )
                  (     0          0         -1      )

 cart.    s(20) = (  0.5000000 -0.8660254  0.0000000 )
                  (  0.8660254  0.5000000  0.0000000 )
                  (  0.0000000  0.0000000 -1.0000000 )


      isym = 21     inv. 180 deg rotation - cryst. axis [1,-1,0] 

 cryst.   s(21) = (     0          1          0      )    f =(  0.0000000 )
                  (     1          0          0      )       ( -0.0000000 )
                  (     0          0          1      )       ( -0.5000000 )

 cart.    s(21) = ( -0.5000000  0.8660254  0.0000000 )    f =(  0.0000000 )
                  (  0.8660254  0.5000000  0.0000000 )       ( -0.0000000 )
                  (  0.0000000  0.0000000  1.0000000 )       ( -0.8133382 )


      isym = 22     inv. 180 deg rotation - cryst. axis [2,1,0]  

 cryst.   s(22) = (    -1         -1          0      )    f =(  0.0000000 )
                  (     0          1          0      )       ( -0.0000000 )
                  (     0          0          1      )       ( -0.5000000 )

 cart.    s(22) = ( -0.5000000 -0.8660254  0.0000000 )    f =(  0.0000000 )
                  ( -0.8660254  0.5000000  0.0000000 )       ( -0.0000000 )
                  (  0.0000000  0.0000000  1.0000000 )       ( -0.8133382 )


      isym = 23     inv. 180 deg rotation - cryst. axis [0,1,0]  

 cryst.   s(23) = (     1          1          0      )
                  (     0         -1          0      )
                  (     0          0          1      )

 cart.    s(23) = (  0.5000000  0.8660254  0.0000000 )
                  (  0.8660254 -0.5000000  0.0000000 )
                  (  0.0000000  0.0000000  1.0000000 )


      isym = 24     inv. 180 deg rotation - cryst. axis [1,1,0]  

 cryst.   s(24) = (     0         -1          0      )
                  (    -1          0          0      )
                  (     0          0          1      )

 cart.    s(24) = (  0.5000000 -0.8660254  0.0000000 )
                  ( -0.8660254 -0.5000000  0.0000000 )
                  (  0.0000000  0.0000000  1.0000000 )


   Cartesian axes

     site n.     atom                  positions (alat units)
         1           Co  tau(   1) = (  -0.0000000   0.5773503   0.4066691  )
         2           Co  tau(   2) = (   0.5000000   0.2886751   1.2200074  )

   Crystallographic axes

     site n.     atom                  positions (cryst. coord.)
         1           Co  tau(   1) = (  0.3333333  0.6666667  0.2500000  )
         2           Co  tau(   2) = (  0.6666667  0.3333333  0.7500000  )

     number of k points=   135  Gaussian smearing, width (Ry)=  0.0735
                       cart. coord. in units 2pi/alat
        k(    1) = (   0.0000000   0.0000000   0.0000000), wk =   0.0005556
        k(    2) = (   0.0000000   0.0000000   0.0768438), wk =   0.0011111
        k(    3) = (   0.0000000   0.0000000   0.1536876), wk =   0.0011111
        k(    4) = (   0.0000000   0.0000000   0.2305314), wk =   0.0011111
        k(    5) = (   0.0000000   0.0000000  -0.3073752), wk =   0.0005556
        k(    6) = (   0.0000000   0.0769800   0.0000000), wk =   0.0033333
        k(    7) = (   0.0000000   0.0769800   0.0768438), wk =   0.0066667
        k(    8) = (   0.0000000   0.0769800   0.1536876), wk =   0.0066667
        k(    9) = (   0.0000000   0.0769800   0.2305314), wk =   0.0066667
        k(   10) = (   0.0000000   0.0769800  -0.3073752), wk =   0.0033333
        k(   11) = (   0.0000000   0.1539601   0.0000000), wk =   0.0033333
        k(   12) = (   0.0000000   0.1539601   0.0768438), wk =   0.0066667
        k(   13) = (   0.0000000   0.1539601   0.1536876), wk =   0.0066667
        k(   14) = (   0.0000000   0.1539601   0.2305314), wk =   0.0066667
        k(   15) = (   0.0000000   0.1539601  -0.3073752), wk =   0.0033333
        k(   16) = (   0.0000000   0.2309401   0.0000000), wk =   0.0033333
        k(   17) = (   0.0000000   0.2309401   0.0768438), wk =   0.0066667
        k(   18) = (   0.0000000   0.2309401   0.1536876), wk =   0.0066667
        k(   19) = (   0.0000000   0.2309401   0.2305314), wk =   0.0066667
        k(   20) = (   0.0000000   0.2309401  -0.3073752), wk =   0.0033333
        k(   21) = (   0.0000000   0.3079201   0.0000000), wk =   0.0033333
        k(   22) = (   0.0000000   0.3079201   0.0768438), wk =   0.0066667
        k(   23) = (   0.0000000   0.3079201   0.1536876), wk =   0.0066667
        k(   24) = (   0.0000000   0.3079201   0.2305314), wk =   0.0066667
        k(   25) = (   0.0000000   0.3079201  -0.3073752), wk =   0.0033333
        k(   26) = (   0.0000000   0.3849002   0.0000000), wk =   0.0033333
        k(   27) = (   0.0000000   0.3849002   0.0768438), wk =   0.0066667
        k(   28) = (   0.0000000   0.3849002   0.1536876), wk =   0.0066667
        k(   29) = (   0.0000000   0.3849002   0.2305314), wk =   0.0066667
        k(   30) = (   0.0000000   0.3849002  -0.3073752), wk =   0.0033333
        k(   31) = (   0.0000000   0.4618802   0.0000000), wk =   0.0033333
        k(   32) = (   0.0000000   0.4618802   0.0768438), wk =   0.0066667
        k(   33) = (   0.0000000   0.4618802   0.1536876), wk =   0.0066667
        k(   34) = (   0.0000000   0.4618802   0.2305314), wk =   0.0066667
        k(   35) = (   0.0000000   0.4618802  -0.3073752), wk =   0.0033333
        k(   36) = (   0.0000000   0.5388603   0.0000000), wk =   0.0033333
        k(   37) = (   0.0000000   0.5388603   0.0768438), wk =   0.0066667
        k(   38) = (   0.0000000   0.5388603   0.1536876), wk =   0.0066667
        k(   39) = (   0.0000000   0.5388603   0.2305314), wk =   0.0066667
        k(   40) = (   0.0000000   0.5388603  -0.3073752), wk =   0.0033333
        k(   41) = (   0.0666667   0.1154701   0.0000000), wk =   0.0033333
        k(   42) = (   0.0666667   0.1154701   0.0768438), wk =   0.0066667
        k(   43) = (   0.0666667   0.1154701   0.1536876), wk =   0.0066667
        k(   44) = (   0.0666667   0.1154701   0.2305314), wk =   0.0066667
        k(   45) = (   0.0666667   0.1154701  -0.3073752), wk =   0.0033333
        k(   46) = (   0.0666667   0.1924501   0.0000000), wk =   0.0066667
        k(   47) = (   0.0666667   0.1924501   0.0768438), wk =   0.0133333
        k(   48) = (   0.0666667   0.1924501   0.1536876), wk =   0.0133333
        k(   49) = (   0.0666667   0.1924501   0.2305314), wk =   0.0133333
        k(   50) = (   0.0666667   0.1924501  -0.3073752), wk =   0.0066667
        k(   51) = (   0.0666667   0.2694301   0.0000000), wk =   0.0066667
        k(   52) = (   0.0666667   0.2694301   0.0768438), wk =   0.0133333
        k(   53) = (   0.0666667   0.2694301   0.1536876), wk =   0.0133333
        k(   54) = (   0.0666667   0.2694301   0.2305314), wk =   0.0133333
        k(   55) = (   0.0666667   0.2694301  -0.3073752), wk =   0.0066667
        k(   56) = (   0.0666667   0.3464102   0.0000000), wk =   0.0066667
        k(   57) = (   0.0666667   0.3464102   0.0768438), wk =   0.0133333
        k(   58) = (   0.0666667   0.3464102   0.1536876), wk =   0.0133333
        k(   59) = (   0.0666667   0.3464102   0.2305314), wk =   0.0133333
        k(   60) = (   0.0666667   0.3464102  -0.3073752), wk =   0.0066667
        k(   61) = (   0.0666667   0.4233902   0.0000000), wk =   0.0066667
        k(   62) = (   0.0666667   0.4233902   0.0768438), wk =   0.0133333
        k(   63) = (   0.0666667   0.4233902   0.1536876), wk =   0.0133333
        k(   64) = (   0.0666667   0.4233902   0.2305314), wk =   0.0133333
        k(   65) = (   0.0666667   0.4233902  -0.3073752), wk =   0.0066667
        k(   66) = (   0.0666667   0.5003702   0.0000000), wk =   0.0066667
        k(   67) = (   0.0666667   0.5003702   0.0768438), wk =   0.0133333
        k(   68) = (   0.0666667   0.5003702   0.1536876), wk =   0.0133333
        k(   69) = (   0.0666667   0.5003702   0.2305314), wk =   0.0133333
        k(   70) = (   0.0666667   0.5003702  -0.3073752), wk =   0.0066667
        k(   71) = (   0.0666667   0.5773503   0.0000000), wk =   0.0033333
        k(   72) = (   0.0666667   0.5773503   0.0768438), wk =   0.0066667
        k(   73) = (   0.0666667   0.5773503   0.1536876), wk =   0.0066667
        k(   74) = (   0.0666667   0.5773503   0.2305314), wk =   0.0066667
        k(   75) = (   0.0666667   0.5773503  -0.3073752), wk =   0.0033333
        k(   76) = (   0.1333333   0.2309401   0.0000000), wk =   0.0033333
        k(   77) = (   0.1333333   0.2309401   0.0768438), wk =   0.0066667
        k(   78) = (   0.1333333   0.2309401   0.1536876), wk =   0.0066667
        k(   79) = (   0.1333333   0.2309401   0.2305314), wk =   0.0066667
        k(   80) = (   0.1333333   0.2309401  -0.3073752), wk =   0.0033333
        k(   81) = (   0.1333333   0.3079201   0.0000000), wk =   0.0066667
        k(   82) = (   0.1333333   0.3079201   0.0768438), wk =   0.0133333
        k(   83) = (   0.1333333   0.3079201   0.1536876), wk =   0.0133333
        k(   84) = (   0.1333333   0.3079201   0.2305314), wk =   0.0133333
        k(   85) = (   0.1333333   0.3079201  -0.3073752), wk =   0.0066667
        k(   86) = (   0.1333333   0.3849002   0.0000000), wk =   0.0066667
        k(   87) = (   0.1333333   0.3849002   0.0768438), wk =   0.0133333
        k(   88) = (   0.1333333   0.3849002   0.1536876), wk =   0.0133333
        k(   89) = (   0.1333333   0.3849002   0.2305314), wk =   0.0133333
        k(   90) = (   0.1333333   0.3849002  -0.3073752), wk =   0.0066667
        k(   91) = (   0.1333333   0.4618802   0.0000000), wk =   0.0066667
        k(   92) = (   0.1333333   0.4618802   0.0768438), wk =   0.0133333
        k(   93) = (   0.1333333   0.4618802   0.1536876), wk =   0.0133333
        k(   94) = (   0.1333333   0.4618802   0.2305314), wk =   0.0133333
        k(   95) = (   0.1333333   0.4618802  -0.3073752), wk =   0.0066667
        k(   96) = (   0.1333333   0.5388603   0.0000000), wk =   0.0066667
        k(   97) = (   0.1333333   0.5388603   0.0768438), wk =   0.0133333
        k(   98) = (   0.1333333   0.5388603   0.1536876), wk =   0.0133333
        k(   99) = (   0.1333333   0.5388603   0.2305314), wk =   0.0133333
        k(  100) = (   0.1333333   0.5388603  -0.3073752), wk =   0.0066667
        k(  101) = (   0.2000000   0.3464102   0.0000000), wk =   0.0033333
        k(  102) = (   0.2000000   0.3464102   0.0768438), wk =   0.0066667
        k(  103) = (   0.2000000   0.3464102   0.1536876), wk =   0.0066667
        k(  104) = (   0.2000000   0.3464102   0.2305314), wk =   0.0066667
        k(  105) = (   0.2000000   0.3464102  -0.3073752), wk =   0.0033333
        k(  106) = (   0.2000000   0.4233902   0.0000000), wk =   0.0066667
        k(  107) = (   0.2000000   0.4233902   0.0768438), wk =   0.0133333
        k(  108) = (   0.2000000   0.4233902   0.1536876), wk =   0.0133333
        k(  109) = (   0.2000000   0.4233902   0.2305314), wk =   0.0133333
        k(  110) = (   0.2000000   0.4233902  -0.3073752), wk =   0.0066667
        k(  111) = (   0.2000000   0.5003702   0.0000000), wk =   0.0066667
        k(  112) = (   0.2000000   0.5003702   0.0768438), wk =   0.0133333
        k(  113) = (   0.2000000   0.5003702   0.1536876), wk =   0.0133333
        k(  114) = (   0.2000000   0.5003702   0.2305314), wk =   0.0133333
        k(  115) = (   0.2000000   0.5003702  -0.3073752), wk =   0.0066667
        k(  116) = (   0.2000000   0.5773503   0.0000000), wk =   0.0033333
        k(  117) = (   0.2000000   0.5773503   0.0768438), wk =   0.0066667
        k(  118) = (   0.2000000   0.5773503   0.1536876), wk =   0.0066667
        k(  119) = (   0.2000000   0.5773503   0.2305314), wk =   0.0066667
        k(  120) = (   0.2000000   0.5773503  -0.3073752), wk =   0.0033333
        k(  121) = (   0.2666667   0.4618802   0.0000000), wk =   0.0033333
        k(  122) = (   0.2666667   0.4618802   0.0768438), wk =   0.0066667
        k(  123) = (   0.2666667   0.4618802   0.1536876), wk =   0.0066667
        k(  124) = (   0.2666667   0.4618802   0.2305314), wk =   0.0066667
        k(  125) = (   0.2666667   0.4618802  -0.3073752), wk =   0.0033333
        k(  126) = (   0.2666667   0.5388603   0.0000000), wk =   0.0066667
        k(  127) = (   0.2666667   0.5388603   0.0768438), wk =   0.0133333
        k(  128) = (   0.2666667   0.5388603   0.1536876), wk =   0.0133333
        k(  129) = (   0.2666667   0.5388603   0.2305314), wk =   0.0133333
        k(  130) = (   0.2666667   0.5388603  -0.3073752), wk =   0.0066667
        k(  131) = (   0.3333333   0.5773503   0.0000000), wk =   0.0011111
        k(  132) = (   0.3333333   0.5773503   0.0768438), wk =   0.0022222
        k(  133) = (   0.3333333   0.5773503   0.1536876), wk =   0.0022222
        k(  134) = (   0.3333333   0.5773503   0.2305314), wk =   0.0022222
        k(  135) = (   0.3333333   0.5773503  -0.3073752), wk =   0.0011111

                       cryst. coord.
        k(    1) = (   0.0000000   0.0000000   0.0000000), wk =   0.0005556
        k(    2) = (   0.0000000   0.0000000   0.1250000), wk =   0.0011111
        k(    3) = (   0.0000000   0.0000000   0.2500000), wk =   0.0011111
        k(    4) = (   0.0000000   0.0000000   0.3750000), wk =   0.0011111
        k(    5) = (   0.0000000   0.0000000  -0.5000000), wk =   0.0005556
        k(    6) = (   0.0000000   0.0666667   0.0000000), wk =   0.0033333
        k(    7) = (   0.0000000   0.0666667   0.1250000), wk =   0.0066667
        k(    8) = (   0.0000000   0.0666667   0.2500000), wk =   0.0066667
        k(    9) = (   0.0000000   0.0666667   0.3750000), wk =   0.0066667
        k(   10) = (   0.0000000   0.0666667  -0.5000000), wk =   0.0033333
        k(   11) = (   0.0000000   0.1333333   0.0000000), wk =   0.0033333
        k(   12) = (   0.0000000   0.1333333   0.1250000), wk =   0.0066667
        k(   13) = (   0.0000000   0.1333333   0.2500000), wk =   0.0066667
        k(   14) = (   0.0000000   0.1333333   0.3750000), wk =   0.0066667
        k(   15) = (   0.0000000   0.1333333  -0.5000000), wk =   0.0033333
        k(   16) = (   0.0000000   0.2000000   0.0000000), wk =   0.0033333
        k(   17) = (   0.0000000   0.2000000   0.1250000), wk =   0.0066667
        k(   18) = (   0.0000000   0.2000000   0.2500000), wk =   0.0066667
        k(   19) = (   0.0000000   0.2000000   0.3750000), wk =   0.0066667
        k(   20) = (   0.0000000   0.2000000  -0.5000000), wk =   0.0033333
        k(   21) = (   0.0000000   0.2666667   0.0000000), wk =   0.0033333
        k(   22) = (   0.0000000   0.2666667   0.1250000), wk =   0.0066667
        k(   23) = (   0.0000000   0.2666667   0.2500000), wk =   0.0066667
        k(   24) = (   0.0000000   0.2666667   0.3750000), wk =   0.0066667
        k(   25) = (   0.0000000   0.2666667  -0.5000000), wk =   0.0033333
        k(   26) = (   0.0000000   0.3333333   0.0000000), wk =   0.0033333
        k(   27) = (   0.0000000   0.3333333   0.1250000), wk =   0.0066667
        k(   28) = (   0.0000000   0.3333333   0.2500000), wk =   0.0066667
        k(   29) = (   0.0000000   0.3333333   0.3750000), wk =   0.0066667
        k(   30) = (   0.0000000   0.3333333  -0.5000000), wk =   0.0033333
        k(   31) = (   0.0000000   0.4000000   0.0000000), wk =   0.0033333
        k(   32) = (   0.0000000   0.4000000   0.1250000), wk =   0.0066667
        k(   33) = (   0.0000000   0.4000000   0.2500000), wk =   0.0066667
        k(   34) = (   0.0000000   0.4000000   0.3750000), wk =   0.0066667
        k(   35) = (   0.0000000   0.4000000  -0.5000000), wk =   0.0033333
        k(   36) = (   0.0000000   0.4666667   0.0000000), wk =   0.0033333
        k(   37) = (   0.0000000   0.4666667   0.1250000), wk =   0.0066667
        k(   38) = (   0.0000000   0.4666667   0.2500000), wk =   0.0066667
        k(   39) = (   0.0000000   0.4666667   0.3750000), wk =   0.0066667
        k(   40) = (   0.0000000   0.4666667  -0.5000000), wk =   0.0033333
        k(   41) = (   0.0666667   0.0666667   0.0000000), wk =   0.0033333
        k(   42) = (   0.0666667   0.0666667   0.1250000), wk =   0.0066667
        k(   43) = (   0.0666667   0.0666667   0.2500000), wk =   0.0066667
        k(   44) = (   0.0666667   0.0666667   0.3750000), wk =   0.0066667
        k(   45) = (   0.0666667   0.0666667  -0.5000000), wk =   0.0033333
        k(   46) = (   0.0666667   0.1333333   0.0000000), wk =   0.0066667
        k(   47) = (   0.0666667   0.1333333   0.1250000), wk =   0.0133333
        k(   48) = (   0.0666667   0.1333333   0.2500000), wk =   0.0133333
        k(   49) = (   0.0666667   0.1333333   0.3750000), wk =   0.0133333
        k(   50) = (   0.0666667   0.1333333  -0.5000000), wk =   0.0066667
        k(   51) = (   0.0666667   0.2000000   0.0000000), wk =   0.0066667
        k(   52) = (   0.0666667   0.2000000   0.1250000), wk =   0.0133333
        k(   53) = (   0.0666667   0.2000000   0.2500000), wk =   0.0133333
        k(   54) = (   0.0666667   0.2000000   0.3750000), wk =   0.0133333
        k(   55) = (   0.0666667   0.2000000  -0.5000000), wk =   0.0066667
        k(   56) = (   0.0666667   0.2666667   0.0000000), wk =   0.0066667
        k(   57) = (   0.0666667   0.2666667   0.1250000), wk =   0.0133333
        k(   58) = (   0.0666667   0.2666667   0.2500000), wk =   0.0133333
        k(   59) = (   0.0666667   0.2666667   0.3750000), wk =   0.0133333
        k(   60) = (   0.0666667   0.2666667  -0.5000000), wk =   0.0066667
        k(   61) = (   0.0666667   0.3333333   0.0000000), wk =   0.0066667
        k(   62) = (   0.0666667   0.3333333   0.1250000), wk =   0.0133333
        k(   63) = (   0.0666667   0.3333333   0.2500000), wk =   0.0133333
        k(   64) = (   0.0666667   0.3333333   0.3750000), wk =   0.0133333
        k(   65) = (   0.0666667   0.3333333  -0.5000000), wk =   0.0066667
        k(   66) = (   0.0666667   0.4000000   0.0000000), wk =   0.0066667
        k(   67) = (   0.0666667   0.4000000   0.1250000), wk =   0.0133333
        k(   68) = (   0.0666667   0.4000000   0.2500000), wk =   0.0133333
        k(   69) = (   0.0666667   0.4000000   0.3750000), wk =   0.0133333
        k(   70) = (   0.0666667   0.4000000  -0.5000000), wk =   0.0066667
        k(   71) = (   0.0666667   0.4666667   0.0000000), wk =   0.0033333
        k(   72) = (   0.0666667   0.4666667   0.1250000), wk =   0.0066667
        k(   73) = (   0.0666667   0.4666667   0.2500000), wk =   0.0066667
        k(   74) = (   0.0666667   0.4666667   0.3750000), wk =   0.0066667
        k(   75) = (   0.0666667   0.4666667  -0.5000000), wk =   0.0033333
        k(   76) = (   0.1333333   0.1333333   0.0000000), wk =   0.0033333
        k(   77) = (   0.1333333   0.1333333   0.1250000), wk =   0.0066667
        k(   78) = (   0.1333333   0.1333333   0.2500000), wk =   0.0066667
        k(   79) = (   0.1333333   0.1333333   0.3750000), wk =   0.0066667
        k(   80) = (   0.1333333   0.1333333  -0.5000000), wk =   0.0033333
        k(   81) = (   0.1333333   0.2000000   0.0000000), wk =   0.0066667
        k(   82) = (   0.1333333   0.2000000   0.1250000), wk =   0.0133333
        k(   83) = (   0.1333333   0.2000000   0.2500000), wk =   0.0133333
        k(   84) = (   0.1333333   0.2000000   0.3750000), wk =   0.0133333
        k(   85) = (   0.1333333   0.2000000  -0.5000000), wk =   0.0066667
        k(   86) = (   0.1333333   0.2666667   0.0000000), wk =   0.0066667
        k(   87) = (   0.1333333   0.2666667   0.1250000), wk =   0.0133333
        k(   88) = (   0.1333333   0.2666667   0.2500000), wk =   0.0133333
        k(   89) = (   0.1333333   0.2666667   0.3750000), wk =   0.0133333
        k(   90) = (   0.1333333   0.2666667  -0.5000000), wk =   0.0066667
        k(   91) = (   0.1333333   0.3333333   0.0000000), wk =   0.0066667
        k(   92) = (   0.1333333   0.3333333   0.1250000), wk =   0.0133333
        k(   93) = (   0.1333333   0.3333333   0.2500000), wk =   0.0133333
        k(   94) = (   0.1333333   0.3333333   0.3750000), wk =   0.0133333
        k(   95) = (   0.1333333   0.3333333  -0.5000000), wk =   0.0066667
        k(   96) = (   0.1333333   0.4000000   0.0000000), wk =   0.0066667
        k(   97) = (   0.1333333   0.4000000   0.1250000), wk =   0.0133333
        k(   98) = (   0.1333333   0.4000000   0.2500000), wk =   0.0133333
        k(   99) = (   0.1333333   0.4000000   0.3750000), wk =   0.0133333
        k(  100) = (   0.1333333   0.4000000  -0.5000000), wk =   0.0066667
        k(  101) = (   0.2000000   0.2000000   0.0000000), wk =   0.0033333
        k(  102) = (   0.2000000   0.2000000   0.1250000), wk =   0.0066667
        k(  103) = (   0.2000000   0.2000000   0.2500000), wk =   0.0066667
        k(  104) = (   0.2000000   0.2000000   0.3750000), wk =   0.0066667
        k(  105) = (   0.2000000   0.2000000  -0.5000000), wk =   0.0033333
        k(  106) = (   0.2000000   0.2666667   0.0000000), wk =   0.0066667
        k(  107) = (   0.2000000   0.2666667   0.1250000), wk =   0.0133333
        k(  108) = (   0.2000000   0.2666667   0.2500000), wk =   0.0133333
        k(  109) = (   0.2000000   0.2666667   0.3750000), wk =   0.0133333
        k(  110) = (   0.2000000   0.2666667  -0.5000000), wk =   0.0066667
        k(  111) = (   0.2000000   0.3333333   0.0000000), wk =   0.0066667
        k(  112) = (   0.2000000   0.3333333   0.1250000), wk =   0.0133333
        k(  113) = (   0.2000000   0.3333333   0.2500000), wk =   0.0133333
        k(  114) = (   0.2000000   0.3333333   0.3750000), wk =   0.0133333
        k(  115) = (   0.2000000   0.3333333  -0.5000000), wk =   0.0066667
        k(  116) = (   0.2000000   0.4000000   0.0000000), wk =   0.0033333
        k(  117) = (   0.2000000   0.4000000   0.1250000), wk =   0.0066667
        k(  118) = (   0.2000000   0.4000000   0.2500000), wk =   0.0066667
        k(  119) = (   0.2000000   0.4000000   0.3750000), wk =   0.0066667
        k(  120) = (   0.2000000   0.4000000  -0.5000000), wk =   0.0033333
        k(  121) = (   0.2666667   0.2666667   0.0000000), wk =   0.0033333
        k(  122) = (   0.2666667   0.2666667   0.1250000), wk =   0.0066667
        k(  123) = (   0.2666667   0.2666667   0.2500000), wk =   0.0066667
        k(  124) = (   0.2666667   0.2666667   0.3750000), wk =   0.0066667
        k(  125) = (   0.2666667   0.2666667  -0.5000000), wk =   0.0033333
        k(  126) = (   0.2666667   0.3333333   0.0000000), wk =   0.0066667
        k(  127) = (   0.2666667   0.3333333   0.1250000), wk =   0.0133333
        k(  128) = (   0.2666667   0.3333333   0.2500000), wk =   0.0133333
        k(  129) = (   0.2666667   0.3333333   0.3750000), wk =   0.0133333
        k(  130) = (   0.2666667   0.3333333  -0.5000000), wk =   0.0066667
        k(  131) = (   0.3333333   0.3333333   0.0000000), wk =   0.0011111
        k(  132) = (   0.3333333   0.3333333   0.1250000), wk =   0.0022222
        k(  133) = (   0.3333333   0.3333333   0.2500000), wk =   0.0022222
        k(  134) = (   0.3333333   0.3333333   0.3750000), wk =   0.0022222
        k(  135) = (   0.3333333   0.3333333  -0.5000000), wk =   0.0011111

     Dense  grid:    16551 G-vectors     FFT dimensions: (  30,  30,  48)

     Dynamical RAM for                 wfc:       0.06 MB

     Dynamical RAM for     wfc (w. buffer):      15.54 MB

     Dynamical RAM for           str. fact:       0.01 MB

     Dynamical RAM for           local pot:       0.00 MB

     Dynamical RAM for          nlocal pot:       0.10 MB

     Dynamical RAM for                qrad:       1.52 MB

     Dynamical RAM for          rho,v,vnew:       0.20 MB

     Dynamical RAM for               rhoin:       0.07 MB

     Dynamical RAM for            rho*nmix:       0.40 MB

     Dynamical RAM for           G-vectors:       0.05 MB

     Dynamical RAM for          h,s,v(r/c):       0.08 MB

     Dynamical RAM for          <psi|beta>:       0.01 MB

     Dynamical RAM for                 psi:       0.11 MB

     Dynamical RAM for                hpsi:       0.11 MB

     Dynamical RAM for                spsi:       0.11 MB

     Dynamical RAM for      wfcinit/wfcrot:       0.12 MB

     Dynamical RAM for           addusdens:       2.39 MB

     Estimated static dynamical RAM per process >      17.65 MB

     Estimated max dynamical RAM per process >      20.44 MB

     Estimated total dynamical RAM >     408.84 MB

     Check: negative core charge=   -0.000067
     Generating pointlists ...
     new r_m :   0.4114 (alat units)  1.9220 (a.u.) for type    1

     The initial density is read from file :
     ./out/Co.save/charge-density

     Starting wfcs from file
     Checking if some PAW data can be deallocated... 

     total cpu time spent up to now is        0.9 secs

     Self-consistent Calculation

     iteration #  1     ecut=   130.00 Ry     beta= 0.40
     Davidson diagonalization with overlap

---- Real-time Memory Report at c_bands before calling an iterative solver
            60 MiB given to the printing process from OS
             0 MiB allocation reported by mallinfo(arena+hblkhd)
        333553 MiB available memory on the node where the printing process lives
------------------
     ethr =  1.00E-05,  avg # of iterations =  3.2

     Threshold (ethr) on eigenvalues was too large:
     Diagonalizing with lowered threshold

     Davidson diagonalization with overlap

---- Real-time Memory Report at c_bands before calling an iterative solver
            72 MiB given to the printing process from OS
             0 MiB allocation reported by mallinfo(arena+hblkhd)
        333340 MiB available memory on the node where the printing process lives
------------------
     ethr =  4.78E-08,  avg # of iterations = 10.8

     total cpu time spent up to now is       15.3 secs

     total energy              =    -753.50592660 Ry
     estimated scf accuracy    <       0.00000056 Ry

     total magnetization       =     1.32 Bohr mag/cell
     absolute magnetization    =     1.42 Bohr mag/cell

     iteration #  2     ecut=   130.00 Ry     beta= 0.40
     Davidson diagonalization with overlap

---- Real-time Memory Report at c_bands before calling an iterative solver
            87 MiB given to the printing process from OS
             0 MiB allocation reported by mallinfo(arena+hblkhd)
        333318 MiB available memory on the node where the printing process lives
------------------
     ethr =  1.64E-09,  avg # of iterations =  5.2

     total cpu time spent up to now is       20.2 secs

     total energy              =    -753.50592779 Ry
     estimated scf accuracy    <       0.00000019 Ry

     total magnetization       =     1.32 Bohr mag/cell
     absolute magnetization    =     1.42 Bohr mag/cell

     iteration #  3     ecut=   130.00 Ry     beta= 0.40
     Davidson diagonalization with overlap

---- Real-time Memory Report at c_bands before calling an iterative solver
            88 MiB given to the printing process from OS
             0 MiB allocation reported by mallinfo(arena+hblkhd)
        333345 MiB available memory on the node where the printing process lives
------------------
     ethr =  5.60E-10,  avg # of iterations =  3.5
 
     Magnetic moment per site  (integrated on atomic sphere of radius R)
     atom   1 (R=0.411)  charge= 15.5901  magn=  0.6843
     atom   2 (R=0.411)  charge= 15.5901  magn=  0.6843

     total cpu time spent up to now is       23.9 secs

     End of self-consistent calculation

 ------ SPIN UP ------------


          k = 0.0000 0.0000 0.0000 (  3633 PWs)   bands (ev):

   -76.4043 -76.3430 -39.8286 -39.5223 -39.5223 -39.4742 -39.4721 -39.4721
    10.0056  14.1276  16.9127  16.9651  16.9651  17.2981  17.2981  17.6994
    17.6994  18.7873  18.8520  18.8520  25.8028

     occupation numbers 
     1.0000   1.0000   1.0000   1.0000   1.0000   1.0000   1.0000   1.0000
     1.0000   1.0000   0.9991   0.9989   0.9989   0.9951   0.9951   0.9779
     0.9779   0.6823   0.6490   0.6490   0.0000

          k = 0.0000 0.0000 0.0768 (  3621 PWs)   bands (ev):

   -76.4020 -76.3453 -39.8152 -39.5204 -39.5204 -39.4878 -39.4740 -39.4740
    10.1635  14.0710  16.8679  16.9242  16.9242  17.2535  17.2535  17.7991
    17.7991  18.2623  18.8433  18.8433  26.6649

     occupation numbers 
     1.0000   1.0000   1.0000   1.0000   1.0000   1.0000   1.0000   1.0000
     1.0000   1.0000   0.9993   0.9991   0.9991   0.9959   0.9959   0.9694
     0.9694   0.8881   0.6536   0.6536   0.0000

          k = 0.0000 0.0000 0.1537 (  3598 PWs)   bands (ev):

   -76.3954 -76.3520 -39.7773 -39.5267 -39.5149 -39.5149 -39.4794 -39.4794
    10.6267  13.8154  16.7482  16.8634  16.8634  17.1415  17.1415  17.3050
    18.0268  18.0268  18.8016  18.8016  28.7081

     occupation numbers 
     1.0000   1.0000   1.0000   1.0000   1.0000   1.0000   1.0000   1.0000
     1.0000   1.0000   0.9996   0.9993   0.9993   0.9975   0.9975   0.9949
     0.9394   0.9394   0.6750   0.6750   0.0000

          k = 0.0000 0.0000 0.2305 (  3616 PWs)   bands (ev):

   -76.3854 -76.3620 -39.7203 -39.5847 -39.5068 -39.5068 -39.4876 -39.4876
    11.3586  13.1897  16.6005  16.6774  16.8499  16.8499  17.0092  17.0092
    18.2878  18.2878  18.6992  18.6992  31.3098

     occupation numbers 
     1.0000   1.0000   1.0000   1.0000   1.0000   1.0000   1.0000   1.0000
     1.0000   1.0000   0.9998   0.9997   0.9993   0.9993   0.9986   0.9986
     0.8811   0.8811   0.7253   0.7253   0.0000

          k = 0.0000 0.0000-0.3074 (  3652 PWs)   bands (ev):

   -76.3737 -76.3737 -39.6527 -39.6527 -39.4972 -39.4972 -39.4972 -39.4972
    12.2749  12.2749  16.5177  16.5177  16.9020  16.9020  16.9020  16.9020
    18.5237  18.5237  18.5237  18.5237  34.1919

     occupation numbers 
     1.0000   1.0000   1.0000   1.0000   1.0000   1.0000   1.0000   1.0000
     1.0000   1.0000   0.9999   0.9999   0.9992   0.9992   0.9992   0.9992
     0.8015   0.8015   0.8015   0.8015   0.0000

          k = 0.0000 0.0770 0.0000 (  3623 PWs)   bands (ev):

   -76.4020 -76.3419 -39.8236 -39.5335 -39.5259 -39.4838 -39.4761 -39.4740
    10.1639  14.2292  16.7532  17.0431  17.0994  17.2580  17.3674  17.5813
    17.6491  17.9334  18.8734  19.9259  25.8225

     occupation numbers 
     1.0000   1.0000   1.0000   1.0000   1.0000   1.0000   1.0000   1.0000
     1.0000   1.0000   0.9996   0.9984   0.9979   0.9958   0.9935   0.9854
     0.9814   0.9537   0.6377   0.1280   0.0000

          k = 0.0000 0.0770 0.0768 (  3605 PWs)   bands (ev):

   -76.3997 -76.3442 -39.8107 -39.5314 -39.5239 -39.4958 -39.4794 -39.4759
    10.3204  14.1780  16.7451  16.9952  17.0015  17.1569  17.3197  17.6389
    17.7607  17.8334  18.8616  19.5751  26.7152

     occupation numbers 
     1.0000   1.0000   1.0000   1.0000   1.0000   1.0000   1.0000   1.0000
     1.0000   1.0000   0.9996   0.9987   0.9986   0.9973   0.9946   0.9821
     0.9729   0.9659   0.6440   0.2611   0.0000

          k = 0.0000 0.0770 0.1537 (  3615 PWs)   bands (ev):

   -76.3932 -76.3507 -39.7742 -39.5330 -39.5253 -39.5183 -39.4859 -39.4816
    10.7791  13.9350  16.7259  16.8150  16.8397  16.9278  17.2061  17.3261
    18.0013  18.0204  18.8121  19.1152  28.7920

     occupation numbers 
     1.0000   1.0000   1.0000   1.0000   1.0000   1.0000   1.0000   1.0000
     1.0000   1.0000   0.9996   0.9994   0.9994   0.9990   0.9966   0.9945
     0.9436   0.9405   0.6697   0.5041   0.0000

          k = 0.0000 0.0770 0.2305 (  3629 PWs)   bands (ev):

   -76.3835 -76.3605 -39.7192 -39.5886 -39.5164 -39.5099 -39.4950 -39.4900
    11.5040  13.3186  16.4799  16.5751  16.8031  16.9127  17.0689  17.0733
    18.2710  18.3036  18.7000  18.8293  31.4098

     occupation numbers 
     1.0000   1.0000   1.0000   1.0000   1.0000   1.0000   1.0000   1.0000
     1.0000   1.0000   0.9999   0.9998   0.9995   0.9991   0.9982   0.9981
     0.8858   0.8766   0.7249   0.6608   0.0000

          k = 0.0000 0.0770-0.3074 (  3632 PWs)   bands (ev):

   -76.3720 -76.3720 -39.6541 -39.6541 -39.5057 -39.5057 -39.5000 -39.5000
    12.4116  12.4116  16.4306  16.4306  16.9012  16.9012  16.9653  16.9653
    18.5152  18.5152  18.5775  18.5775  34.3002

     occupation numbers 
     1.0000   1.0000   1.0000   1.0000   1.0000   1.0000   1.0000   1.0000
     1.0000   1.0000   0.9999   0.9999   0.9992   0.9992   0.9989   0.9989
     0.8048   0.8048   0.7796   0.7796   0.0000

          k = 0.0000 0.1540 0.0000 (  3599 PWs)   bands (ev):

   -76.3955 -76.3388 -39.8090 -39.5655 -39.5361 -39.5166 -39.4821 -39.4794
    10.6288  14.5036  16.5219  16.9321  17.1110  17.2686  17.3284  17.5177
    17.5668  17.6479  18.9238  21.1707  25.8902

     occupation numbers 
     1.0000   1.0000   1.0000   1.0000   1.0000   1.0000   1.0000   1.0000
     1.0000   1.0000   0.9999   0.9990   0.9978   0.9956   0.9944   0.9884
     0.9861   0.9815   0.6107   0.0019   0.0000

          k = 0.0000 0.1540 0.0768 (  3610 PWs)   bands (ev):

   -76.3933 -76.3410 -39.7977 -39.5627 -39.5339 -39.5260 -39.4871 -39.4816
    10.7801  14.4697  16.5352  16.7033  17.0388  17.1827  17.3233  17.4981
    17.6919  17.7732  18.9044  20.6236  26.8802

     occupation numbers 
     1.0000   1.0000   1.0000   1.0000   1.0000   1.0000   1.0000   1.0000
     1.0000   1.0000   0.9999   0.9997   0.9984   0.9970   0.9945   0.9892
     0.9785   0.9718   0.6211   0.0169   0.0000

          k = 0.0000 0.1540 0.1537 (  3611 PWs)   bands (ev):

   -76.3872 -76.3471 -39.7656 -39.5587 -39.5516 -39.5278 -39.4984 -39.4877
    11.2237  14.2656  16.3307  16.5846  16.7844  17.0971  17.2503  17.3894
    17.9556  18.0384  18.8361  19.7731  29.0506

     occupation numbers 
     1.0000   1.0000   1.0000   1.0000   1.0000   1.0000   1.0000   1.0000
     1.0000   1.0000   1.0000   0.9998   0.9995   0.9979   0.9959   0.9929
     0.9506   0.9374   0.6573   0.1788   0.0000

          k = 0.0000 0.1540 0.2305 (  3618 PWs)   bands (ev):

   -76.3780 -76.3564 -39.7173 -39.6036 -39.5418 -39.5186 -39.5123 -39.4970
    11.9236  13.6773  16.1499  16.4979  16.6904  17.0623  17.0835  17.2557
    18.2383  18.3656  18.7016  19.1622  31.7080

     occupation numbers 
     1.0000   1.0000   1.0000   1.0000   1.0000   1.0000   1.0000   1.0000
     1.0000   1.0000   1.0000   0.9999   0.9997   0.9982   0.9980   0.9959
     0.8944   0.8578   0.7242   0.4777   0.0000

          k = 0.0000 0.1540-0.3074 (  3620 PWs)   bands (ev):

   -76.3672 -76.3672 -39.6603 -39.6603 -39.5273 -39.5273 -39.5078 -39.5078
    12.7994  12.7994  16.2532  16.2532  16.8547  16.8547  17.1425  17.1425
    18.4971  18.4971  18.7300  18.7300  34.6131

     occupation numbers 
     1.0000   1.0000   1.0000   1.0000   1.0000   1.0000   1.0000   1.0000
     1.0000   1.0000   1.0000   1.0000   0.9993   0.9993   0.9974   0.9974
     0.8118   0.8118   0.7106   0.7106   0.0000

          k = 0.0000 0.2309 0.0000 (  3591 PWs)   bands (ev):

   -76.3856 -76.3346 -39.7863 -39.6128 -39.5644 -39.5507 -39.4922 -39.4878
    11.3659  14.8425  16.2560  16.2895  16.9757  17.3435  17.4858  17.6113
    17.6158  17.8707  18.9794  22.5404  26.0265

     occupation numbers 
     1.0000   1.0000   1.0000   1.0000   1.0000   1.0000   1.0000   1.0000
     1.0000   1.0000   1.0000   1.0000   0.9988   0.9941   0.9897   0.9837
     0.9835   0.9617   0.5802   0.0000   0.0000

          k = 0.0000 0.2309 0.0768 (  3599 PWs)   bands (ev):

   -76.3836 -76.3365 -39.7782 -39.6085 -39.5728 -39.5483 -39.4965 -39.4902
    11.5063  14.8374  16.1135  16.3181  16.9124  17.2998  17.3430  17.6981
    17.8134  17.8546  18.9513  21.7368  27.1962

     occupation numbers 
     1.0000   1.0000   1.0000   1.0000   1.0000   1.0000   1.0000   1.0000
     1.0000   1.0000   1.0000   1.0000   0.9991   0.9950   0.9941   0.9780
     0.9679   0.9635   0.5957   0.0001   0.0000

          k = 0.0000 0.2309 0.1537 (  3599 PWs)   bands (ev):

   -76.3781 -76.3421 -39.7548 -39.6032 -39.5895 -39.5415 -39.5090 -39.4970
    11.9163  14.6966  15.8671  16.3918  16.7122  17.2054  17.2661  17.6670
    17.9948  18.1093  18.8625  20.5334  29.4936

     occupation numbers 
     1.0000   1.0000   1.0000   1.0000   1.0000   1.0000   1.0000   1.0000
     1.0000   1.0000   1.0000   0.9999   0.9997   0.9966   0.9957   0.9802
     0.9446   0.9241   0.6435   0.0230   0.0000

          k = 0.0000 0.2309 0.2305 (  3617 PWs)   bands (ev):

   -76.3699 -76.3503 -39.7196 -39.6358 -39.5736 -39.5314 -39.5280 -39.5073
    12.5585  14.1566  15.8653  16.3597  16.6055  17.0192  17.2968  17.5275
    18.2446  18.4783  18.7079  19.6022  32.1779

     occupation numbers 
     1.0000   1.0000   1.0000   1.0000   1.0000   1.0000   1.0000   1.0000
     1.0000   1.0000   1.0000   1.0000   0.9998   0.9985   0.9951   0.9880
     0.8928   0.8189   0.7212   0.2488   0.0000

          k = 0.0000 0.2309-0.3074 (  3594 PWs)   bands (ev):

   -76.3601 -76.3601 -39.6778 -39.6778 -39.5508 -39.5508 -39.5193 -39.5193
    13.3553  13.3553  16.0860  16.0860  16.7920  16.7920  17.3911  17.3911
    18.4946  18.4946  18.9529  18.9529  34.9694

     occupation numbers 
     1.0000   1.0000   1.0000   1.0000   1.0000   1.0000   1.0000   1.0000
     1.0000   1.0000   1.0000   1.0000   0.9995   0.9995   0.9928   0.9928
     0.8127   0.8127   0.5948   0.5948   0.0000

          k = 0.0000 0.3079 0.0000 (  3611 PWs)   bands (ev):

   -76.3738 -76.3301 -39.7578 -39.6676 -39.6184 -39.5672 -39.5063 -39.4977
    12.3014  15.0316  15.7116  16.1782  16.9233  17.1627  17.3165  18.0196
    18.0382  18.2379  19.0254  24.0219  26.2261

     occupation numbers 
     1.0000   1.0000   1.0000   1.0000   1.0000   1.0000   1.0000   1.0000
     1.0000   1.0000   1.0000   1.0000   0.9991   0.9972   0.9947   0.9406
     0.9374   0.8945   0.5547   0.0000   0.0000

          k = 0.0000 0.3079 0.0768 (  3605 PWs)   bands (ev):

   -76.3721 -76.3318 -39.7565 -39.6587 -39.6259 -39.5645 -39.5090 -39.5004
    12.4189  15.0512  15.6329  16.2082  16.8223  17.1943  17.3485  18.0649
    18.0726  18.2009  18.9907  22.8579  27.6782

     occupation numbers 
     1.0000   1.0000   1.0000   1.0000   1.0000   1.0000   1.0000   1.0000
     1.0000   1.0000   1.0000   1.0000   0.9994   0.9968   0.9939   0.9326
     0.9312   0.9038   0.5739   0.0000   0.0000

          k = 0.0000 0.3079 0.1537 (  3602 PWs)   bands (ev):

   -76.3674 -76.3365 -39.7499 -39.6547 -39.6269 -39.5570 -39.5188 -39.5079
    12.7578  14.9579  15.5422  16.2711  16.6706  17.2879  17.3081  18.0172
    18.2226  18.2655  18.8912  21.3285  30.0463

     occupation numbers 
     1.0000   1.0000   1.0000   1.0000   1.0000   1.0000   1.0000   1.0000
     1.0000   1.0000   1.0000   1.0000   0.9997   0.9953   0.9949   0.9410
     0.8984   0.8873   0.6282   0.0009   0.0000

          k = 0.0000 0.3079 0.2305 (  3608 PWs)   bands (ev):

   -76.3603 -76.3436 -39.7346 -39.6816 -39.5969 -39.5458 -39.5376 -39.5192
    13.2757  14.5123  15.6980  16.2035  16.6889  17.1394  17.4375  17.8359
    18.3739  18.6344  18.7399  20.1005  32.2004

     occupation numbers 
     1.0000   1.0000   1.0000   1.0000   1.0000   1.0000   1.0000   1.0000
     1.0000   1.0000   1.0000   1.0000   0.9997   0.9975   0.9914   0.9656
     0.8551   0.7550   0.7058   0.0833   0.0000

          k = 0.0000 0.3079-0.3074 (  3600 PWs)   bands (ev):

   -76.3520 -76.3520 -39.7106 -39.7106 -39.5647 -39.5647 -39.5325 -39.5325
    13.8972  13.8972  15.9626  15.9626  16.8998  16.8998  17.6288  17.6288
    18.5583  18.5583  19.2214  19.2214  33.2028

     occupation numbers 
     1.0000   1.0000   1.0000   1.0000   1.0000   1.0000   1.0000   1.0000
     1.0000   1.0000   1.0000   1.0000   0.9992   0.9992   0.9827   0.9827
     0.7876   0.7876   0.4444   0.4444   0.0000

          k = 0.0000 0.3849 0.0000 (  3595 PWs)   bands (ev):

   -76.3618 -76.3265 -39.7265 -39.7202 -39.6693 -39.5826 -39.5237 -39.5075
    13.2836  14.9614  15.3063  16.2335  17.0031  17.0434  17.1596  18.4651
    18.5997  18.6154  19.0574  25.5954  26.1870

     occupation numbers 
     1.0000   1.0000   1.0000   1.0000   1.0000   1.0000   1.0000   1.0000
     1.0000   1.0000   1.0000   1.0000   0.9986   0.9984   0.9972   0.8237
     0.7702   0.7634   0.5367   0.0000   0.0000

          k = 0.0000 0.3849 0.0768 (  3600 PWs)   bands (ev):

   -76.3604 -76.3279 -39.7498 -39.6927 -39.6727 -39.5798 -39.5245 -39.5104
    13.3522  14.9730  15.3179  16.1684  16.9654  17.0578  17.3566  18.4812
    18.5565  18.5699  19.0235  23.8813  27.8890

     occupation numbers 
     1.0000   1.0000   1.0000   1.0000   1.0000   1.0000   1.0000   1.0000
     1.0000   1.0000   1.0000   1.0000   0.9989   0.9983   0.9937   0.8178
     0.7883   0.7828   0.5557   0.0000   0.0000

          k = 0.0000 0.3849 0.1537 (  3597 PWs)   bands (ev):

   -76.3566 -76.3317 -39.7636 -39.7037 -39.6427 -39.5716 -39.5297 -39.5185
    13.5484  14.8844  15.3964  16.1082  16.9390  17.2165  17.6242  18.3636
    18.5456  18.5524  18.9409  22.1269  29.0518

     occupation numbers 
     1.0000   1.0000   1.0000   1.0000   1.0000   1.0000   1.0000   1.0000
     1.0000   1.0000   1.0000   1.0000   0.9990   0.9965   0.9830   0.8585
     0.7927   0.7900   0.6014   0.0000   0.0000

          k = 0.0000 0.3849 0.2305 (  3603 PWs)   bands (ev):

   -76.3509 -76.3374 -39.7637 -39.7289 -39.6033 -39.5595 -39.5439 -39.5307
    13.8467  14.5882  15.6001  16.0384  17.0828  17.4627  17.6485  18.0862
    18.6282  18.8325  18.8380  20.6664  29.8061

     occupation numbers 
     1.0000   1.0000   1.0000   1.0000   1.0000   1.0000   1.0000   1.0000
     1.0000   1.0000   1.0000   1.0000   0.9980   0.9905   0.9815   0.9286
     0.7578   0.6592   0.6563   0.0145   0.0000

          k = 0.0000 0.3849-0.3074 (  3586 PWs)   bands (ev):

   -76.3442 -76.3441 -39.7510 -39.7510 -39.5689 -39.5689 -39.5451 -39.5451
    14.2106  14.2106  15.8470  15.8470  17.3888  17.3888  17.7671  17.7671
    18.7300  18.7300  19.5566  19.5566  30.6557

     occupation numbers 
     1.0000   1.0000   1.0000   1.0000   1.0000   1.0000   1.0000   1.0000
     1.0000   1.0000   1.0000   1.0000   0.9929   0.9929   0.9724   0.9724
     0.7106   0.7106   0.2697   0.2697   0.0000

          k = 0.0000 0.4619 0.0000 (  3602 PWs)   bands (ev):

   -76.3515 -76.3246 -39.7616 -39.7085 -39.6969 -39.5945 -39.5425 -39.5152
    14.0542  14.7962  15.0386  16.4374  16.8852  17.0392  17.2275  18.8059
    18.9431  19.0764  19.4226  24.8762  27.2094

     occupation numbers 
     1.0000   1.0000   1.0000   1.0000   1.0000   1.0000   1.0000   1.0000
     1.0000   1.0000   1.0000   0.9999   0.9992   0.9984   0.9963   0.6728
     0.6001   0.5260   0.3356   0.0000   0.0000

          k = 0.0000 0.4619 0.0768 (  3584 PWs)   bands (ev):

   -76.3505 -76.3256 -39.7738 -39.7193 -39.6752 -39.5915 -39.5411 -39.5183
    14.0298  14.7828  15.1931  16.1354  16.9505  17.2085  17.4726  18.8071
    18.8552  19.0680  19.3344  24.1415  27.0906

     occupation numbers 
     1.0000   1.0000   1.0000   1.0000   1.0000   1.0000   1.0000   1.0000
     1.0000   1.0000   1.0000   1.0000   0.9989   0.9966   0.9902   0.6723
     0.6473   0.5308   0.3822   0.0000   0.0000

          k = 0.0000 0.4619 0.1537 (  3583 PWs)   bands (ev):

   -76.3476 -76.3285 -39.7893 -39.7416 -39.6371 -39.5829 -39.5411 -39.5269
    14.0233  14.7417  15.4095  15.9065  17.1407  17.2442  18.1733  18.5778
    18.8510  19.0403  19.0788  22.7054  27.2745

     occupation numbers 
     1.0000   1.0000   1.0000   1.0000   1.0000   1.0000   1.0000   1.0000
     1.0000   1.0000   1.0000   1.0000   0.9975   0.9961   0.9103   0.7795
     0.6496   0.5463   0.5247   0.0000   0.0000

          k = 0.0000 0.4619 0.2305 (  3590 PWs)   bands (ev):

   -76.3432 -76.3329 -39.7941 -39.7665 -39.5994 -39.5701 -39.5492 -39.5398
    14.1095  14.5536  15.5491  15.8826  17.4379  17.5213  18.2114  18.5658
    18.8941  18.9972  19.0894  21.2775  27.7439

     occupation numbers 
     1.0000   1.0000   1.0000   1.0000   1.0000   1.0000   1.0000   1.0000
     1.0000   1.0000   1.0000   1.0000   0.9914   0.9882   0.9012   0.7845
     0.6267   0.5704   0.5187   0.0012   0.0000

          k = 0.0000 0.4619-0.3074 (  3588 PWs)   bands (ev):

   -76.3380 -76.3380 -39.7857 -39.7857 -39.5688 -39.5688 -39.5550 -39.5550
    14.3007  14.3007  15.7414  15.7414  17.8105  17.8105  18.0469  18.0469
    18.9457  18.9457  20.0564  20.0564  28.4400

     occupation numbers 
     1.0000   1.0000   1.0000   1.0000   1.0000   1.0000   1.0000   1.0000
     1.0000   1.0000   1.0000   1.0000   0.9682   0.9682   0.9359   0.9359
     0.5988   0.5988   0.0933   0.0933   0.0000

          k = 0.0000 0.5389 0.0000 (  3576 PWs)   bands (ev):

   -76.3452 -76.3242 -39.7843 -39.7298 -39.6768 -39.6010 -39.5566 -39.5195
    14.4496  14.6463  14.9058  16.6908  16.8229  16.9739  17.3336  18.9904
    19.0850  19.1419  20.4689  23.1340  28.6125

     occupation numbers 
     1.0000   1.0000   1.0000   1.0000   1.0000   1.0000   1.0000   1.0000
     1.0000   1.0000   1.0000   0.9997   0.9994   0.9988   0.9943   0.5741
     0.5212   0.4891   0.0285   0.0000   0.0000

          k = 0.0000 0.5389 0.0768 (  3579 PWs)   bands (ev):

   -76.3444 -76.3250 -39.7932 -39.7396 -39.6611 -39.5979 -39.5536 -39.5226
    14.3062  14.6437  15.1889  16.1389  16.8928  17.3260  17.6592  18.9285
    19.0370  19.1470  20.3347  22.9637  27.8646

     occupation numbers 
     1.0000   1.0000   1.0000   1.0000   1.0000   1.0000   1.0000   1.0000
     1.0000   1.0000   1.0000   1.0000   0.9992   0.9945   0.9808   0.6082
     0.5481   0.4862   0.0432   0.0000   0.0000

          k = 0.0000 0.5389 0.1537 (  3576 PWs)   bands (ev):

   -76.3421 -76.3273 -39.8070 -39.7624 -39.6281 -39.5891 -39.5497 -39.5315
    14.1666  14.6578  15.5439  15.7247  17.0965  17.3922  18.5419  18.6501
    19.0398  19.1365  19.9499  22.4358  27.0846

     occupation numbers 
     1.0000   1.0000   1.0000   1.0000   1.0000   1.0000   1.0000   1.0000
     1.0000   1.0000   1.0000   1.0000   0.9979   0.9928   0.7942   0.7480
     0.5466   0.4921   0.1210   0.0000   0.0000

          k = 0.0000 0.5389 0.2305 (  3579 PWs)   bands (ev):

   -76.3387 -76.3307 -39.8124 -39.7871 -39.5943 -39.5759 -39.5530 -39.5447
    14.1676  14.5250  15.5430  15.7835  17.4154  17.7575  18.2509  19.0613
    19.0761  19.1150  19.7490  21.6070  26.8049

     occupation numbers 
     1.0000   1.0000   1.0000   1.0000   1.0000   1.0000   1.0000   1.0000
     1.0000   1.0000   1.0000   1.0000   0.9921   0.9732   0.8911   0.5345
     0.5262   0.5043   0.1878   0.0002   0.0000

          k = 0.0000 0.5389-0.3074 (  3588 PWs)   bands (ev):

   -76.3347 -76.3347 -39.8054 -39.8054 -39.5680 -39.5680 -39.5603 -39.5603
    14.3070  14.3070  15.6801  15.6801  17.8168  17.8168  18.4292  18.4292
    19.0882  19.0882  20.6400  20.6400  26.9813

     occupation numbers 
     1.0000   1.0000   1.0000   1.0000   1.0000   1.0000   1.0000   1.0000
     1.0000   1.0000   1.0000   1.0000   0.9676   0.9676   0.8366   0.8366
     0.5194   0.5194   0.0159   0.0159   0.0000

          k = 0.0667 0.1155 0.0000 (  3593 PWs)   bands (ev):

   -76.3976 -76.3398 -39.8138 -39.5537 -39.5355 -39.5036 -39.4801 -39.4787
    10.4757  14.4186  16.5825  17.1466  17.1715  17.2078  17.2214  17.4937
    17.5153  17.7443  18.9040  20.8256  25.8667

     occupation numbers 
     1.0000   1.0000   1.0000   1.0000   1.0000   1.0000   1.0000   1.0000
     1.0000   1.0000   0.9998   0.9974   0.9971   0.9966   0.9964   0.9894
     0.9885   0.9744   0.6214   0.0080   0.0000

          k = 0.0667 0.1155 0.0768 (  3616 PWs)   bands (ev):

   -76.3954 -76.3420 -39.8020 -39.5512 -39.5341 -39.5133 -39.4846 -39.4808
    10.6289  14.3788  16.5915  16.8612  17.0556  17.1323  17.3290  17.4409
    17.7049  17.8006  18.8878  20.3350  26.8233

     occupation numbers 
     1.0000   1.0000   1.0000   1.0000   1.0000   1.0000   1.0000   1.0000
     1.0000   1.0000   0.9998   0.9993   0.9983   0.9976   0.9944   0.9913
     0.9775   0.9692   0.6301   0.0432   0.0000

          k = 0.0667 0.1155 0.1537 (  3618 PWs)   bands (ev):

   -76.3892 -76.3483 -39.7683 -39.5485 -39.5439 -39.5254 -39.4939 -39.4868
    11.0779  14.1616  16.4666  16.6296  16.7939  17.0526  17.2650  17.3295
    17.9950  18.0057  18.8273  19.5831  28.9638

     occupation numbers 
     1.0000   1.0000   1.0000   1.0000   1.0000   1.0000   1.0000   1.0000
     1.0000   1.0000   0.9999   0.9998   0.9995   0.9983   0.9957   0.9944
     0.9446   0.9429   0.6619   0.2574   0.0000

          k = 0.0667 0.1155 0.2305 (  3624 PWs)   bands (ev):

   -76.3798 -76.3577 -39.7177 -39.5980 -39.5330 -39.5182 -39.5050 -39.4956
    11.7869  13.5636  16.2386  16.5249  16.7181  17.0222  17.0808  17.1975
    18.2561  18.3339  18.7028  19.0596  31.6097

     occupation numbers 
     1.0000   1.0000   1.0000   1.0000   1.0000   1.0000   1.0000   1.0000
     1.0000   1.0000   1.0000   0.9999   0.9997   0.9985   0.9981   0.9968
     0.8898   0.8676   0.7236   0.5354   0.0000

          k = 0.0667 0.1155-0.3074 (  3630 PWs)   bands (ev):

   -76.3687 -76.3687 -39.6579 -39.6579 -39.5206 -39.5206 -39.5055 -39.5055
    12.6746  12.6746  16.3033  16.3033  16.8661  16.8661  17.0906  17.0906
    18.5023  18.5023  18.6813  18.6813  34.5125

     occupation numbers 
     1.0000   1.0000   1.0000   1.0000   1.0000   1.0000   1.0000   1.0000
     1.0000   1.0000   1.0000   1.0000   0.9993   0.9993   0.9980   0.9980
     0.8098   0.8098   0.7337   0.7337   0.0000

          k = 0.0667 0.1925 0.0000 (  3584 PWs)   bands (ev):

   -76.3894 -76.3362 -39.7952 -39.5910 -39.5604 -39.5320 -39.4881 -39.4875
    11.0784  14.7377  16.3391  16.5000  17.0472  17.3058  17.4166  17.5039
    17.6363  17.8003  18.9470  22.0461  25.9735

     occupation numbers 
     1.0000   1.0000   1.0000   1.0000   1.0000   1.0000   1.0000   1.0000
     1.0000   1.0000   1.0000   0.9999   0.9983   0.9949   0.9921   0.9890
     0.9822   0.9693   0.5981   0.0000   0.0000

          k = 0.0667 0.1925 0.0768 (  3601 PWs)   bands (ev):

   -76.3873 -76.3382 -39.7856 -39.5874 -39.5632 -39.5363 -39.4925 -39.4895
    11.2237  14.7220  16.3218  16.3629  17.0116  17.1847  17.3640  17.5738
    17.7914  17.8231  18.9246  21.3443  27.0684

     occupation numbers 
     1.0000   1.0000   1.0000   1.0000   1.0000   1.0000   1.0000   1.0000
     1.0000   1.0000   1.0000   1.0000   0.9986   0.9969   0.9936   0.9857
     0.9701   0.9669   0.6102   0.0008   0.0000

          k = 0.0667 0.1925 0.1537 (  3607 PWs)   bands (ev):

   -76.3816 -76.3440 -39.7584 -39.5845 -39.5750 -39.5380 -39.5034 -39.4959
    11.6491  14.5571  16.0198  16.4299  16.7627  17.1603  17.2362  17.5527
    18.0020  18.0649  18.8497  20.2649  29.3201

     occupation numbers 
     1.0000   1.0000   1.0000   1.0000   1.0000   1.0000   1.0000   1.0000
     1.0000   1.0000   1.0000   0.9999   0.9996   0.9972   0.9962   0.9868
     0.9435   0.9326   0.6502   0.0531   0.0000

          k = 0.0667 0.1925 0.2305 (  3608 PWs)   bands (ev):

   -76.3730 -76.3526 -39.7175 -39.6218 -39.5606 -39.5336 -39.5168 -39.5054
    12.3182  13.9939  15.9545  16.4175  16.6032  16.9913  17.2414  17.4294
    18.2572  18.4156  18.7137  19.4430  32.0037

     occupation numbers 
     1.0000   1.0000   1.0000   1.0000   1.0000   1.0000   1.0000   1.0000
     1.0000   1.0000   1.0000   0.9999   0.9998   0.9987   0.9961   0.9917
     0.8895   0.8413   0.7184   0.3252   0.0000

          k = 0.0667 0.1925-0.3074 (  3614 PWs)   bands (ev):

   -76.3628 -76.3628 -39.6694 -39.6694 -39.5430 -39.5430 -39.5156 -39.5156
    13.1530  13.1530  16.1434  16.1434  16.7771  16.7771  17.3129  17.3129
    18.4983  18.4983  18.8699  18.8699  34.9022

     occupation numbers 
     1.0000   1.0000   1.0000   1.0000   1.0000   1.0000   1.0000   1.0000
     1.0000   1.0000   1.0000   1.0000   0.9995   0.9995   0.9948   0.9948
     0.8113   0.8113   0.6396   0.6396   0.0000

          k = 0.0667 0.2694 0.0000 (  3606 PWs)   bands (ev):

   -76.3785 -76.3318 -39.7695 -39.6407 -39.6024 -39.5564 -39.5003 -39.4981
    11.9217  15.0336  15.9309  16.1321  16.9428  17.1212  17.4826  17.7061
    17.9055  18.1867  18.9891  23.4347  26.1650

     occupation numbers 
     1.0000   1.0000   1.0000   1.0000   1.0000   1.0000   1.0000   1.0000
     1.0000   1.0000   1.0000   1.0000   0.9990   0.9977   0.9898   0.9774
     0.9574   0.9072   0.5748   0.0000   0.0000

          k = 0.0667 0.2694 0.0768 (  3606 PWs)   bands (ev):

   -76.3767 -76.3336 -39.7645 -39.6348 -39.6079 -39.5567 -39.5042 -39.4995
    12.0510  15.0500  15.8154  16.1670  16.8558  17.1630  17.3909  17.7789
    17.9967  18.1607  18.9632  22.4330  27.4899

     occupation numbers 
     1.0000   1.0000   1.0000   1.0000   1.0000   1.0000   1.0000   1.0000
     1.0000   1.0000   1.0000   1.0000   0.9993   0.9972   0.9928   0.9713
     0.9443   0.9131   0.5891   0.0000   0.0000

          k = 0.0667 0.2694 0.1537 (  3608 PWs)   bands (ev):

   -76.3717 -76.3387 -39.7495 -39.6332 -39.6111 -39.5539 -39.5143 -39.5059
    12.4267  14.9488  15.6447  16.2527  16.6749  17.1520  17.3151  17.8351
    18.1704  18.2205  18.8833  21.0302  29.8563

     occupation numbers 
     1.0000   1.0000   1.0000   1.0000   1.0000   1.0000   1.0000   1.0000
     1.0000   1.0000   1.0000   1.0000   0.9997   0.9973   0.9947   0.9657
     0.9109   0.8990   0.6325   0.0035   0.0000

          k = 0.0667 0.2694 0.2305 (  3600 PWs)   bands (ev):

   -76.3641 -76.3462 -39.7254 -39.6612 -39.5877 -39.5486 -39.5287 -39.5166
    13.0092  14.4392  15.7567  16.2685  16.5606  16.9631  17.4068  17.7202
    18.3568  18.5530  18.7572  19.9131  32.5016

     occupation numbers 
     1.0000   1.0000   1.0000   1.0000   1.0000   1.0000   1.0000   1.0000
     1.0000   1.0000   1.0000   1.0000   0.9999   0.9989   0.9924   0.9763
     0.8606   0.7897   0.6973   0.1318   0.0000

          k = 0.0667 0.2694-0.3074 (  3594 PWs)   bands (ev):

   -76.3552 -76.3552 -39.6945 -39.6945 -39.5616 -39.5616 -39.5281 -39.5281
    13.7220  13.7220  16.0218  16.0218  16.7304  16.7304  17.5546  17.5546
    18.5574  18.5574  19.1189  19.1189  34.5237

     occupation numbers 
     1.0000   1.0000   1.0000   1.0000   1.0000   1.0000   1.0000   1.0000
     1.0000   1.0000   1.0000   1.0000   0.9996   0.9996   0.9867   0.9867
     0.7879   0.7879   0.5021   0.5021   0.0000

          k = 0.0667 0.3464 0.0000 (  3601 PWs)   bands (ev):

   -76.3666 -76.3278 -39.7394 -39.6938 -39.6497 -39.5769 -39.5162 -39.5091
    12.9004  15.0865  15.4826  16.0962  16.9639  16.9752  17.3045  18.0994
    18.3383  18.6565  19.0219  24.9469  26.3696

     occupation numbers 
     1.0000   1.0000   1.0000   1.0000   1.0000   1.0000   1.0000   1.0000
     1.0000   1.0000   1.0000   1.0000   0.9989   0.9988   0.9949   0.9260
     0.8663   0.7451   0.5566   0.0000   0.0000

          k = 0.0667 0.3464 0.0768 (  3599 PWs)   bands (ev):

   -76.3651 -76.3293 -39.7468 -39.6795 -39.6542 -39.5756 -39.5187 -39.5104
    12.9963  15.1140  15.4333  16.1177  16.8217  17.1193  17.3155  18.1054
    18.3834  18.5846  19.0124  23.5199  28.0166

     occupation numbers 
     1.0000   1.0000   1.0000   1.0000   1.0000   1.0000   1.0000   1.0000
     1.0000   1.0000   1.0000   1.0000   0.9994   0.9977   0.9947   0.9248
     0.8521   0.7766   0.5619   0.0000   0.0000

          k = 0.0667 0.3464 0.1537 (  3597 PWs)   bands (ev):

   -76.3609 -76.3335 -39.7527 -39.6828 -39.6370 -39.5701 -39.5270 -39.5156
    13.2697  15.0167  15.4412  16.1769  16.7073  17.2571  17.3204  18.1273
    18.4574  18.5111  18.9691  21.8438  30.0812

     occupation numbers 
     1.0000   1.0000   1.0000   1.0000   1.0000   1.0000   1.0000   1.0000
     1.0000   1.0000   1.0000   1.0000   0.9997   0.9958   0.9946   0.9204
     0.8266   0.8064   0.5859   0.0001   0.0000

          k = 0.0667 0.3464 0.2305 (  3603 PWs)   bands (ev):

   -76.3546 -76.3398 -39.7475 -39.7073 -39.6022 -39.5618 -39.5402 -39.5265
    13.6796  14.6418  15.6572  16.1419  16.7408  17.1609  17.4815  17.9770
    18.5660  18.7587  18.9076  20.4681  31.1072

     occupation numbers 
     1.0000   1.0000   1.0000   1.0000   1.0000   1.0000   1.0000   1.0000
     1.0000   1.0000   1.0000   1.0000   0.9996   0.9972   0.9899   0.9474
     0.7844   0.6966   0.6195   0.0285   0.0000

          k = 0.0667 0.3464-0.3074 (  3598 PWs)   bands (ev):

   -76.3472 -76.3472 -39.7311 -39.7311 -39.5717 -39.5717 -39.5400 -39.5400
    14.1626  14.1626  15.9283  15.9283  16.9459  16.9459  17.7158  17.7158
    18.7307  18.7307  19.4494  19.4494  31.9890

     occupation numbers 
     1.0000   1.0000   1.0000   1.0000   1.0000   1.0000   1.0000   1.0000
     1.0000   1.0000   1.0000   1.0000   0.9990   0.9990   0.9767   0.9767
     0.7103   0.7103   0.3220   0.3220   0.0000

          k = 0.0667 0.4234 0.0000 (  3593 PWs)   bands (ev):

   -76.3553 -76.3252 -39.7406 -39.7084 -39.6912 -39.5935 -39.5349 -39.5187
    13.8064  14.9412  15.1631  16.2229  16.8533  17.1338  17.1453  18.5578
    18.7186  19.0430  19.2533  25.8267  26.5446

     occupation numbers 
     1.0000   1.0000   1.0000   1.0000   1.0000   1.0000   1.0000   1.0000
     1.0000   1.0000   1.0000   1.0000   0.9993   0.9975   0.9974   0.7878
     0.7161   0.5448   0.4266   0.0000   0.0000

          k = 0.0667 0.4234 0.0768 (  3580 PWs)   bands (ev):

   -76.3542 -76.3263 -39.7574 -39.7049 -39.6782 -39.5911 -39.5351 -39.5204
    13.8329  14.9445  15.2329  16.1013  16.9024  17.1460  17.3232  18.5267
    18.7490  18.9101  19.2721  24.3489  27.4828

     occupation numbers 
     1.0000   1.0000   1.0000   1.0000   1.0000   1.0000   1.0000   1.0000
     1.0000   1.0000   1.0000   1.0000   0.9992   0.9974   0.9945   0.8003
     0.7014   0.6181   0.4162   0.0000   0.0000

          k = 0.0667 0.4234 0.1537 (  3593 PWs)   bands (ev):

   -76.3509 -76.3296 -39.7738 -39.7244 -39.6406 -39.5834 -39.5402 -39.5247
    13.9241  14.8760  15.3785  16.0206  16.9311  17.2677  17.6654  18.4173
    18.6851  18.8473  19.2526  22.6292  28.1004

     occupation numbers 
     1.0000   1.0000   1.0000   1.0000   1.0000   1.0000   1.0000   1.0000
     1.0000   1.0000   1.0000   1.0000   0.9990   0.9956   0.9803   0.8407
     0.7319   0.6515   0.4271   0.0000   0.0000

          k = 0.0667 0.4234 0.2305 (  3591 PWs)   bands (ev):

   -76.3460 -76.3345 -39.7775 -39.7485 -39.6044 -39.5716 -39.5514 -39.5337
    14.0969  14.6398  15.5837  15.9969  17.0881  17.4726  17.7993  18.1301
    18.7429  18.9961  19.3025  21.1374  28.7482

     occupation numbers 
     1.0000   1.0000   1.0000   1.0000   1.0000   1.0000   1.0000   1.0000
     1.0000   1.0000   1.0000   1.0000   0.9980   0.9902   0.9694   0.9198
     0.7043   0.5710   0.3996   0.0022   0.0000

          k = 0.0667 0.4234-0.3074 (  3598 PWs)   bands (ev):

   -76.3402 -76.3402 -39.7682 -39.7682 -39.5772 -39.5772 -39.5482 -39.5482
    14.3477  14.3477  15.8243  15.8243  17.4237  17.4237  17.8405  17.8405
    18.9260  18.9260  19.9739  19.9739  29.5587

     occupation numbers 
     1.0000   1.0000   1.0000   1.0000   1.0000   1.0000   1.0000   1.0000
     1.0000   1.0000   1.0000   1.0000   0.9919   0.9919   0.9651   0.9651
     0.6095   0.6095   0.1143   0.1143   0.0000

          k = 0.0667 0.5004 0.0000 (  3586 PWs)   bands (ev):

   -76.3468 -76.3242 -39.7725 -39.7193 -39.6822 -39.6044 -39.5526 -39.5253
    14.3789  14.7793  14.9726  16.4761  16.7979  17.0030  17.3028  18.9073
    18.9877  19.0542  20.1307  24.0689  28.1227

     occupation numbers 
     1.0000   1.0000   1.0000   1.0000   1.0000   1.0000   1.0000   1.0000
     1.0000   1.0000   1.0000   0.9999   0.9995   0.9986   0.9950   0.6196
     0.5756   0.5385   0.0770   0.0000   0.0000

          k = 0.0667 0.5004 0.0768 (  3582 PWs)   bands (ev):

   -76.3460 -76.3251 -39.7821 -39.7295 -39.6655 -39.6010 -39.5509 -39.5273
    14.2896  14.7674  15.2042  16.1014  16.8548  17.3152  17.4507  18.8524
    18.9908  19.0010  20.0671  23.7604  27.3979

     occupation numbers 
     1.0000   1.0000   1.0000   1.0000   1.0000   1.0000   1.0000   1.0000
     1.0000   1.0000   1.0000   1.0000   0.9993   0.9947   0.9910   0.6488
     0.5739   0.5683   0.0908   0.0000   0.0000

          k = 0.0667 0.5004 0.1537 (  3580 PWs)   bands (ev):

   -76.3435 -76.3275 -39.7964 -39.7521 -39.6335 -39.5905 -39.5519 -39.5316
    14.1990  14.7651  15.4787  15.8349  16.9350  17.4445  18.0640  18.5891
    18.9217  19.0669  19.9215  22.8772  26.9751

     occupation numbers 
     1.0000   1.0000   1.0000   1.0000   1.0000   1.0000   1.0000   1.0000
     1.0000   1.0000   1.0000   1.0000   0.9990   0.9912   0.9328   0.7747
     0.6118   0.5314   0.1293   0.0000   0.0000

          k = 0.0667 0.5004 0.2305 (  3580 PWs)   bands (ev):

   -76.3398 -76.3312 -39.8018 -39.7766 -39.6037 -39.5744 -39.5610 -39.5384
    14.2276  14.6105  15.5619  15.8748  17.1741  17.7575  18.1122  18.4389
    18.9043  19.1272  20.0049  21.7475  27.1161

     occupation numbers 
     1.0000   1.0000   1.0000   1.0000   1.0000   1.0000   1.0000   1.0000
     1.0000   1.0000   1.0000   1.0000   0.9971   0.9732   0.9235   0.8332
     0.6212   0.4974   0.1061   0.0001   0.0000

          k = 0.0667 0.5004-0.3074 (  3588 PWs)   bands (ev):

   -76.3355 -76.3355 -39.7948 -39.7948 -39.5812 -39.5812 -39.5519 -39.5519
    14.3815  14.3815  15.7430  15.7430  17.6202  17.6202  18.1907  18.1907
    19.0179  19.0179  20.7075  20.7075  27.6266

     occupation numbers 
     1.0000   1.0000   1.0000   1.0000   1.0000   1.0000   1.0000   1.0000
     1.0000   1.0000   1.0000   1.0000   0.9832   0.9832   0.9062   0.9062
     0.5588   0.5588   0.0125   0.0125   0.0000

          k = 0.0667 0.5774 0.0000 (  3582 PWs)   bands (ev):

   -76.3435 -76.3243 -39.7838 -39.7292 -39.6709 -39.6082 -39.5610 -39.5277
    14.5986  14.6627  14.9094  16.6271  16.7856  16.9502  17.3587  19.0199
    19.0576  19.0942  20.9249  22.8610  29.0495

     occupation numbers 
     1.0000   1.0000   1.0000   1.0000   1.0000   1.0000   1.0000   1.0000
     1.0000   1.0000   1.0000   0.9998   0.9995   0.9989   0.9937   0.5577
     0.5366   0.5160   0.0054   0.0000   0.0000

          k = 0.0667 0.5774 0.0768 (  3585 PWs)   bands (ev):

   -76.3427 -76.3250 -39.7921 -39.7390 -39.6574 -39.6041 -39.5584 -39.5298
    14.4021  14.6925  15.2222  16.1138  16.8209  17.3770  17.5495  18.9192
    19.0610  19.0880  20.8208  22.7599  28.5054

     occupation numbers 
     1.0000   1.0000   1.0000   1.0000   1.0000   1.0000   1.0000   1.0000
     1.0000   1.0000   1.0000   1.0000   0.9994   0.9932   0.9869   0.6132
     0.5347   0.5195   0.0082   0.0000   0.0000

          k = 0.0667 0.5774 0.1537 (  3581 PWs)   bands (ev):

   -76.3406 -76.3271 -39.8054 -39.7619 -39.6297 -39.5917 -39.5575 -39.5342
    14.2480  14.7237  15.6454  15.6641  16.9125  17.5192  18.2213  18.6224
    19.0703  19.1131  20.5762  22.4346  27.6187

     occupation numbers 
     1.0000   1.0000   1.0000   1.0000   1.0000   1.0000   1.0000   1.0000
     1.0000   1.0000   1.0000   1.0000   0.9991   0.9883   0.8988   0.7603
     0.5294   0.5054   0.0199   0.0000   0.0000

          k = 0.0667 0.5774 0.2305 (  3583 PWs)   bands (ev):

   -76.3375 -76.3302 -39.8110 -39.7865 -39.6037 -39.5723 -39.5665 -39.5402
    14.2439  14.5979  15.5648  15.8256  17.1731  17.8866  18.1305  18.6263
    19.0445  19.1119  20.5698  21.8648  27.0344

     occupation numbers 
     1.0000   1.0000   1.0000   1.0000   1.0000   1.0000   1.0000   1.0000
     1.0000   1.0000   1.0000   1.0000   0.9971   0.9598   0.9197   0.7586
     0.5440   0.5060   0.0203   0.0001   0.0000

          k = 0.0667 0.5774-0.3074 (  3580 PWs)   bands (ev):

   -76.3339 -76.3339 -39.8044 -39.8044 -39.5829 -39.5829 -39.5527 -39.5527
    14.3805  14.3805  15.7134  15.7134  17.6367  17.6367  18.3911  18.3911
    19.0277  19.0277  21.1413  21.1413  26.7975

     occupation numbers 
     1.0000   1.0000   1.0000   1.0000   1.0000   1.0000   1.0000   1.0000
     1.0000   1.0000   1.0000   1.0000   0.9822   0.9822   0.8495   0.8495
     0.5534   0.5534   0.0022   0.0022   0.0000

          k = 0.1333 0.2309 0.0000 (  3603 PWs)   bands (ev):

   -76.3801 -76.3324 -39.7735 -39.6248 -39.6049 -39.5469 -39.5020 -39.4983
    11.7921  15.0475  16.0315  16.0831  16.9784  17.0665  17.5547  17.5740
    17.8763  18.1882  18.9618  23.2332  26.1500

     occupation numbers 
     1.0000   1.0000   1.0000   1.0000   1.0000   1.0000   1.0000   1.0000
     1.0000   1.0000   1.0000   1.0000   0.9988   0.9982   0.9867   0.9857
     0.9610   0.9068   0.5899   0.0000   0.0000

          k = 0.1333 0.2309 0.0768 (  3603 PWs)   bands (ev):

   -76.3783 -76.3342 -39.7674 -39.6191 -39.6088 -39.5507 -39.5044 -39.5004
    11.9251  15.0636  15.8961  16.1120  16.9660  17.0143  17.4586  17.6452
    17.9992  18.1636  18.9430  22.2863  27.4327

     occupation numbers 
     1.0000   1.0000   1.0000   1.0000   1.0000   1.0000   1.0000   1.0000
     1.0000   1.0000   1.0000   1.0000   0.9989   0.9986   0.9907   0.9817
     0.9439   0.9125   0.6002   0.0000   0.0000

          k = 0.1333 0.2309 0.1537 (  3605 PWs)   bands (ev):

   -76.3732 -76.3394 -39.7497 -39.6244 -39.6033 -39.5547 -39.5110 -39.5081
    12.3127  14.9580  15.6863  16.1970  16.7420  17.0282  17.3377  17.7592
    18.1950  18.2002  18.8802  20.9325  29.7883

     occupation numbers 
     1.0000   1.0000   1.0000   1.0000   1.0000   1.0000   1.0000   1.0000
     1.0000   1.0000   1.0000   1.0000   0.9996   0.9985   0.9942   0.9731
     0.9052   0.9040   0.6341   0.0052   0.0000

          k = 0.1333 0.2309 0.2305 (  3602 PWs)   bands (ev):

   -76.3654 -76.3472 -39.7222 -39.6534 -39.5813 -39.5536 -39.5210 -39.5200
    12.9165  14.4181  15.7834  16.2702  16.5303  16.8706  17.3907  17.6818
    18.3927  18.5039  18.7781  19.8546  32.4805

     occupation numbers 
     1.0000   1.0000   1.0000   1.0000   1.0000   1.0000   1.0000   1.0000
     1.0000   1.0000   1.0000   1.0000   0.9999   0.9993   0.9928   0.9792
     0.8490   0.8092   0.6869   0.1503   0.0000

          k = 0.1333 0.2309-0.3074 (  3584 PWs)   bands (ev):

   -76.3563 -76.3563 -39.6884 -39.6884 -39.5603 -39.5603 -39.5271 -39.5271
    13.6614  13.6614  16.0499  16.0499  16.6478  16.6478  17.5293  17.5293
    18.5755  18.5755  19.0864  19.0864  35.2527

     occupation numbers 
     1.0000   1.0000   1.0000   1.0000   1.0000   1.0000   1.0000   1.0000
     1.0000   1.0000   1.0000   1.0000   0.9998   0.9998   0.9879   0.9879
     0.7804   0.7804   0.5204   0.5204   0.0000

          k = 0.1333 0.3079 0.0000 (  3609 PWs)   bands (ev):

   -76.3691 -76.3286 -39.7461 -39.6679 -39.6475 -39.5689 -39.5178 -39.5125
    12.6994  15.2640  15.6184  15.8832  16.8750  16.9679  17.4339  17.7938
    18.3102  18.6828  18.9737  24.6200  26.4405

     occupation numbers 
[...]
    14.3886  15.2374  16.4114  16.4839  17.1782  17.2849  18.0472  18.6814
    19.4519  19.7709  20.2573  21.6214  31.6895

     occupation numbers 
     1.0000   1.0000   1.0000   1.0000   1.0000   1.0000   1.0000   1.0000
     1.0000   1.0000   0.9999   0.9999   0.9970   0.9953   0.9358   0.7337
     0.3207   0.1796   0.0543   0.0002   0.0000

          k = 0.2000 0.3464-0.3074 (  3596 PWs)   bands (ev):

   -75.5087 -75.5087 -38.9367 -38.9367 -38.7858 -38.7858 -38.7307 -38.7307
    14.8202  14.8202  16.5751  16.5751  17.0986  17.0986  18.3410  18.3410
    19.7765  19.7765  20.6323  20.6323  32.4718

     occupation numbers 
     1.0000   1.0000   1.0000   1.0000   1.0000   1.0000   1.0000   1.0000
     1.0000   1.0000   0.9998   0.9998   0.9979   0.9979   0.8655   0.8655
     0.1775   0.1775   0.0164   0.0164   0.0000

          k = 0.2000 0.4234 0.0000 (  3593 PWs)   bands (ev):

   -75.5154 -75.4902 -38.9238 -38.8980 -38.8783 -38.8081 -38.7527 -38.7328
    14.5996  15.6848  15.8328  16.1641  17.2414  17.7567  17.8778  18.9315
    19.7127  19.7162  20.7387  26.9511  27.8414

     occupation numbers 
     1.0000   1.0000   1.0000   1.0000   1.0000   1.0000   1.0000   1.0000
     1.0000   1.0000   1.0000   1.0000   0.9961   0.9733   0.9608   0.6065
     0.2020   0.2006   0.0111   0.0000   0.0000

          k = 0.2000 0.4234 0.0768 (  3591 PWs)   bands (ev):

   -75.5144 -75.4911 -38.9339 -38.9140 -38.8510 -38.8124 -38.7559 -38.7264
    14.6419  15.6410  15.8921  16.2345  17.2738  17.6651  17.8961  18.9518
    19.5725  19.7662  20.7928  25.6100  28.3348

     occupation numbers 
     1.0000   1.0000   1.0000   1.0000   1.0000   1.0000   1.0000   1.0000
     1.0000   1.0000   1.0000   1.0000   0.9955   0.9804   0.9586   0.5954
     0.2623   0.1813   0.0091   0.0000   0.0000

          k = 0.2000 0.4234 0.1537 (  3589 PWs)   bands (ev):

   -75.5117 -75.4939 -38.9524 -38.9279 -38.8268 -38.8081 -38.7601 -38.7181
    14.7615  15.5316  16.0440  16.4296  17.2746  17.4748  17.9601  18.9934
    19.3159  19.8763  20.9080  23.9673  28.8142

     occupation numbers 
     1.0000   1.0000   1.0000   1.0000   1.0000   1.0000   1.0000   1.0000
     1.0000   1.0000   1.0000   0.9999   0.9955   0.9901   0.9499   0.5724
     0.3923   0.1432   0.0058   0.0000   0.0000

          k = 0.2000 0.4234 0.2305 (  3589 PWs)   bands (ev):

   -75.5076 -75.4980 -38.9613 -38.9444 -38.8192 -38.7993 -38.7506 -38.7185
    14.9403  15.3614  16.2835  16.6454  17.1140  17.3267  18.0982  18.7078
    19.5049  19.9377  21.1069  22.5811  29.4855

     occupation numbers 
     1.0000   1.0000   1.0000   1.0000   1.0000   1.0000   1.0000   1.0000
     1.0000   1.0000   1.0000   0.9998   0.9977   0.9945   0.9263   0.7213
     0.2943   0.1245   0.0025   0.0000   0.0000

          k = 0.2000 0.4234-0.3074 (  3586 PWs)   bands (ev):

   -75.5028 -75.5028 -38.9577 -38.9577 -38.8083 -38.8083 -38.7307 -38.7307
    15.1519  15.1519  16.5618  16.5618  17.1524  17.1524  18.3493  18.3493
    19.8262  19.8262  21.6002  21.6002  30.3262

     occupation numbers 
     1.0000   1.0000   1.0000   1.0000   1.0000   1.0000   1.0000   1.0000
     1.0000   1.0000   0.9999   0.9999   0.9973   0.9973   0.8629   0.8629
     0.1598   0.1598   0.0002   0.0002   0.0000

          k = 0.2000 0.5004 0.0000 (  3588 PWs)   bands (ev):

   -75.5072 -75.4903 -38.9481 -38.9016 -38.8508 -38.8330 -38.7664 -38.7531
    15.2317  15.5880  15.6670  16.3080  17.2329  17.5534  18.0513  19.2605
    19.7017  19.7816  21.6912  25.2334  28.8040

     occupation numbers 
     1.0000   1.0000   1.0000   1.0000   1.0000   1.0000   1.0000   1.0000
     1.0000   1.0000   1.0000   1.0000   0.9962   0.9868   0.9351   0.4227
     0.2064   0.1757   0.0001   0.0000   0.0000

          k = 0.2000 0.5004 0.0768 (  3591 PWs)   bands (ev):

   -75.5066 -75.4909 -38.9540 -38.9142 -38.8501 -38.8195 -38.7727 -38.7423
    15.1731  15.6746  15.7382  16.2898  17.2529  17.5348  18.0787  19.2662
    19.5588  19.8215  21.7490  25.0765  28.0789

     occupation numbers 
     1.0000   1.0000   1.0000   1.0000   1.0000   1.0000   1.0000   1.0000
     1.0000   1.0000   1.0000   1.0000   0.9959   0.9876   0.9301   0.4195
     0.2686   0.1615   0.0001   0.0000   0.0000

          k = 0.2000 0.5004 0.1537 (  3584 PWs)   bands (ev):

   -75.5047 -75.4928 -38.9665 -38.9357 -38.8496 -38.7997 -38.7728 -38.7281
    15.1309  15.6627  15.9414  16.4261  17.1516  17.5446  18.1721  19.1492
    19.3840  19.8948  21.9074  24.4631  27.5460

     occupation numbers 
     1.0000   1.0000   1.0000   1.0000   1.0000   1.0000   1.0000   1.0000
     1.0000   1.0000   1.0000   0.9999   0.9973   0.9872   0.9105   0.4850
     0.3558   0.1374   0.0000   0.0000   0.0000

          k = 0.2000 0.5004 0.2305 (  3583 PWs)   bands (ev):

   -75.5020 -75.4955 -38.9744 -38.9569 -38.8405 -38.8088 -38.7492 -38.7225
    15.1774  15.4954  16.2124  16.7299  16.9538  17.4828  18.3097  18.7721
    19.5407  19.9013  22.2000  23.5417  27.7227

     occupation numbers 
     1.0000   1.0000   1.0000   1.0000   1.0000   1.0000   1.0000   1.0000
     1.0000   1.0000   1.0000   0.9996   0.9989   0.9898   0.8748   0.6899
     0.2772   0.1354   0.0000   0.0000   0.0000

          k = 0.2000 0.5004-0.3074 (  3584 PWs)   bands (ev):

   -75.4988 -75.4988 -38.9712 -38.9712 -38.8252 -38.8252 -38.7296 -38.7296
    15.3094  15.3094  16.5292  16.5292  17.2281  17.2281  18.4857  18.4857
    19.7669  19.7669  22.7306  22.7306  28.3211

     occupation numbers 
     1.0000   1.0000   1.0000   1.0000   1.0000   1.0000   1.0000   1.0000
     1.0000   1.0000   0.9999   0.9999   0.9963   0.9963   0.8161   0.8161
     0.1811   0.1811   0.0000   0.0000   0.0000

          k = 0.2000 0.5774 0.0000 (  3600 PWs)   bands (ev):

   -75.5037 -75.4909 -38.9565 -38.9008 -38.8442 -38.8375 -38.7711 -38.7638
    15.4320  15.5566  15.5976  16.4073  17.2723  17.4384  18.1194  19.4813
    19.6966  19.7126  22.5499  23.9682  28.7651

     occupation numbers 
     1.0000   1.0000   1.0000   1.0000   1.0000   1.0000   1.0000   1.0000
     1.0000   1.0000   1.0000   0.9999   0.9956   0.9914   0.9220   0.3059
     0.2085   0.2020   0.0000   0.0000   0.0000

          k = 0.2000 0.5774 0.0768 (  3592 PWs)   bands (ev):

   -75.5032 -75.4914 -38.9618 -38.9118 -38.8587 -38.8099 -38.7817 -38.7497
    15.2703  15.6423  15.8358  16.2903  17.2293  17.5170  18.1538  19.4870
    19.5427  19.7505  22.6214  23.9423  28.7088

     occupation numbers 
     1.0000   1.0000   1.0000   1.0000   1.0000   1.0000   1.0000   1.0000
     1.0000   1.0000   1.0000   1.0000   0.9963   0.9884   0.9147   0.3031
     0.2762   0.1873   0.0000   0.0000   0.0000

          k = 0.2000 0.5774 0.1537 (  3584 PWs)   bands (ev):

   -75.5019 -75.4928 -38.9728 -38.9362 -38.8595 -38.7958 -38.7760 -38.7331
    15.1819  15.7042  16.1207  16.2635  17.0836  17.6219  18.2649  19.1870
    19.5146  19.8106  22.8061  23.8531  28.1771

     occupation numbers 
     1.0000   1.0000   1.0000   1.0000   1.0000   1.0000   1.0000   1.0000
     1.0000   1.0000   1.0000   1.0000   0.9980   0.9831   0.8874   0.4637
     0.2896   0.1653   0.0000   0.0000   0.0000

          k = 0.2000 0.5774 0.2305 (  3596 PWs)   bands (ev):

   -75.4998 -75.4949 -38.9797 -38.9603 -38.8485 -38.8129 -38.7472 -38.7247
    15.2133  15.5597  16.2353  16.7246  16.8635  17.5628  18.4258  18.8226
    19.5900  19.8108  23.0726  23.6717  27.5596

     occupation numbers 
     1.0000   1.0000   1.0000   1.0000   1.0000   1.0000   1.0000   1.0000
     1.0000   1.0000   1.0000   0.9997   0.9993   0.9863   0.8378   0.6643
     0.2543   0.1652   0.0000   0.0000   0.0000

          k = 0.2000 0.5774-0.3074 (  3582 PWs)   bands (ev):

   -75.4973 -75.4973 -38.9758 -38.9758 -38.8315 -38.8315 -38.7291 -38.7291
    15.3514  15.3514  16.5184  16.5184  17.2427  17.2427  18.5913  18.5913
    19.7139  19.7139  23.3894  23.3894  27.3616

     occupation numbers 
     1.0000   1.0000   1.0000   1.0000   1.0000   1.0000   1.0000   1.0000
     1.0000   1.0000   0.9999   0.9999   0.9961   0.9961   0.7737   0.7737
     0.2015   0.2015   0.0000   0.0000   0.0000

          k = 0.2667 0.4619 0.0000 (  3590 PWs)   bands (ev):

   -75.5068 -75.4903 -38.9327 -38.9023 -38.8494 -38.8345 -38.7829 -38.7541
    15.3096  15.6354  15.9583  15.9831  17.1714  17.5603  18.0710  19.1028
    19.6702  19.7819  21.7223  26.6682  27.1471

     occupation numbers 
     1.0000   1.0000   1.0000   1.0000   1.0000   1.0000   1.0000   1.0000
     1.0000   1.0000   1.0000   1.0000   0.9971   0.9864   0.9315   0.5111
     0.2193   0.1756   0.0001   0.0000   0.0000

          k = 0.2667 0.4619 0.0768 (  3584 PWs)   bands (ev):

   -75.5062 -75.4910 -38.9339 -38.9207 -38.8433 -38.8299 -38.7834 -38.7445
    15.3303  15.6032  15.9814  16.0957  17.2167  17.4615  18.0690  19.1270
    19.5244  19.8229  21.8000  26.1899  27.3102

     occupation numbers 
     1.0000   1.0000   1.0000   1.0000   1.0000   1.0000   1.0000   1.0000
     1.0000   1.0000   1.0000   1.0000   0.9965   0.9906   0.9319   0.4975
     0.2849   0.1610   0.0001   0.0000   0.0000

          k = 0.2667 0.4619 0.1537 (  3589 PWs)   bands (ev):

   -75.5044 -75.4927 -38.9451 -38.9402 -38.8536 -38.8144 -38.7729 -38.7293
    15.3774  15.5596  16.0794  16.3575  17.2133  17.2779  18.0799  19.0830
    19.3256  19.8969  22.0017  25.0310  27.7730

     occupation numbers 
     1.0000   1.0000   1.0000   1.0000   1.0000   1.0000   1.0000   1.0000
     1.0000   1.0000   1.0000   1.0000   0.9965   0.9955   0.9298   0.5223
     0.3870   0.1368   0.0000   0.0000   0.0000

          k = 0.2667 0.4619 0.2305 (  3580 PWs)   bands (ev):

   -75.5017 -75.4954 -38.9594 -38.9521 -38.8507 -38.8232 -38.7475 -38.7223
    15.4296  15.5228  16.2815  16.6834  16.8991  17.2225  18.1563  18.6973
    19.5300  19.9069  22.3384  23.8391  28.4636

     occupation numbers 
     1.0000   1.0000   1.0000   1.0000   1.0000   1.0000   1.0000   1.0000
     1.0000   1.0000   1.0000   0.9997   0.9992   0.9964   0.9141   0.7262
     0.2822   0.1337   0.0000   0.0000   0.0000

          k = 0.2667 0.4619-0.3074 (  3590 PWs)   bands (ev):

   -75.4986 -75.4986 -38.9609 -38.9609 -38.8382 -38.8382 -38.7284 -38.7284
    15.4799  15.4799  16.5666  16.5666  17.0082  17.0082  18.3577  18.3577
    19.7783  19.7783  22.9204  22.9204  29.2133

     occupation numbers 
     1.0000   1.0000   1.0000   1.0000   1.0000   1.0000   1.0000   1.0000
     1.0000   1.0000   0.9998   0.9998   0.9986   0.9986   0.8603   0.8603
     0.1769   0.1769   0.0000   0.0000   0.0000

          k = 0.2667 0.5389 0.0000 (  3578 PWs)   bands (ev):

   -75.5006 -75.4920 -38.9382 -38.8897 -38.8610 -38.8246 -38.8017 -38.7748
    15.6200  15.6493  15.8553  16.1318  17.1960  17.3808  18.2051  19.3302
    19.6447  19.6652  22.9649  24.9733  26.7017

     occupation numbers 
     1.0000   1.0000   1.0000   1.0000   1.0000   1.0000   1.0000   1.0000
     1.0000   1.0000   1.0000   1.0000   0.9968   0.9931   0.9028   0.3845
     0.2301   0.2214   0.0000   0.0000   0.0000

          k = 0.2667 0.5389 0.0768 (  3585 PWs)   bands (ev):

   -75.5003 -75.4923 -38.9393 -38.9044 -38.8733 -38.8131 -38.7982 -38.7614
    15.5459  15.7832  15.9165  16.1250  17.1912  17.3293  18.2043  19.3517
    19.4926  19.6979  23.0800  24.9977  26.7658

     occupation numbers 
     1.0000   1.0000   1.0000   1.0000   1.0000   1.0000   1.0000   1.0000
     1.0000   1.0000   1.0000   1.0000   0.9968   0.9944   0.9030   0.3729
     0.3004   0.2079   0.0000   0.0000   0.0000

          k = 0.2667 0.5389 0.1537 (  3588 PWs)   bands (ev):

   -75.4993 -75.4932 -38.9473 -38.9277 -38.8832 -38.8230 -38.7680 -38.7403
    15.5361  15.8959  16.0280  16.2338  17.0984  17.2489  18.2158  19.1153
    19.4407  19.7562  23.3665  24.9851  26.9179

     occupation numbers 
     1.0000   1.0000   1.0000   1.0000   1.0000   1.0000   1.0000   1.0000
     1.0000   1.0000   1.0000   1.0000   0.9979   0.9960   0.9001   0.5041
     0.3264   0.1851   0.0000   0.0000   0.0000

          k = 0.2667 0.5389 0.2305 (  3593 PWs)   bands (ev):

   -75.4979 -75.4946 -38.9577 -38.9477 -38.8755 -38.8398 -38.7415 -38.7269
    15.5947  15.8210  16.2397  16.4790  16.9234  17.1492  18.2728  18.7171
    19.5670  19.7693  23.7580  24.7246  27.1670

     occupation numbers 
     1.0000   1.0000   1.0000   1.0000   1.0000   1.0000   1.0000   1.0000
     1.0000   1.0000   1.0000   0.9999   0.9991   0.9974   0.8853   0.7168
     0.2648   0.1802   0.0000   0.0000   0.0000

          k = 0.2667 0.5389-0.3074 (  3594 PWs)   bands (ev):

   -75.4963 -75.4963 -38.9588 -38.9588 -38.8587 -38.8587 -38.7270 -38.7270
    15.7003  15.7003  16.4730  16.4730  16.9673  16.9673  18.4243  18.4243
    19.6982  19.6982  24.2395  24.2395  27.6596

     occupation numbers 
     1.0000   1.0000   1.0000   1.0000   1.0000   1.0000   1.0000   1.0000
     1.0000   1.0000   0.9999   0.9999   0.9988   0.9988   0.8383   0.8383
     0.2078   0.2078   0.0000   0.0000   0.0000

          k = 0.3333 0.5774 0.0000 (  3588 PWs)   bands (ev):

   -75.4954 -75.4954 -38.9299 -38.8771 -38.8771 -38.8212 -38.7989 -38.7989
    15.6391  15.8580  15.8580  16.0801  17.2476  17.2476  18.2775  19.4744
    19.4744  19.6235  24.1731  25.0277  25.0277

     occupation numbers 
     1.0000   1.0000   1.0000   1.0000   1.0000   1.0000   1.0000   1.0000
     1.0000   1.0000   1.0000   1.0000   0.9960   0.9960   0.8840   0.3094
     0.3094   0.2393   0.0000   0.0000   0.0000

          k = 0.3333 0.5774 0.0768 (  3570 PWs)   bands (ev):

   -75.4954 -75.4954 -38.9258 -38.8938 -38.8938 -38.8253 -38.7820 -38.7820
    15.6870  15.8911  15.8911  16.0963  17.2073  17.2073  18.2634  19.4664
    19.5044  19.5044  24.4125  25.0571  25.0571

     occupation numbers 
     1.0000   1.0000   1.0000   1.0000   1.0000   1.0000   1.0000   1.0000
     1.0000   1.0000   1.0000   1.0000   0.9966   0.9966   0.8878   0.3134
     0.2946   0.2946   0.0000   0.0000   0.0000

          k = 0.3333 0.5774 0.1537 (  3582 PWs)   bands (ev):

   -75.4954 -75.4954 -38.9214 -38.9214 -38.9140 -38.8372 -38.7542 -38.7542
    15.8156  15.9772  15.9772  16.1323  17.1074  17.1074  18.2392  19.0958
    19.5731  19.5731  25.0438  25.1381  25.1381

     occupation numbers 
     1.0000   1.0000   1.0000   1.0000   1.0000   1.0000   1.0000   1.0000
     1.0000   1.0000   1.0000   1.0000   0.9978   0.9978   0.8942   0.5151
     0.2620   0.2620   0.0000   0.0000   0.0000

          k = 0.3333 0.5774 0.2305 (  3591 PWs)   bands (ev):

   -75.4954 -75.4954 -38.9419 -38.9419 -38.8965 -38.8549 -38.7335 -38.7335
    15.9784  16.0760  16.0760  16.1517  16.9995  16.9995  18.2588  18.6937
    19.6375  19.6375  25.2378  25.2378  25.9265

     occupation numbers 
     1.0000   1.0000   1.0000   1.0000   1.0000   1.0000   1.0000   1.0000
     1.0000   1.0000   1.0000   1.0000   0.9987   0.9987   0.8891   0.7279
     0.2332   0.2332   0.0000   0.0000   0.0000

          k = 0.3333 0.5774-0.3074 (  3606 PWs)   bands (ev):

   -75.4954 -75.4954 -38.9492 -38.9492 -38.8757 -38.8757 -38.7261 -38.7261
    16.1060  16.1060  16.1226  16.1226  16.9503  16.9503  18.3971  18.3971
    19.6630  19.6630  25.2865  25.2865  26.9784

     occupation numbers 
     1.0000   1.0000   1.0000   1.0000   1.0000   1.0000   1.0000   1.0000
     1.0000   1.0000   1.0000   1.0000   0.9989   0.9989   0.8475   0.8475
     0.2223   0.2223   0.0000   0.0000   0.0000

     the Fermi energy is    19.1226 ev

!    total energy              =    -753.50592823 Ry
     total all-electron energy =     -5573.862619 Ry
     estimated scf accuracy    <       0.00000006 Ry
     smearing contrib. (-TS)   =      -0.12949597 Ry
     internal energy E=F+TS    =    -753.37643225 Ry

     The total energy is F=E-TS. E is the sum of the following terms:
     one-electron contribution =    -278.79841692 Ry
     hartree contribution      =     163.54370971 Ry
     xc contribution           =     -61.30337777 Ry
     ewald contribution        =    -401.63724122 Ry
     one-center paw contrib.   =    -175.18110605 Ry
      -> PAW hartree energy AE =     222.26813921 Ry
      -> PAW hartree energy PS =    -221.21032958 Ry
      -> PAW xc energy AE      =    -117.62864457 Ry
      -> PAW xc energy PS      =      28.98028192 Ry
      -> total E_H with PAW    =     164.60151933 Ry
      -> total E_XC with PAW   =    -149.95174042 Ry

     total magnetization       =     1.32 Bohr mag/cell
     absolute magnetization    =     1.43 Bohr mag/cell

     convergence has been achieved in   3 iterations

     Writing all to output data dir ./out/Co.save/
 
     init_run     :      0.56s CPU      0.82s WALL (       1 calls)
     electrons    :     21.99s CPU     22.98s WALL (       1 calls)

     Called by init_run:
     wfcinit      :      0.41s CPU      0.64s WALL (       1 calls)
     potinit      :      0.11s CPU      0.13s WALL (       1 calls)
     hinit0       :      0.03s CPU      0.03s WALL (       1 calls)

     Called by electrons:
     c_bands      :     19.95s CPU     20.79s WALL (       4 calls)
     sum_band     :      1.71s CPU      1.78s WALL (       4 calls)
     v_of_rho     :      0.01s CPU      0.01s WALL (       4 calls)
     v_h          :      0.00s CPU      0.00s WALL (       4 calls)
     v_xc         :      0.01s CPU      0.01s WALL (       4 calls)
     newd         :      0.01s CPU      0.01s WALL (       4 calls)
     PAW_pot      :      0.40s CPU      0.49s WALL (       4 calls)
     mix_rho      :      0.00s CPU      0.00s WALL (       4 calls)

     Called by c_bands:
     init_us_2    :      0.12s CPU      0.13s WALL (    2160 calls)
     init_us_2:cp :      0.12s CPU      0.13s WALL (    2160 calls)
     cegterg      :     19.27s CPU     19.88s WALL (    1080 calls)

     Called by sum_band:
     sum_band:wei :      0.10s CPU      0.10s WALL (       4 calls)
     sum_band:loo :      1.57s CPU      1.65s WALL (       4 calls)
     sum_band:buf :      0.02s CPU      0.02s WALL (    1080 calls)
     sum_band:ini :      0.07s CPU      0.06s WALL (    1080 calls)
     sum_band:cal :      0.13s CPU      0.13s WALL (    1080 calls)
     sum_band:bec :      0.01s CPU      0.02s WALL (    1080 calls)
     addusdens    :      0.02s CPU      0.02s WALL (       4 calls)
                                        0.00s GPU  (       4 calls)
     addusd:skk   :      0.00s CPU      0.00s WALL (       4 calls)
                                        0.00s GPU  (       4 calls)

     Called by *egterg:
     cdiaghg      :      4.44s CPU      4.50s WALL (    6708 calls)
     cegterg:over :      0.70s CPU      0.67s WALL (    6168 calls)
     cegterg:upda :      0.13s CPU      0.19s WALL (    6168 calls)
     cegterg:last :      0.37s CPU      0.39s WALL (    4835 calls)
     h_psi        :     12.75s CPU     13.22s WALL (    7248 calls)
     s_psi        :      0.24s CPU      0.22s WALL (    7248 calls)
     g_psi        :      0.05s CPU      0.06s WALL (    6168 calls)

     Called by h_psi:
     h_psi:calbec :      0.72s CPU      0.68s WALL (    7248 calls)
     vloc_psi     :     11.73s CPU     12.16s WALL (    7248 calls)
     add_vuspsi   :      0.27s CPU      0.32s WALL (    7248 calls)

     General routines
     calbec       :      0.84s CPU      0.79s WALL (    8328 calls)
     fft          :      0.01s CPU      0.01s WALL (      84 calls)
     ffts         :      0.00s CPU      0.00s WALL (       8 calls)
     fftw         :     12.51s CPU     12.77s WALL (  227450 calls)
 
     Parallel routines

     PAW routines
     PAW_pot      :      0.40s CPU      0.49s WALL (       4 calls)
     PAW_symme    :      0.00s CPU      0.00s WALL (       7 calls)
 
     PWSCF        :     23.05s CPU     25.22s WALL

 
   This run was terminated on:  16:18:37  13Mar2024            

=------------------------------------------------------------------------------=
   JOB DONE.
=------------------------------------------------------------------------------=
