
     Program PWSCF v.7.2 starts on 13Mar2024 at 16:17:16 

     This program is part of the open-source Quantum ESPRESSO suite
     for quantum simulation of materials; please cite
         "P. Giannozzi et al., J. Phys.:Condens. Matter 21 395502 (2009);
         "P. Giannozzi et al., J. Phys.:Condens. Matter 29 465901 (2017);
         "P. Giannozzi et al., J. Chem. Phys. 152 154105 (2020);
          URL http://www.quantum-espresso.org", 
     in publications or presentations arising from this work. More details at
     http://www.quantum-espresso.org/quote

     Parallel version (MPI), running on    20 processors

     MPI processes distributed on     1 nodes
     334383 MiB available memory on the printing compute node when the environment starts
 
     Waiting for input...
     Reading input from standard input

     Current dimensions of program PWSCF are:
     Max number of different atomic species (ntypx) = 10
     Max number of k-points (npk) = 120000
     Max angular momentum in pseudopotentials (lmaxx) =  4
     file Co.pbe-spn-kjpaw_psl.0.3.1.UPF: wavefunction(s)  3P 3D renormalized
     Message from routine set_cutoff:
     ecutrho < 4*ecutwfc, are you sure?
     Message from routine setup:
     using ibrav=0 with symmetry is DISCOURAGED, use correct ibrav instead
 
     R & G space division:  proc/nbgrp/npool/nimage =      20
     Subspace diagonalization in iterative solution of the eigenvalue problem:
     a serial algorithm will be used

 
     Parallelization info
     --------------------
     sticks:   dense  smooth     PW     G-vecs:    dense   smooth      PW
     Min          27      27      9                  825      825     179
     Max          28      28     10                  830      830     186
     Sum         547     547    199                16551    16551    3693
 
     Using Slab Decomposition
 


     bravais-lattice index     =            0
     lattice parameter (alat)  =       4.6714  a.u.
     unit-cell volume          =     143.6064 (a.u.)^3
     number of atoms/cell      =            2
     number of atomic types    =            1
     number of electrons       =        34.00
     number of Kohn-Sham states=           21
     kinetic-energy cutoff     =     110.0000  Ry
     charge density cutoff     =     360.0000  Ry
     scf convergence threshold =      8.0E-08
     mixing beta               =       0.4000
     number of iterations used =            8  plain     mixing
     Exchange-correlation= SLA  PW   PBX  PBC
                           (   1   4   3   4   0   0   0)

     celldm(1)=   4.671403  celldm(2)=   0.000000  celldm(3)=   0.000000
     celldm(4)=   0.000000  celldm(5)=   0.000000  celldm(6)=   0.000000

     crystal axes: (cart. coord. in units of alat)
               a(1) = (   1.000000   0.000000   0.000000 )  
               a(2) = (  -0.500000   0.866025   0.000000 )  
               a(3) = (   0.000000   0.000000   1.626676 )  

     reciprocal axes: (cart. coord. in units 2 pi/alat)
               b(1) = (  1.000000  0.577350  0.000000 )  
               b(2) = (  0.000000  1.154701  0.000000 )  
               b(3) = (  0.000000  0.000000  0.614750 )  


     PseudoPot. # 1 for Co read from file:
     /truba/home/amuhaymin/ZnS/pseudo/QE/Co.pbe-spn-kjpaw_psl.0.3.1.UPF
     MD5 check sum: b0a1ad65bf214e88c1f3d33b20c7d919
     Pseudo is Projector augmented-wave + core cor, Zval = 17.0
     Generated using &quot;atomic&quot; code by A. Dal Corso  v.6.2.2
     Shape of augmentation charge: PSQ
     Using radial grid of 1193 points,  6 beta functions with: 
                l(1) =   0
                l(2) =   0
                l(3) =   1
                l(4) =   1
                l(5) =   2
                l(6) =   2
     Q(r) pseudized with 0 coefficients 


     atomic species   valence    mass     pseudopotential
        Co            17.00    58.93300     Co( 1.00)

     Starting magnetic structure 
     atomic species   magnetization
        Co           0.294

     24 Sym. Ops., with inversion, found (12 have fractional translation)


                                    s                        frac. trans.

      isym =  1     identity                                     

 cryst.   s( 1) = (     1          0          0      )
                  (     0          1          0      )
                  (     0          0          1      )

 cart.    s( 1) = (  1.0000000  0.0000000  0.0000000 )
                  (  0.0000000  1.0000000  0.0000000 )
                  (  0.0000000  0.0000000  1.0000000 )


      isym =  2     180 deg rotation - cart. axis [0,0,1]        

 cryst.   s( 2) = (    -1          0          0      )    f =(  0.0000000 )
                  (     0         -1          0      )       (  0.0000000 )
                  (     0          0          1      )       ( -0.5000000 )

 cart.    s( 2) = ( -1.0000000  0.0000000  0.0000000 )    f =(  0.0000000 )
                  (  0.0000000 -1.0000000  0.0000000 )       (  0.0000000 )
                  (  0.0000000  0.0000000  1.0000000 )       ( -0.8133382 )


      isym =  3     180 deg rotation - cart. axis [0,1,0]        

 cryst.   s( 3) = (    -1          0          0      )    f =(  0.0000000 )
                  (     1          1          0      )       (  0.0000000 )
                  (     0          0         -1      )       (  0.5000000 )

 cart.    s( 3) = ( -1.0000000  0.0000000  0.0000000 )    f =(  0.0000000 )
                  (  0.0000000  1.0000000  0.0000000 )       (  0.0000000 )
                  (  0.0000000  0.0000000 -1.0000000 )       (  0.8133382 )


      isym =  4     180 deg rotation - cart. axis [1,0,0]        

 cryst.   s( 4) = (     1          0          0      )
                  (    -1         -1          0      )
                  (     0          0         -1      )

 cart.    s( 4) = (  1.0000000  0.0000000  0.0000000 )
                  (  0.0000000 -1.0000000  0.0000000 )
                  (  0.0000000  0.0000000 -1.0000000 )


      isym =  5      60 deg rotation - cryst. axis [0,0,1]       

 cryst.   s( 5) = (     1          1          0      )    f =(  0.0000000 )
                  (    -1          0          0      )       ( -0.0000000 )
                  (     0          0          1      )       ( -0.5000000 )

 cart.    s( 5) = (  0.5000000 -0.8660254  0.0000000 )    f =(  0.0000000 )
                  (  0.8660254  0.5000000  0.0000000 )       ( -0.0000000 )
                  (  0.0000000  0.0000000  1.0000000 )       ( -0.8133382 )


      isym =  6      60 deg rotation - cryst. axis [0,0,-1]      

 cryst.   s( 6) = (     0         -1          0      )    f =(  0.0000000 )
                  (     1          1          0      )       ( -0.0000000 )
                  (     0          0          1      )       ( -0.5000000 )

 cart.    s( 6) = (  0.5000000  0.8660254  0.0000000 )    f =(  0.0000000 )
                  ( -0.8660254  0.5000000  0.0000000 )       ( -0.0000000 )
                  (  0.0000000  0.0000000  1.0000000 )       ( -0.8133382 )


      isym =  7     120 deg rotation - cryst. axis [0,0,1]       

 cryst.   s( 7) = (     0          1          0      )
                  (    -1         -1          0      )
                  (     0          0          1      )

 cart.    s( 7) = ( -0.5000000 -0.8660254  0.0000000 )
                  (  0.8660254 -0.5000000  0.0000000 )
                  (  0.0000000  0.0000000  1.0000000 )


      isym =  8     120 deg rotation - cryst. axis [0,0,-1]      

 cryst.   s( 8) = (    -1         -1          0      )
                  (     1          0          0      )
                  (     0          0          1      )

 cart.    s( 8) = ( -0.5000000  0.8660254  0.0000000 )
                  ( -0.8660254 -0.5000000  0.0000000 )
                  (  0.0000000  0.0000000  1.0000000 )


      isym =  9     180 deg rotation - cryst. axis [1,-1,0]      

 cryst.   s( 9) = (     0         -1          0      )    f =(  0.0000000 )
                  (    -1          0          0      )       (  0.0000000 )
                  (     0          0         -1      )       (  0.5000000 )

 cart.    s( 9) = (  0.5000000 -0.8660254  0.0000000 )    f =(  0.0000000 )
                  ( -0.8660254 -0.5000000  0.0000000 )       (  0.0000000 )
                  (  0.0000000  0.0000000 -1.0000000 )       (  0.8133382 )


      isym = 10     180 deg rotation - cryst. axis [2,1,0]       

 cryst.   s(10) = (     1          1          0      )    f =(  0.0000000 )
                  (     0         -1          0      )       ( -0.0000000 )
                  (     0          0         -1      )       (  0.5000000 )

 cart.    s(10) = (  0.5000000  0.8660254  0.0000000 )    f =(  0.0000000 )
                  (  0.8660254 -0.5000000  0.0000000 )       ( -0.0000000 )
                  (  0.0000000  0.0000000 -1.0000000 )       (  0.8133382 )


      isym = 11     180 deg rotation - cryst. axis [0,1,0]       

 cryst.   s(11) = (    -1         -1          0      )
                  (     0          1          0      )
                  (     0          0         -1      )

 cart.    s(11) = ( -0.5000000 -0.8660254  0.0000000 )
                  ( -0.8660254  0.5000000  0.0000000 )
                  (  0.0000000  0.0000000 -1.0000000 )


      isym = 12     180 deg rotation - cryst. axis [1,1,0]       

 cryst.   s(12) = (     0          1          0      )
                  (     1          0          0      )
                  (     0          0         -1      )

 cart.    s(12) = ( -0.5000000  0.8660254  0.0000000 )
                  (  0.8660254  0.5000000  0.0000000 )
                  (  0.0000000  0.0000000 -1.0000000 )


      isym = 13     inversion                                    

 cryst.   s(13) = (    -1          0          0      )
                  (     0         -1          0      )
                  (     0          0         -1      )

 cart.    s(13) = ( -1.0000000  0.0000000  0.0000000 )
                  (  0.0000000 -1.0000000  0.0000000 )
                  (  0.0000000  0.0000000 -1.0000000 )


      isym = 14     inv. 180 deg rotation - cart. axis [0,0,1]   

 cryst.   s(14) = (     1          0          0      )    f =(  0.0000000 )
                  (     0          1          0      )       (  0.0000000 )
                  (     0          0         -1      )       (  0.5000000 )

 cart.    s(14) = (  1.0000000  0.0000000  0.0000000 )    f =(  0.0000000 )
                  (  0.0000000  1.0000000  0.0000000 )       (  0.0000000 )
                  (  0.0000000  0.0000000 -1.0000000 )       (  0.8133382 )


      isym = 15     inv. 180 deg rotation - cart. axis [0,1,0]   

 cryst.   s(15) = (     1          0          0      )    f =(  0.0000000 )
                  (    -1         -1          0      )       (  0.0000000 )
                  (     0          0          1      )       ( -0.5000000 )

 cart.    s(15) = (  1.0000000  0.0000000  0.0000000 )    f =(  0.0000000 )
                  (  0.0000000 -1.0000000  0.0000000 )       (  0.0000000 )
                  (  0.0000000  0.0000000  1.0000000 )       ( -0.8133382 )


      isym = 16     inv. 180 deg rotation - cart. axis [1,0,0]   

 cryst.   s(16) = (    -1          0          0      )
                  (     1          1          0      )
                  (     0          0          1      )

 cart.    s(16) = ( -1.0000000  0.0000000  0.0000000 )
                  (  0.0000000  1.0000000  0.0000000 )
                  (  0.0000000  0.0000000  1.0000000 )


      isym = 17     inv.  60 deg rotation - cryst. axis [0,0,1]  

 cryst.   s(17) = (    -1         -1          0      )    f =(  0.0000000 )
                  (     1          0          0      )       (  0.0000000 )
                  (     0          0         -1      )       (  0.5000000 )

 cart.    s(17) = ( -0.5000000  0.8660254  0.0000000 )    f =(  0.0000000 )
                  ( -0.8660254 -0.5000000  0.0000000 )       (  0.0000000 )
                  (  0.0000000  0.0000000 -1.0000000 )       (  0.8133382 )


      isym = 18     inv.  60 deg rotation - cryst. axis [0,0,-1] 

 cryst.   s(18) = (     0          1          0      )    f =(  0.0000000 )
                  (    -1         -1          0      )       ( -0.0000000 )
                  (     0          0         -1      )       (  0.5000000 )

 cart.    s(18) = ( -0.5000000 -0.8660254  0.0000000 )    f =(  0.0000000 )
                  (  0.8660254 -0.5000000  0.0000000 )       ( -0.0000000 )
                  (  0.0000000  0.0000000 -1.0000000 )       (  0.8133382 )


      isym = 19     inv. 120 deg rotation - cryst. axis [0,0,1]  

 cryst.   s(19) = (     0         -1          0      )
                  (     1          1          0      )
                  (     0          0         -1      )

 cart.    s(19) = (  0.5000000  0.8660254  0.0000000 )
                  ( -0.8660254  0.5000000  0.0000000 )
                  (  0.0000000  0.0000000 -1.0000000 )


      isym = 20     inv. 120 deg rotation - cryst. axis [0,0,-1] 

 cryst.   s(20) = (     1          1          0      )
                  (    -1          0          0      )
                  (     0          0         -1      )

 cart.    s(20) = (  0.5000000 -0.8660254  0.0000000 )
                  (  0.8660254  0.5000000  0.0000000 )
                  (  0.0000000  0.0000000 -1.0000000 )


      isym = 21     inv. 180 deg rotation - cryst. axis [1,-1,0] 

 cryst.   s(21) = (     0          1          0      )    f =(  0.0000000 )
                  (     1          0          0      )       ( -0.0000000 )
                  (     0          0          1      )       ( -0.5000000 )

 cart.    s(21) = ( -0.5000000  0.8660254  0.0000000 )    f =(  0.0000000 )
                  (  0.8660254  0.5000000  0.0000000 )       ( -0.0000000 )
                  (  0.0000000  0.0000000  1.0000000 )       ( -0.8133382 )


      isym = 22     inv. 180 deg rotation - cryst. axis [2,1,0]  

 cryst.   s(22) = (    -1         -1          0      )    f =(  0.0000000 )
                  (     0          1          0      )       ( -0.0000000 )
                  (     0          0          1      )       ( -0.5000000 )

 cart.    s(22) = ( -0.5000000 -0.8660254  0.0000000 )    f =(  0.0000000 )
                  ( -0.8660254  0.5000000  0.0000000 )       ( -0.0000000 )
                  (  0.0000000  0.0000000  1.0000000 )       ( -0.8133382 )


      isym = 23     inv. 180 deg rotation - cryst. axis [0,1,0]  

 cryst.   s(23) = (     1          1          0      )
                  (     0         -1          0      )
                  (     0          0          1      )

 cart.    s(23) = (  0.5000000  0.8660254  0.0000000 )
                  (  0.8660254 -0.5000000  0.0000000 )
                  (  0.0000000  0.0000000  1.0000000 )


      isym = 24     inv. 180 deg rotation - cryst. axis [1,1,0]  

 cryst.   s(24) = (     0         -1          0      )
                  (    -1          0          0      )
                  (     0          0          1      )

 cart.    s(24) = (  0.5000000 -0.8660254  0.0000000 )
                  ( -0.8660254 -0.5000000  0.0000000 )
                  (  0.0000000  0.0000000  1.0000000 )


   Cartesian axes

     site n.     atom                  positions (alat units)
         1           Co  tau(   1) = (  -0.0000000   0.5773503   0.4066691  )
         2           Co  tau(   2) = (   0.5000000   0.2886751   1.2200074  )

   Crystallographic axes

     site n.     atom                  positions (cryst. coord.)
         1           Co  tau(   1) = (  0.3333333  0.6666667  0.2500000  )
         2           Co  tau(   2) = (  0.6666667  0.3333333  0.7500000  )

     number of k points=   135  Gaussian smearing, width (Ry)=  0.0735
                       cart. coord. in units 2pi/alat
        k(    1) = (   0.0000000   0.0000000   0.0000000), wk =   0.0005556
        k(    2) = (   0.0000000   0.0000000   0.0768438), wk =   0.0011111
        k(    3) = (   0.0000000   0.0000000   0.1536876), wk =   0.0011111
        k(    4) = (   0.0000000   0.0000000   0.2305314), wk =   0.0011111
        k(    5) = (   0.0000000   0.0000000  -0.3073752), wk =   0.0005556
        k(    6) = (   0.0000000   0.0769800   0.0000000), wk =   0.0033333
        k(    7) = (   0.0000000   0.0769800   0.0768438), wk =   0.0066667
        k(    8) = (   0.0000000   0.0769800   0.1536876), wk =   0.0066667
        k(    9) = (   0.0000000   0.0769800   0.2305314), wk =   0.0066667
        k(   10) = (   0.0000000   0.0769800  -0.3073752), wk =   0.0033333
        k(   11) = (   0.0000000   0.1539601   0.0000000), wk =   0.0033333
        k(   12) = (   0.0000000   0.1539601   0.0768438), wk =   0.0066667
        k(   13) = (   0.0000000   0.1539601   0.1536876), wk =   0.0066667
        k(   14) = (   0.0000000   0.1539601   0.2305314), wk =   0.0066667
        k(   15) = (   0.0000000   0.1539601  -0.3073752), wk =   0.0033333
        k(   16) = (   0.0000000   0.2309401   0.0000000), wk =   0.0033333
        k(   17) = (   0.0000000   0.2309401   0.0768438), wk =   0.0066667
        k(   18) = (   0.0000000   0.2309401   0.1536876), wk =   0.0066667
        k(   19) = (   0.0000000   0.2309401   0.2305314), wk =   0.0066667
        k(   20) = (   0.0000000   0.2309401  -0.3073752), wk =   0.0033333
        k(   21) = (   0.0000000   0.3079201   0.0000000), wk =   0.0033333
        k(   22) = (   0.0000000   0.3079201   0.0768438), wk =   0.0066667
        k(   23) = (   0.0000000   0.3079201   0.1536876), wk =   0.0066667
        k(   24) = (   0.0000000   0.3079201   0.2305314), wk =   0.0066667
        k(   25) = (   0.0000000   0.3079201  -0.3073752), wk =   0.0033333
        k(   26) = (   0.0000000   0.3849002   0.0000000), wk =   0.0033333
        k(   27) = (   0.0000000   0.3849002   0.0768438), wk =   0.0066667
        k(   28) = (   0.0000000   0.3849002   0.1536876), wk =   0.0066667
        k(   29) = (   0.0000000   0.3849002   0.2305314), wk =   0.0066667
        k(   30) = (   0.0000000   0.3849002  -0.3073752), wk =   0.0033333
        k(   31) = (   0.0000000   0.4618802   0.0000000), wk =   0.0033333
        k(   32) = (   0.0000000   0.4618802   0.0768438), wk =   0.0066667
        k(   33) = (   0.0000000   0.4618802   0.1536876), wk =   0.0066667
        k(   34) = (   0.0000000   0.4618802   0.2305314), wk =   0.0066667
        k(   35) = (   0.0000000   0.4618802  -0.3073752), wk =   0.0033333
        k(   36) = (   0.0000000   0.5388603   0.0000000), wk =   0.0033333
        k(   37) = (   0.0000000   0.5388603   0.0768438), wk =   0.0066667
        k(   38) = (   0.0000000   0.5388603   0.1536876), wk =   0.0066667
        k(   39) = (   0.0000000   0.5388603   0.2305314), wk =   0.0066667
        k(   40) = (   0.0000000   0.5388603  -0.3073752), wk =   0.0033333
        k(   41) = (   0.0666667   0.1154701   0.0000000), wk =   0.0033333
        k(   42) = (   0.0666667   0.1154701   0.0768438), wk =   0.0066667
        k(   43) = (   0.0666667   0.1154701   0.1536876), wk =   0.0066667
        k(   44) = (   0.0666667   0.1154701   0.2305314), wk =   0.0066667
        k(   45) = (   0.0666667   0.1154701  -0.3073752), wk =   0.0033333
        k(   46) = (   0.0666667   0.1924501   0.0000000), wk =   0.0066667
        k(   47) = (   0.0666667   0.1924501   0.0768438), wk =   0.0133333
        k(   48) = (   0.0666667   0.1924501   0.1536876), wk =   0.0133333
        k(   49) = (   0.0666667   0.1924501   0.2305314), wk =   0.0133333
        k(   50) = (   0.0666667   0.1924501  -0.3073752), wk =   0.0066667
        k(   51) = (   0.0666667   0.2694301   0.0000000), wk =   0.0066667
        k(   52) = (   0.0666667   0.2694301   0.0768438), wk =   0.0133333
        k(   53) = (   0.0666667   0.2694301   0.1536876), wk =   0.0133333
        k(   54) = (   0.0666667   0.2694301   0.2305314), wk =   0.0133333
        k(   55) = (   0.0666667   0.2694301  -0.3073752), wk =   0.0066667
        k(   56) = (   0.0666667   0.3464102   0.0000000), wk =   0.0066667
        k(   57) = (   0.0666667   0.3464102   0.0768438), wk =   0.0133333
        k(   58) = (   0.0666667   0.3464102   0.1536876), wk =   0.0133333
        k(   59) = (   0.0666667   0.3464102   0.2305314), wk =   0.0133333
        k(   60) = (   0.0666667   0.3464102  -0.3073752), wk =   0.0066667
        k(   61) = (   0.0666667   0.4233902   0.0000000), wk =   0.0066667
        k(   62) = (   0.0666667   0.4233902   0.0768438), wk =   0.0133333
        k(   63) = (   0.0666667   0.4233902   0.1536876), wk =   0.0133333
        k(   64) = (   0.0666667   0.4233902   0.2305314), wk =   0.0133333
        k(   65) = (   0.0666667   0.4233902  -0.3073752), wk =   0.0066667
        k(   66) = (   0.0666667   0.5003702   0.0000000), wk =   0.0066667
        k(   67) = (   0.0666667   0.5003702   0.0768438), wk =   0.0133333
        k(   68) = (   0.0666667   0.5003702   0.1536876), wk =   0.0133333
        k(   69) = (   0.0666667   0.5003702   0.2305314), wk =   0.0133333
        k(   70) = (   0.0666667   0.5003702  -0.3073752), wk =   0.0066667
        k(   71) = (   0.0666667   0.5773503   0.0000000), wk =   0.0033333
        k(   72) = (   0.0666667   0.5773503   0.0768438), wk =   0.0066667
        k(   73) = (   0.0666667   0.5773503   0.1536876), wk =   0.0066667
        k(   74) = (   0.0666667   0.5773503   0.2305314), wk =   0.0066667
        k(   75) = (   0.0666667   0.5773503  -0.3073752), wk =   0.0033333
        k(   76) = (   0.1333333   0.2309401   0.0000000), wk =   0.0033333
        k(   77) = (   0.1333333   0.2309401   0.0768438), wk =   0.0066667
        k(   78) = (   0.1333333   0.2309401   0.1536876), wk =   0.0066667
        k(   79) = (   0.1333333   0.2309401   0.2305314), wk =   0.0066667
        k(   80) = (   0.1333333   0.2309401  -0.3073752), wk =   0.0033333
        k(   81) = (   0.1333333   0.3079201   0.0000000), wk =   0.0066667
        k(   82) = (   0.1333333   0.3079201   0.0768438), wk =   0.0133333
        k(   83) = (   0.1333333   0.3079201   0.1536876), wk =   0.0133333
        k(   84) = (   0.1333333   0.3079201   0.2305314), wk =   0.0133333
        k(   85) = (   0.1333333   0.3079201  -0.3073752), wk =   0.0066667
        k(   86) = (   0.1333333   0.3849002   0.0000000), wk =   0.0066667
        k(   87) = (   0.1333333   0.3849002   0.0768438), wk =   0.0133333
        k(   88) = (   0.1333333   0.3849002   0.1536876), wk =   0.0133333
        k(   89) = (   0.1333333   0.3849002   0.2305314), wk =   0.0133333
        k(   90) = (   0.1333333   0.3849002  -0.3073752), wk =   0.0066667
        k(   91) = (   0.1333333   0.4618802   0.0000000), wk =   0.0066667
        k(   92) = (   0.1333333   0.4618802   0.0768438), wk =   0.0133333
        k(   93) = (   0.1333333   0.4618802   0.1536876), wk =   0.0133333
        k(   94) = (   0.1333333   0.4618802   0.2305314), wk =   0.0133333
        k(   95) = (   0.1333333   0.4618802  -0.3073752), wk =   0.0066667
        k(   96) = (   0.1333333   0.5388603   0.0000000), wk =   0.0066667
        k(   97) = (   0.1333333   0.5388603   0.0768438), wk =   0.0133333
        k(   98) = (   0.1333333   0.5388603   0.1536876), wk =   0.0133333
        k(   99) = (   0.1333333   0.5388603   0.2305314), wk =   0.0133333
        k(  100) = (   0.1333333   0.5388603  -0.3073752), wk =   0.0066667
        k(  101) = (   0.2000000   0.3464102   0.0000000), wk =   0.0033333
        k(  102) = (   0.2000000   0.3464102   0.0768438), wk =   0.0066667
        k(  103) = (   0.2000000   0.3464102   0.1536876), wk =   0.0066667
        k(  104) = (   0.2000000   0.3464102   0.2305314), wk =   0.0066667
        k(  105) = (   0.2000000   0.3464102  -0.3073752), wk =   0.0033333
        k(  106) = (   0.2000000   0.4233902   0.0000000), wk =   0.0066667
        k(  107) = (   0.2000000   0.4233902   0.0768438), wk =   0.0133333
        k(  108) = (   0.2000000   0.4233902   0.1536876), wk =   0.0133333
        k(  109) = (   0.2000000   0.4233902   0.2305314), wk =   0.0133333
        k(  110) = (   0.2000000   0.4233902  -0.3073752), wk =   0.0066667
        k(  111) = (   0.2000000   0.5003702   0.0000000), wk =   0.0066667
        k(  112) = (   0.2000000   0.5003702   0.0768438), wk =   0.0133333
        k(  113) = (   0.2000000   0.5003702   0.1536876), wk =   0.0133333
        k(  114) = (   0.2000000   0.5003702   0.2305314), wk =   0.0133333
        k(  115) = (   0.2000000   0.5003702  -0.3073752), wk =   0.0066667
        k(  116) = (   0.2000000   0.5773503   0.0000000), wk =   0.0033333
        k(  117) = (   0.2000000   0.5773503   0.0768438), wk =   0.0066667
        k(  118) = (   0.2000000   0.5773503   0.1536876), wk =   0.0066667
        k(  119) = (   0.2000000   0.5773503   0.2305314), wk =   0.0066667
        k(  120) = (   0.2000000   0.5773503  -0.3073752), wk =   0.0033333
        k(  121) = (   0.2666667   0.4618802   0.0000000), wk =   0.0033333
        k(  122) = (   0.2666667   0.4618802   0.0768438), wk =   0.0066667
        k(  123) = (   0.2666667   0.4618802   0.1536876), wk =   0.0066667
        k(  124) = (   0.2666667   0.4618802   0.2305314), wk =   0.0066667
        k(  125) = (   0.2666667   0.4618802  -0.3073752), wk =   0.0033333
        k(  126) = (   0.2666667   0.5388603   0.0000000), wk =   0.0066667
        k(  127) = (   0.2666667   0.5388603   0.0768438), wk =   0.0133333
        k(  128) = (   0.2666667   0.5388603   0.1536876), wk =   0.0133333
        k(  129) = (   0.2666667   0.5388603   0.2305314), wk =   0.0133333
        k(  130) = (   0.2666667   0.5388603  -0.3073752), wk =   0.0066667
        k(  131) = (   0.3333333   0.5773503   0.0000000), wk =   0.0011111
        k(  132) = (   0.3333333   0.5773503   0.0768438), wk =   0.0022222
        k(  133) = (   0.3333333   0.5773503   0.1536876), wk =   0.0022222
        k(  134) = (   0.3333333   0.5773503   0.2305314), wk =   0.0022222
        k(  135) = (   0.3333333   0.5773503  -0.3073752), wk =   0.0011111

                       cryst. coord.
        k(    1) = (   0.0000000   0.0000000   0.0000000), wk =   0.0005556
        k(    2) = (   0.0000000   0.0000000   0.1250000), wk =   0.0011111
        k(    3) = (   0.0000000   0.0000000   0.2500000), wk =   0.0011111
        k(    4) = (   0.0000000   0.0000000   0.3750000), wk =   0.0011111
        k(    5) = (   0.0000000   0.0000000  -0.5000000), wk =   0.0005556
        k(    6) = (   0.0000000   0.0666667   0.0000000), wk =   0.0033333
        k(    7) = (   0.0000000   0.0666667   0.1250000), wk =   0.0066667
        k(    8) = (   0.0000000   0.0666667   0.2500000), wk =   0.0066667
        k(    9) = (   0.0000000   0.0666667   0.3750000), wk =   0.0066667
        k(   10) = (   0.0000000   0.0666667  -0.5000000), wk =   0.0033333
        k(   11) = (   0.0000000   0.1333333   0.0000000), wk =   0.0033333
        k(   12) = (   0.0000000   0.1333333   0.1250000), wk =   0.0066667
        k(   13) = (   0.0000000   0.1333333   0.2500000), wk =   0.0066667
        k(   14) = (   0.0000000   0.1333333   0.3750000), wk =   0.0066667
        k(   15) = (   0.0000000   0.1333333  -0.5000000), wk =   0.0033333
        k(   16) = (   0.0000000   0.2000000   0.0000000), wk =   0.0033333
        k(   17) = (   0.0000000   0.2000000   0.1250000), wk =   0.0066667
        k(   18) = (   0.0000000   0.2000000   0.2500000), wk =   0.0066667
        k(   19) = (   0.0000000   0.2000000   0.3750000), wk =   0.0066667
        k(   20) = (   0.0000000   0.2000000  -0.5000000), wk =   0.0033333
        k(   21) = (   0.0000000   0.2666667   0.0000000), wk =   0.0033333
        k(   22) = (   0.0000000   0.2666667   0.1250000), wk =   0.0066667
        k(   23) = (   0.0000000   0.2666667   0.2500000), wk =   0.0066667
        k(   24) = (   0.0000000   0.2666667   0.3750000), wk =   0.0066667
        k(   25) = (   0.0000000   0.2666667  -0.5000000), wk =   0.0033333
        k(   26) = (   0.0000000   0.3333333   0.0000000), wk =   0.0033333
        k(   27) = (   0.0000000   0.3333333   0.1250000), wk =   0.0066667
        k(   28) = (   0.0000000   0.3333333   0.2500000), wk =   0.0066667
        k(   29) = (   0.0000000   0.3333333   0.3750000), wk =   0.0066667
        k(   30) = (   0.0000000   0.3333333  -0.5000000), wk =   0.0033333
        k(   31) = (   0.0000000   0.4000000   0.0000000), wk =   0.0033333
        k(   32) = (   0.0000000   0.4000000   0.1250000), wk =   0.0066667
        k(   33) = (   0.0000000   0.4000000   0.2500000), wk =   0.0066667
        k(   34) = (   0.0000000   0.4000000   0.3750000), wk =   0.0066667
        k(   35) = (   0.0000000   0.4000000  -0.5000000), wk =   0.0033333
        k(   36) = (   0.0000000   0.4666667   0.0000000), wk =   0.0033333
        k(   37) = (   0.0000000   0.4666667   0.1250000), wk =   0.0066667
        k(   38) = (   0.0000000   0.4666667   0.2500000), wk =   0.0066667
        k(   39) = (   0.0000000   0.4666667   0.3750000), wk =   0.0066667
        k(   40) = (   0.0000000   0.4666667  -0.5000000), wk =   0.0033333
        k(   41) = (   0.0666667   0.0666667   0.0000000), wk =   0.0033333
        k(   42) = (   0.0666667   0.0666667   0.1250000), wk =   0.0066667
        k(   43) = (   0.0666667   0.0666667   0.2500000), wk =   0.0066667
        k(   44) = (   0.0666667   0.0666667   0.3750000), wk =   0.0066667
        k(   45) = (   0.0666667   0.0666667  -0.5000000), wk =   0.0033333
        k(   46) = (   0.0666667   0.1333333   0.0000000), wk =   0.0066667
        k(   47) = (   0.0666667   0.1333333   0.1250000), wk =   0.0133333
        k(   48) = (   0.0666667   0.1333333   0.2500000), wk =   0.0133333
        k(   49) = (   0.0666667   0.1333333   0.3750000), wk =   0.0133333
        k(   50) = (   0.0666667   0.1333333  -0.5000000), wk =   0.0066667
        k(   51) = (   0.0666667   0.2000000   0.0000000), wk =   0.0066667
        k(   52) = (   0.0666667   0.2000000   0.1250000), wk =   0.0133333
        k(   53) = (   0.0666667   0.2000000   0.2500000), wk =   0.0133333
        k(   54) = (   0.0666667   0.2000000   0.3750000), wk =   0.0133333
        k(   55) = (   0.0666667   0.2000000  -0.5000000), wk =   0.0066667
        k(   56) = (   0.0666667   0.2666667   0.0000000), wk =   0.0066667
        k(   57) = (   0.0666667   0.2666667   0.1250000), wk =   0.0133333
        k(   58) = (   0.0666667   0.2666667   0.2500000), wk =   0.0133333
        k(   59) = (   0.0666667   0.2666667   0.3750000), wk =   0.0133333
        k(   60) = (   0.0666667   0.2666667  -0.5000000), wk =   0.0066667
        k(   61) = (   0.0666667   0.3333333   0.0000000), wk =   0.0066667
        k(   62) = (   0.0666667   0.3333333   0.1250000), wk =   0.0133333
        k(   63) = (   0.0666667   0.3333333   0.2500000), wk =   0.0133333
        k(   64) = (   0.0666667   0.3333333   0.3750000), wk =   0.0133333
        k(   65) = (   0.0666667   0.3333333  -0.5000000), wk =   0.0066667
        k(   66) = (   0.0666667   0.4000000   0.0000000), wk =   0.0066667
        k(   67) = (   0.0666667   0.4000000   0.1250000), wk =   0.0133333
        k(   68) = (   0.0666667   0.4000000   0.2500000), wk =   0.0133333
        k(   69) = (   0.0666667   0.4000000   0.3750000), wk =   0.0133333
        k(   70) = (   0.0666667   0.4000000  -0.5000000), wk =   0.0066667
        k(   71) = (   0.0666667   0.4666667   0.0000000), wk =   0.0033333
        k(   72) = (   0.0666667   0.4666667   0.1250000), wk =   0.0066667
        k(   73) = (   0.0666667   0.4666667   0.2500000), wk =   0.0066667
        k(   74) = (   0.0666667   0.4666667   0.3750000), wk =   0.0066667
        k(   75) = (   0.0666667   0.4666667  -0.5000000), wk =   0.0033333
        k(   76) = (   0.1333333   0.1333333   0.0000000), wk =   0.0033333
        k(   77) = (   0.1333333   0.1333333   0.1250000), wk =   0.0066667
        k(   78) = (   0.1333333   0.1333333   0.2500000), wk =   0.0066667
        k(   79) = (   0.1333333   0.1333333   0.3750000), wk =   0.0066667
        k(   80) = (   0.1333333   0.1333333  -0.5000000), wk =   0.0033333
        k(   81) = (   0.1333333   0.2000000   0.0000000), wk =   0.0066667
        k(   82) = (   0.1333333   0.2000000   0.1250000), wk =   0.0133333
        k(   83) = (   0.1333333   0.2000000   0.2500000), wk =   0.0133333
        k(   84) = (   0.1333333   0.2000000   0.3750000), wk =   0.0133333
        k(   85) = (   0.1333333   0.2000000  -0.5000000), wk =   0.0066667
        k(   86) = (   0.1333333   0.2666667   0.0000000), wk =   0.0066667
        k(   87) = (   0.1333333   0.2666667   0.1250000), wk =   0.0133333
        k(   88) = (   0.1333333   0.2666667   0.2500000), wk =   0.0133333
        k(   89) = (   0.1333333   0.2666667   0.3750000), wk =   0.0133333
        k(   90) = (   0.1333333   0.2666667  -0.5000000), wk =   0.0066667
        k(   91) = (   0.1333333   0.3333333   0.0000000), wk =   0.0066667
        k(   92) = (   0.1333333   0.3333333   0.1250000), wk =   0.0133333
        k(   93) = (   0.1333333   0.3333333   0.2500000), wk =   0.0133333
        k(   94) = (   0.1333333   0.3333333   0.3750000), wk =   0.0133333
        k(   95) = (   0.1333333   0.3333333  -0.5000000), wk =   0.0066667
        k(   96) = (   0.1333333   0.4000000   0.0000000), wk =   0.0066667
        k(   97) = (   0.1333333   0.4000000   0.1250000), wk =   0.0133333
        k(   98) = (   0.1333333   0.4000000   0.2500000), wk =   0.0133333
        k(   99) = (   0.1333333   0.4000000   0.3750000), wk =   0.0133333
        k(  100) = (   0.1333333   0.4000000  -0.5000000), wk =   0.0066667
        k(  101) = (   0.2000000   0.2000000   0.0000000), wk =   0.0033333
        k(  102) = (   0.2000000   0.2000000   0.1250000), wk =   0.0066667
        k(  103) = (   0.2000000   0.2000000   0.2500000), wk =   0.0066667
        k(  104) = (   0.2000000   0.2000000   0.3750000), wk =   0.0066667
        k(  105) = (   0.2000000   0.2000000  -0.5000000), wk =   0.0033333
        k(  106) = (   0.2000000   0.2666667   0.0000000), wk =   0.0066667
        k(  107) = (   0.2000000   0.2666667   0.1250000), wk =   0.0133333
        k(  108) = (   0.2000000   0.2666667   0.2500000), wk =   0.0133333
        k(  109) = (   0.2000000   0.2666667   0.3750000), wk =   0.0133333
        k(  110) = (   0.2000000   0.2666667  -0.5000000), wk =   0.0066667
        k(  111) = (   0.2000000   0.3333333   0.0000000), wk =   0.0066667
        k(  112) = (   0.2000000   0.3333333   0.1250000), wk =   0.0133333
        k(  113) = (   0.2000000   0.3333333   0.2500000), wk =   0.0133333
        k(  114) = (   0.2000000   0.3333333   0.3750000), wk =   0.0133333
        k(  115) = (   0.2000000   0.3333333  -0.5000000), wk =   0.0066667
        k(  116) = (   0.2000000   0.4000000   0.0000000), wk =   0.0033333
        k(  117) = (   0.2000000   0.4000000   0.1250000), wk =   0.0066667
        k(  118) = (   0.2000000   0.4000000   0.2500000), wk =   0.0066667
        k(  119) = (   0.2000000   0.4000000   0.3750000), wk =   0.0066667
        k(  120) = (   0.2000000   0.4000000  -0.5000000), wk =   0.0033333
        k(  121) = (   0.2666667   0.2666667   0.0000000), wk =   0.0033333
        k(  122) = (   0.2666667   0.2666667   0.1250000), wk =   0.0066667
        k(  123) = (   0.2666667   0.2666667   0.2500000), wk =   0.0066667
        k(  124) = (   0.2666667   0.2666667   0.3750000), wk =   0.0066667
        k(  125) = (   0.2666667   0.2666667  -0.5000000), wk =   0.0033333
        k(  126) = (   0.2666667   0.3333333   0.0000000), wk =   0.0066667
        k(  127) = (   0.2666667   0.3333333   0.1250000), wk =   0.0133333
        k(  128) = (   0.2666667   0.3333333   0.2500000), wk =   0.0133333
        k(  129) = (   0.2666667   0.3333333   0.3750000), wk =   0.0133333
        k(  130) = (   0.2666667   0.3333333  -0.5000000), wk =   0.0066667
        k(  131) = (   0.3333333   0.3333333   0.0000000), wk =   0.0011111
        k(  132) = (   0.3333333   0.3333333   0.1250000), wk =   0.0022222
        k(  133) = (   0.3333333   0.3333333   0.2500000), wk =   0.0022222
        k(  134) = (   0.3333333   0.3333333   0.3750000), wk =   0.0022222
        k(  135) = (   0.3333333   0.3333333  -0.5000000), wk =   0.0011111

     Dense  grid:    16551 G-vectors     FFT dimensions: (  30,  30,  48)

     Dynamical RAM for                 wfc:       0.04 MB

     Dynamical RAM for     wfc (w. buffer):      12.07 MB

     Dynamical RAM for           str. fact:       0.01 MB

     Dynamical RAM for           local pot:       0.00 MB

     Dynamical RAM for          nlocal pot:       0.08 MB

     Dynamical RAM for                qrad:       1.52 MB

     Dynamical RAM for          rho,v,vnew:       0.20 MB

     Dynamical RAM for               rhoin:       0.07 MB

     Dynamical RAM for            rho*nmix:       0.40 MB

     Dynamical RAM for           G-vectors:       0.05 MB

     Dynamical RAM for          h,s,v(r/c):       0.08 MB

     Dynamical RAM for          <psi|beta>:       0.01 MB

     Dynamical RAM for                 psi:       0.09 MB

     Dynamical RAM for                hpsi:       0.09 MB

     Dynamical RAM for                spsi:       0.09 MB

     Dynamical RAM for      wfcinit/wfcrot:       0.10 MB

     Dynamical RAM for           addusdens:       2.39 MB

     Estimated static dynamical RAM per process >      14.15 MB

     Estimated max dynamical RAM per process >      16.95 MB

     Estimated total dynamical RAM >     338.93 MB

     Check: negative core charge=   -0.000067
     Generating pointlists ...
     new r_m :   0.4114 (alat units)  1.9220 (a.u.) for type    1

     The initial density is read from file :
     ./out/Co.save/charge-density

     Starting wfcs from file
     Checking if some PAW data can be deallocated... 

     total cpu time spent up to now is        0.9 secs

     Self-consistent Calculation

     iteration #  1     ecut=   110.00 Ry     beta= 0.40
     Davidson diagonalization with overlap

---- Real-time Memory Report at c_bands before calling an iterative solver
            56 MiB given to the printing process from OS
             0 MiB allocation reported by mallinfo(arena+hblkhd)
        333708 MiB available memory on the node where the printing process lives
------------------
     ethr =  1.00E-05,  avg # of iterations =  5.9

     Threshold (ethr) on eigenvalues was too large:
     Diagonalizing with lowered threshold

     Davidson diagonalization with overlap

---- Real-time Memory Report at c_bands before calling an iterative solver
            66 MiB given to the printing process from OS
             0 MiB allocation reported by mallinfo(arena+hblkhd)
        333540 MiB available memory on the node where the printing process lives
------------------
     c_bands:  1 eigenvalues not converged
     c_bands:  1 eigenvalues not converged
     c_bands:  1 eigenvalues not converged
     c_bands:  2 eigenvalues not converged
     c_bands:  1 eigenvalues not converged
     c_bands:  1 eigenvalues not converged
     c_bands:  2 eigenvalues not converged
     c_bands:  1 eigenvalues not converged
     c_bands:  2 eigenvalues not converged
     c_bands:  1 eigenvalues not converged
     c_bands:  2 eigenvalues not converged
     c_bands:  1 eigenvalues not converged
     c_bands:  2 eigenvalues not converged
     c_bands:  1 eigenvalues not converged
     c_bands:  1 eigenvalues not converged
     c_bands:  1 eigenvalues not converged
     c_bands:  2 eigenvalues not converged
     c_bands:  2 eigenvalues not converged
     c_bands:  1 eigenvalues not converged
     c_bands:  2 eigenvalues not converged
     c_bands:  1 eigenvalues not converged
     c_bands:  2 eigenvalues not converged
     c_bands:  1 eigenvalues not converged
     c_bands:  4 eigenvalues not converged
     c_bands:  5 eigenvalues not converged
     c_bands:  2 eigenvalues not converged
     c_bands:  1 eigenvalues not converged
     c_bands:  1 eigenvalues not converged
     c_bands:  1 eigenvalues not converged
     c_bands:  1 eigenvalues not converged
     c_bands:  2 eigenvalues not converged
     c_bands:  1 eigenvalues not converged
     c_bands:  1 eigenvalues not converged
     c_bands:  2 eigenvalues not converged
     c_bands:  5 eigenvalues not converged
     c_bands:  1 eigenvalues not converged
     c_bands:  1 eigenvalues not converged
     c_bands:  2 eigenvalues not converged
     c_bands:  1 eigenvalues not converged
     c_bands:  1 eigenvalues not converged
     c_bands:  1 eigenvalues not converged
     c_bands:  1 eigenvalues not converged
     c_bands:  1 eigenvalues not converged
     c_bands:  1 eigenvalues not converged
     c_bands:  2 eigenvalues not converged
     c_bands:  1 eigenvalues not converged
     c_bands:  2 eigenvalues not converged
     ethr =  4.79E-09,  avg # of iterations = 16.5

     total cpu time spent up to now is       20.0 secs

     total energy              =    -753.50464984 Ry
     estimated scf accuracy    <       0.00000029 Ry

     total magnetization       =     1.32 Bohr mag/cell
     absolute magnetization    =     1.42 Bohr mag/cell

     iteration #  2     ecut=   110.00 Ry     beta= 0.40
     Davidson diagonalization with overlap

---- Real-time Memory Report at c_bands before calling an iterative solver
            79 MiB given to the printing process from OS
             0 MiB allocation reported by mallinfo(arena+hblkhd)
        333476 MiB available memory on the node where the printing process lives
------------------
     ethr =  8.61E-10,  avg # of iterations =  5.4

     total cpu time spent up to now is       24.3 secs

     total energy              =    -753.50465002 Ry
     estimated scf accuracy    <       0.00000011 Ry

     total magnetization       =     1.32 Bohr mag/cell
     absolute magnetization    =     1.42 Bohr mag/cell

     iteration #  3     ecut=   110.00 Ry     beta= 0.40
     Davidson diagonalization with overlap

---- Real-time Memory Report at c_bands before calling an iterative solver
            81 MiB given to the printing process from OS
             0 MiB allocation reported by mallinfo(arena+hblkhd)
        333467 MiB available memory on the node where the printing process lives
------------------
     ethr =  3.25E-10,  avg # of iterations =  3.0
 
     Magnetic moment per site  (integrated on atomic sphere of radius R)
     atom   1 (R=0.411)  charge= 15.5902  magn=  0.6835
     atom   2 (R=0.411)  charge= 15.5902  magn=  0.6835

     total cpu time spent up to now is       27.3 secs

     End of self-consistent calculation

 ------ SPIN UP ------------


          k = 0.0000 0.0000 0.0000 (  2803 PWs)   bands (ev):

   -76.4044 -76.3431 -39.8277 -39.5214 -39.5214 -39.4733 -39.4712 -39.4712
    10.0058  14.1280  16.9131  16.9655  16.9655  17.2985  17.2985  17.6997
    17.6997  18.7873  18.8524  18.8524  25.8031

     occupation numbers 
     1.0000   1.0000   1.0000   1.0000   1.0000   1.0000   1.0000   1.0000
     1.0000   1.0000   0.9991   0.9989   0.9989   0.9951   0.9951   0.9779
     0.9779   0.6822   0.6487   0.6487   0.0000

          k = 0.0000 0.0000 0.0768 (  2797 PWs)   bands (ev):

   -76.4021 -76.3454 -39.8145 -39.5195 -39.5195 -39.4869 -39.4731 -39.4731
    10.1637  14.0713  16.8683  16.9246  16.9246  17.2539  17.2539  17.7995
    17.7995  18.2623  18.8436  18.8436  26.6651

     occupation numbers 
     1.0000   1.0000   1.0000   1.0000   1.0000   1.0000   1.0000   1.0000
     1.0000   1.0000   0.9993   0.9991   0.9991   0.9959   0.9959   0.9693
     0.9693   0.8881   0.6533   0.6533   0.0000

          k = 0.0000 0.0000 0.1537 (  2797 PWs)   bands (ev):

   -76.3955 -76.3521 -39.7765 -39.5258 -39.5140 -39.5140 -39.4785 -39.4785
    10.6269  13.8157  16.7486  16.8638  16.8638  17.1419  17.1419  17.3051
    18.0271  18.0271  18.8019  18.8019  28.7083

     occupation numbers 
     1.0000   1.0000   1.0000   1.0000   1.0000   1.0000   1.0000   1.0000
     1.0000   1.0000   0.9996   0.9993   0.9993   0.9975   0.9975   0.9949
     0.9393   0.9393   0.6748   0.6748   0.0000

          k = 0.0000 0.0000 0.2305 (  2810 PWs)   bands (ev):

   -76.3855 -76.3621 -39.7195 -39.5838 -39.5059 -39.5059 -39.4867 -39.4867
    11.3588  13.1900  16.6008  16.6777  16.8503  16.8503  17.0097  17.0097
    18.2882  18.2882  18.6995  18.6995  31.3099

     occupation numbers 
     1.0000   1.0000   1.0000   1.0000   1.0000   1.0000   1.0000   1.0000
     1.0000   1.0000   0.9998   0.9997   0.9993   0.9993   0.9986   0.9986
     0.8810   0.8810   0.7251   0.7251   0.0000

          k = 0.0000 0.0000-0.3074 (  2834 PWs)   bands (ev):

   -76.3738 -76.3738 -39.6519 -39.6519 -39.4963 -39.4963 -39.4963 -39.4963
    12.2751  12.2751  16.5180  16.5180  16.9024  16.9024  16.9024  16.9024
    18.5241  18.5241  18.5241  18.5241  34.1920

     occupation numbers 
     1.0000   1.0000   1.0000   1.0000   1.0000   1.0000   1.0000   1.0000
     1.0000   1.0000   0.9999   0.9999   0.9992   0.9992   0.9992   0.9992
     0.8013   0.8013   0.8013   0.8013   0.0000

          k = 0.0000 0.0770 0.0000 (  2797 PWs)   bands (ev):

   -76.4021 -76.3420 -39.8227 -39.5327 -39.5250 -39.4829 -39.4752 -39.4731
    10.1642  14.2295  16.7536  17.0435  17.0999  17.2584  17.3678  17.5816
    17.6496  17.9336  18.8737  19.9260  25.8228

     occupation numbers 
     1.0000   1.0000   1.0000   1.0000   1.0000   1.0000   1.0000   1.0000
     1.0000   1.0000   0.9996   0.9984   0.9979   0.9958   0.9935   0.9853
     0.9814   0.9536   0.6375   0.1279   0.0000

          k = 0.0000 0.0770 0.0768 (  2797 PWs)   bands (ev):

   -76.3998 -76.3443 -39.8099 -39.5305 -39.5231 -39.4949 -39.4785 -39.4750
    10.3206  14.1783  16.7455  16.9956  17.0019  17.1573  17.3202  17.6391
    17.7611  17.8337  18.8619  19.5753  26.7154

     occupation numbers 
     1.0000   1.0000   1.0000   1.0000   1.0000   1.0000   1.0000   1.0000
     1.0000   1.0000   0.9996   0.9987   0.9986   0.9973   0.9946   0.9820
     0.9729   0.9658   0.6437   0.2609   0.0000

          k = 0.0000 0.0770 0.1537 (  2797 PWs)   bands (ev):

   -76.3933 -76.3508 -39.7733 -39.5321 -39.5244 -39.5174 -39.4850 -39.4807
    10.7793  13.9353  16.7263  16.8154  16.8400  16.9282  17.2065  17.3264
    18.0016  18.0207  18.8124  19.1155  28.7921

     occupation numbers 
     1.0000   1.0000   1.0000   1.0000   1.0000   1.0000   1.0000   1.0000
     1.0000   1.0000   0.9996   0.9994   0.9994   0.9990   0.9966   0.9945
     0.9435   0.9404   0.6694   0.5039   0.0000

          k = 0.0000 0.0770 0.2305 (  2807 PWs)   bands (ev):

   -76.3836 -76.3606 -39.7184 -39.5877 -39.5155 -39.5090 -39.4941 -39.4891
    11.5042  13.3188  16.4802  16.5755  16.8036  16.9131  17.0693  17.0738
    18.2714  18.3040  18.7004  18.8297  31.4099

     occupation numbers 
     1.0000   1.0000   1.0000   1.0000   1.0000   1.0000   1.0000   1.0000
     1.0000   1.0000   0.9999   0.9998   0.9995   0.9991   0.9982   0.9981
     0.8856   0.8764   0.7247   0.6606   0.0000

          k = 0.0000 0.0770-0.3074 (  2812 PWs)   bands (ev):

   -76.3721 -76.3721 -39.6532 -39.6532 -39.5048 -39.5048 -39.4991 -39.4991
    12.4118  12.4118  16.4309  16.4309  16.9016  16.9016  16.9657  16.9657
    18.5156  18.5156  18.5779  18.5779  34.3003

     occupation numbers 
     1.0000   1.0000   1.0000   1.0000   1.0000   1.0000   1.0000   1.0000
     1.0000   1.0000   0.9999   0.9999   0.9992   0.9992   0.9989   0.9989
     0.8046   0.8046   0.7794   0.7794   0.0000

          k = 0.0000 0.1540 0.0000 (  2801 PWs)   bands (ev):

   -76.3956 -76.3389 -39.8082 -39.5646 -39.5352 -39.5157 -39.4812 -39.4785
    10.6290  14.5039  16.5223  16.9324  17.1114  17.2690  17.3288  17.5181
    17.5671  17.6482  18.9241  21.1708  25.8904

     occupation numbers 
     1.0000   1.0000   1.0000   1.0000   1.0000   1.0000   1.0000   1.0000
     1.0000   1.0000   0.9999   0.9990   0.9978   0.9956   0.9944   0.9884
     0.9861   0.9815   0.6104   0.0019   0.0000

          k = 0.0000 0.1540 0.0768 (  2795 PWs)   bands (ev):

   -76.3934 -76.3411 -39.7969 -39.5618 -39.5331 -39.5251 -39.4862 -39.4807
    10.7803  14.4700  16.5356  16.7035  17.0392  17.1832  17.3237  17.4985
    17.6923  17.7736  18.9048  20.6237  26.8804

     occupation numbers 
     1.0000   1.0000   1.0000   1.0000   1.0000   1.0000   1.0000   1.0000
     1.0000   1.0000   0.9999   0.9997   0.9984   0.9970   0.9945   0.9892
     0.9784   0.9718   0.6209   0.0169   0.0000

          k = 0.0000 0.1540 0.1537 (  2797 PWs)   bands (ev):

   -76.3873 -76.3473 -39.7648 -39.5578 -39.5507 -39.5269 -39.4975 -39.4868
    11.2239  14.2658  16.3310  16.5850  16.7849  17.0975  17.2506  17.3898
    17.9559  18.0388  18.8364  19.7734  29.0507

     occupation numbers 
     1.0000   1.0000   1.0000   1.0000   1.0000   1.0000   1.0000   1.0000
     1.0000   1.0000   1.0000   0.9998   0.9995   0.9979   0.9959   0.9929
     0.9505   0.9373   0.6570   0.1786   0.0000

          k = 0.0000 0.1540 0.2305 (  2798 PWs)   bands (ev):

   -76.3781 -76.3565 -39.7165 -39.6027 -39.5409 -39.5178 -39.5114 -39.4960
    11.9238  13.6775  16.1502  16.4983  16.6907  17.0626  17.0839  17.2561
    18.2387  18.3660  18.7019  19.1625  31.7081

     occupation numbers 
     1.0000   1.0000   1.0000   1.0000   1.0000   1.0000   1.0000   1.0000
     1.0000   1.0000   1.0000   0.9999   0.9997   0.9982   0.9980   0.9958
     0.8943   0.8576   0.7240   0.4774   0.0000

          k = 0.0000 0.1540-0.3074 (  2810 PWs)   bands (ev):

   -76.3673 -76.3673 -39.6595 -39.6595 -39.5264 -39.5264 -39.5069 -39.5069
    12.7996  12.7996  16.2536  16.2536  16.8550  16.8550  17.1429  17.1429
    18.4975  18.4975  18.7303  18.7303  34.6132

     occupation numbers 
     1.0000   1.0000   1.0000   1.0000   1.0000   1.0000   1.0000   1.0000
     1.0000   1.0000   1.0000   1.0000   0.9993   0.9993   0.9974   0.9974
     0.8116   0.8116   0.7104   0.7104   0.0000

          k = 0.0000 0.2309 0.0000 (  2783 PWs)   bands (ev):

   -76.3857 -76.3347 -39.7855 -39.6119 -39.5635 -39.5499 -39.4913 -39.4869
    11.3661  14.8428  16.2563  16.2899  16.9761  17.3440  17.4861  17.6116
    17.6161  17.8711  18.9796  22.5405  26.0267

     occupation numbers 
     1.0000   1.0000   1.0000   1.0000   1.0000   1.0000   1.0000   1.0000
     1.0000   1.0000   1.0000   1.0000   0.9988   0.9941   0.9897   0.9837
     0.9834   0.9616   0.5800   0.0000   0.0000

          k = 0.0000 0.2309 0.0768 (  2784 PWs)   bands (ev):

   -76.3837 -76.3366 -39.7774 -39.6076 -39.5719 -39.5475 -39.4956 -39.4893
    11.5065  14.8377  16.1138  16.3185  16.9128  17.3003  17.3434  17.6985
    17.8138  17.8550  18.9516  21.7369  27.1963

     occupation numbers 
     1.0000   1.0000   1.0000   1.0000   1.0000   1.0000   1.0000   1.0000
     1.0000   1.0000   1.0000   1.0000   0.9991   0.9950   0.9941   0.9780
     0.9679   0.9635   0.5954   0.0001   0.0000

          k = 0.0000 0.2309 0.1537 (  2788 PWs)   bands (ev):

   -76.3782 -76.3422 -39.7539 -39.6023 -39.5886 -39.5407 -39.5081 -39.4961
    11.9165  14.6969  15.8674  16.3921  16.7126  17.2057  17.2665  17.6674
    17.9952  18.1096  18.8628  20.5336  29.4937

     occupation numbers 
     1.0000   1.0000   1.0000   1.0000   1.0000   1.0000   1.0000   1.0000
     1.0000   1.0000   1.0000   0.9999   0.9997   0.9966   0.9957   0.9802
     0.9445   0.9240   0.6432   0.0230   0.0000

          k = 0.0000 0.2309 0.2305 (  2793 PWs)   bands (ev):

   -76.3700 -76.3504 -39.7188 -39.6349 -39.5727 -39.5305 -39.5271 -39.5064
    12.5587  14.1569  15.8657  16.3601  16.6058  17.0195  17.2972  17.5279
    18.2450  18.4786  18.7083  19.6025  32.1780

     occupation numbers 
     1.0000   1.0000   1.0000   1.0000   1.0000   1.0000   1.0000   1.0000
     1.0000   1.0000   1.0000   1.0000   0.9998   0.9985   0.9951   0.9879
     0.8927   0.8187   0.7210   0.2486   0.0000

          k = 0.0000 0.2309-0.3074 (  2798 PWs)   bands (ev):

   -76.3602 -76.3602 -39.6769 -39.6769 -39.5499 -39.5499 -39.5184 -39.5184
    13.3555  13.3555  16.0864  16.0864  16.7923  16.7923  17.3915  17.3915
    18.4950  18.4950  18.9531  18.9531  34.9695

     occupation numbers 
     1.0000   1.0000   1.0000   1.0000   1.0000   1.0000   1.0000   1.0000
     1.0000   1.0000   1.0000   1.0000   0.9995   0.9995   0.9928   0.9928
     0.8126   0.8126   0.5946   0.5946   0.0000

          k = 0.0000 0.3079 0.0000 (  2796 PWs)   bands (ev):

   -76.3739 -76.3302 -39.7570 -39.6667 -39.6175 -39.5663 -39.5054 -39.4968
    12.3016  15.0319  15.7119  16.1785  16.9237  17.1631  17.3168  18.0199
    18.0385  18.2383  19.0257  24.0220  26.2263

     occupation numbers 
     1.0000   1.0000   1.0000   1.0000   1.0000   1.0000   1.0000   1.0000
     1.0000   1.0000   1.0000   1.0000   0.9991   0.9972   0.9947   0.9405
     0.9373   0.8944   0.5544   0.0000   0.0000

          k = 0.0000 0.3079 0.0768 (  2789 PWs)   bands (ev):

   -76.3722 -76.3319 -39.7557 -39.6578 -39.6250 -39.5637 -39.5081 -39.4995
    12.4191  15.0515  15.6332  16.2085  16.8227  17.1947  17.3489  18.0652
    18.0729  18.2013  18.9910  22.8580  27.6783

     occupation numbers 
     1.0000   1.0000   1.0000   1.0000   1.0000   1.0000   1.0000   1.0000
     1.0000   1.0000   1.0000   1.0000   0.9994   0.9968   0.9939   0.9326
     0.9311   0.9037   0.5737   0.0000   0.0000

          k = 0.0000 0.3079 0.1537 (  2788 PWs)   bands (ev):

   -76.3675 -76.3366 -39.7491 -39.6539 -39.6260 -39.5562 -39.5179 -39.5070
    12.7580  14.9582  15.5425  16.2715  16.6710  17.2883  17.3084  18.0175
    18.2230  18.2658  18.8915  21.3287  30.0464

     occupation numbers 
     1.0000   1.0000   1.0000   1.0000   1.0000   1.0000   1.0000   1.0000
     1.0000   1.0000   1.0000   1.0000   0.9997   0.9953   0.9948   0.9409
     0.8983   0.8871   0.6280   0.0009   0.0000

          k = 0.0000 0.3079 0.2305 (  2788 PWs)   bands (ev):

   -76.3604 -76.3437 -39.7337 -39.6808 -39.5960 -39.5449 -39.5367 -39.5183
    13.2760  14.5125  15.6983  16.2039  16.6892  17.1397  17.4379  17.8362
    18.3743  18.6347  18.7403  20.1007  32.2005

     occupation numbers 
     1.0000   1.0000   1.0000   1.0000   1.0000   1.0000   1.0000   1.0000
     1.0000   1.0000   1.0000   1.0000   0.9997   0.9975   0.9914   0.9655
     0.8550   0.7548   0.7055   0.0832   0.0000

          k = 0.0000 0.3079-0.3074 (  2784 PWs)   bands (ev):

   -76.3521 -76.3521 -39.7098 -39.7098 -39.5638 -39.5638 -39.5316 -39.5316
    13.8974  13.8974  15.9629  15.9629  16.9001  16.9001  17.6292  17.6292
    18.5586  18.5586  19.2217  19.2217  33.2029

     occupation numbers 
     1.0000   1.0000   1.0000   1.0000   1.0000   1.0000   1.0000   1.0000
     1.0000   1.0000   1.0000   1.0000   0.9992   0.9992   0.9826   0.9826
     0.7874   0.7874   0.4442   0.4442   0.0000

          k = 0.0000 0.3849 0.0000 (  2806 PWs)   bands (ev):

   -76.3619 -76.3266 -39.7257 -39.7194 -39.6684 -39.5818 -39.5228 -39.5066
    13.2838  14.9618  15.3066  16.2337  17.0035  17.0438  17.1599  18.4655
    18.6000  18.6157  19.0577  25.5955  26.1871

     occupation numbers 
     1.0000   1.0000   1.0000   1.0000   1.0000   1.0000   1.0000   1.0000
     1.0000   1.0000   1.0000   1.0000   0.9986   0.9984   0.9972   0.8236
     0.7700   0.7632   0.5365   0.0000   0.0000

          k = 0.0000 0.3849 0.0768 (  2798 PWs)   bands (ev):

   -76.3605 -76.3280 -39.7490 -39.6919 -39.6719 -39.5789 -39.5236 -39.5095
    13.3524  14.9734  15.3182  16.1687  16.9657  17.0582  17.3569  18.4815
    18.5569  18.5702  19.0238  23.8814  27.8891

     occupation numbers 
     1.0000   1.0000   1.0000   1.0000   1.0000   1.0000   1.0000   1.0000
     1.0000   1.0000   1.0000   1.0000   0.9989   0.9982   0.9937   0.8176
     0.7881   0.7826   0.5554   0.0000   0.0000

          k = 0.0000 0.3849 0.1537 (  2788 PWs)   bands (ev):

   -76.3567 -76.3318 -39.7628 -39.7028 -39.6419 -39.5708 -39.5288 -39.5176
    13.5487  14.8847  15.3968  16.1085  16.9393  17.2169  17.6245  18.3639
    18.5459  18.5527  18.9412  22.1270  29.0520

     occupation numbers 
     1.0000   1.0000   1.0000   1.0000   1.0000   1.0000   1.0000   1.0000
     1.0000   1.0000   1.0000   1.0000   0.9990   0.9965   0.9829   0.8583
     0.7925   0.7898   0.6011   0.0000   0.0000

          k = 0.0000 0.3849 0.2305 (  2799 PWs)   bands (ev):

   -76.3510 -76.3375 -39.7629 -39.7280 -39.6024 -39.5586 -39.5430 -39.5299
    13.8470  14.5885  15.6004  16.0388  17.0831  17.4631  17.6487  18.0866
    18.6285  18.8328  18.8383  20.6666  29.8062

     occupation numbers 
     1.0000   1.0000   1.0000   1.0000   1.0000   1.0000   1.0000   1.0000
     1.0000   1.0000   1.0000   1.0000   0.9980   0.9905   0.9814   0.9285
     0.7575   0.6590   0.6561   0.0145   0.0000

          k = 0.0000 0.3849-0.3074 (  2796 PWs)   bands (ev):

   -76.3443 -76.3443 -39.7502 -39.7502 -39.5680 -39.5680 -39.5442 -39.5442
    14.2109  14.2109  15.8474  15.8474  17.3890  17.3890  17.7674  17.7674
    18.7303  18.7303  19.5569  19.5569  30.6558

     occupation numbers 
     1.0000   1.0000   1.0000   1.0000   1.0000   1.0000   1.0000   1.0000
     1.0000   1.0000   1.0000   1.0000   0.9929   0.9929   0.9723   0.9723
     0.7104   0.7104   0.2695   0.2695   0.0000

          k = 0.0000 0.4619 0.0000 (  2798 PWs)   bands (ev):

   -76.3516 -76.3247 -39.7608 -39.7077 -39.6961 -39.5937 -39.5416 -39.5143
    14.0545  14.7966  15.0389  16.4376  16.8857  17.0395  17.2279  18.8063
    18.9434  19.0767  19.4229  24.8763  27.2094

     occupation numbers 
     1.0000   1.0000   1.0000   1.0000   1.0000   1.0000   1.0000   1.0000
     1.0000   1.0000   1.0000   0.9999   0.9992   0.9984   0.9963   0.6726
     0.5999   0.5258   0.3354   0.0000   0.0000

          k = 0.0000 0.4619 0.0768 (  2805 PWs)   bands (ev):

   -76.3506 -76.3257 -39.7730 -39.7185 -39.6743 -39.5907 -39.5402 -39.5174
    14.0301  14.7831  15.1934  16.1357  16.9510  17.2089  17.4729  18.8074
    18.8555  19.0683  19.3346  24.1416  27.0908

     occupation numbers 
     1.0000   1.0000   1.0000   1.0000   1.0000   1.0000   1.0000   1.0000
     1.0000   1.0000   1.0000   1.0000   0.9989   0.9966   0.9902   0.6720
     0.6471   0.5305   0.3821   0.0000   0.0000

          k = 0.0000 0.4619 0.1537 (  2790 PWs)   bands (ev):

   -76.3477 -76.3286 -39.7885 -39.7408 -39.6363 -39.5821 -39.5402 -39.5260
    14.0236  14.7420  15.4098  15.9069  17.1412  17.2445  18.1735  18.5781
    18.8513  19.0406  19.0790  22.7055  27.2747

     occupation numbers 
     1.0000   1.0000   1.0000   1.0000   1.0000   1.0000   1.0000   1.0000
     1.0000   1.0000   1.0000   1.0000   0.9975   0.9960   0.9102   0.7793
     0.6493   0.5461   0.5245   0.0000   0.0000

          k = 0.0000 0.4619 0.2305 (  2801 PWs)   bands (ev):

   -76.3433 -76.3330 -39.7933 -39.7657 -39.5985 -39.5693 -39.5483 -39.5389
    14.1099  14.5539  15.5495  15.8829  17.4383  17.5216  18.2117  18.5659
    18.8944  18.9974  19.0897  21.2776  27.7441

     occupation numbers 
     1.0000   1.0000   1.0000   1.0000   1.0000   1.0000   1.0000   1.0000
     1.0000   1.0000   1.0000   1.0000   0.9914   0.9882   0.9011   0.7844
     0.6264   0.5701   0.5185   0.0012   0.0000

          k = 0.0000 0.4619-0.3074 (  2802 PWs)   bands (ev):

   -76.3382 -76.3382 -39.7849 -39.7849 -39.5679 -39.5679 -39.5541 -39.5541
    14.3010  14.3010  15.7417  15.7417  17.8108  17.8108  18.0471  18.0471
    18.9460  18.9460  20.0566  20.0566  28.4401

     occupation numbers 
     1.0000   1.0000   1.0000   1.0000   1.0000   1.0000   1.0000   1.0000
     1.0000   1.0000   1.0000   1.0000   0.9682   0.9682   0.9358   0.9358
     0.5985   0.5985   0.0932   0.0932   0.0000

          k = 0.0000 0.5389 0.0000 (  2794 PWs)   bands (ev):

   -76.3453 -76.3243 -39.7835 -39.7290 -39.6759 -39.6001 -39.5558 -39.5186
    14.4499  14.6467  14.9061  16.6909  16.8233  16.9743  17.3339  18.9907
    19.0852  19.1422  20.4691  23.1342  28.6125

     occupation numbers 
     1.0000   1.0000   1.0000   1.0000   1.0000   1.0000   1.0000   1.0000
     1.0000   1.0000   1.0000   0.9997   0.9994   0.9988   0.9943   0.5739
     0.5210   0.4888   0.0284   0.0000   0.0000

          k = 0.0000 0.5389 0.0768 (  2795 PWs)   bands (ev):

   -76.3445 -76.3251 -39.7924 -39.7388 -39.6602 -39.5970 -39.5527 -39.5217
    14.3065  14.6440  15.1892  16.1392  16.8932  17.3263  17.6594  18.9288
    19.0373  19.1473  20.3349  22.9638  27.8647

     occupation numbers 
     1.0000   1.0000   1.0000   1.0000   1.0000   1.0000   1.0000   1.0000
     1.0000   1.0000   1.0000   1.0000   0.9992   0.9945   0.9807   0.6079
     0.5479   0.4860   0.0432   0.0000   0.0000

          k = 0.0000 0.5389 0.1537 (  2797 PWs)   bands (ev):

   -76.3422 -76.3274 -39.8062 -39.7616 -39.6273 -39.5882 -39.5488 -39.5306
    14.1669  14.6581  15.5442  15.7250  17.0969  17.3924  18.5421  18.6504
    19.0400  19.1368  19.9500  22.4359  27.0848

     occupation numbers 
     1.0000   1.0000   1.0000   1.0000   1.0000   1.0000   1.0000   1.0000
     1.0000   1.0000   1.0000   1.0000   0.9979   0.9928   0.7941   0.7478
     0.5464   0.4919   0.1209   0.0000   0.0000

          k = 0.0000 0.5389 0.2305 (  2798 PWs)   bands (ev):

   -76.3388 -76.3308 -39.8116 -39.7864 -39.5935 -39.5751 -39.5522 -39.5439
    14.1679  14.5253  15.5434  15.7839  17.4158  17.7577  18.2513  19.0616
    19.0764  19.1153  19.7491  21.6071  26.8051

     occupation numbers 
     1.0000   1.0000   1.0000   1.0000   1.0000   1.0000   1.0000   1.0000
     1.0000   1.0000   1.0000   1.0000   0.9921   0.9732   0.8910   0.5343
     0.5259   0.5040   0.1878   0.0002   0.0000

          k = 0.0000 0.5389-0.3074 (  2808 PWs)   bands (ev):

   -76.3348 -76.3348 -39.8047 -39.8047 -39.5671 -39.5671 -39.5595 -39.5595
    14.3073  14.3073  15.6805  15.6805  17.8172  17.8172  18.4295  18.4295
    19.0885  19.0885  20.6401  20.6401  26.9815

     occupation numbers 
     1.0000   1.0000   1.0000   1.0000   1.0000   1.0000   1.0000   1.0000
     1.0000   1.0000   1.0000   1.0000   0.9675   0.9675   0.8365   0.8365
     0.5191   0.5191   0.0159   0.0159   0.0000

          k = 0.0667 0.1155 0.0000 (  2799 PWs)   bands (ev):

   -76.3977 -76.3399 -39.8130 -39.5529 -39.5347 -39.5027 -39.4792 -39.4778
    10.4759  14.4189  16.5829  17.1468  17.1719  17.2082  17.2218  17.4941
    17.5157  17.7446  18.9043  20.8257  25.8669

     occupation numbers 
     1.0000   1.0000   1.0000   1.0000   1.0000   1.0000   1.0000   1.0000
     1.0000   1.0000   0.9998   0.9974   0.9971   0.9966   0.9964   0.9894
     0.9885   0.9743   0.6211   0.0080   0.0000

          k = 0.0667 0.1155 0.0768 (  2798 PWs)   bands (ev):

   -76.3955 -76.3421 -39.8012 -39.5503 -39.5332 -39.5124 -39.4837 -39.4799
    10.6291  14.3792  16.5919  16.8615  17.0560  17.1327  17.3293  17.4413
    17.7053  17.8009  18.8881  20.3352  26.8236

     occupation numbers 
     1.0000   1.0000   1.0000   1.0000   1.0000   1.0000   1.0000   1.0000
     1.0000   1.0000   0.9998   0.9993   0.9983   0.9976   0.9944   0.9913
     0.9775   0.9692   0.6298   0.0432   0.0000

          k = 0.0667 0.1155 0.1537 (  2799 PWs)   bands (ev):

   -76.3892 -76.3484 -39.7675 -39.5476 -39.5430 -39.5245 -39.4930 -39.4859
    11.0781  14.1619  16.4669  16.6300  16.7943  17.0530  17.2654  17.3299
    17.9953  18.0060  18.8276  19.5833  28.9639

     occupation numbers 
     1.0000   1.0000   1.0000   1.0000   1.0000   1.0000   1.0000   1.0000
     1.0000   1.0000   0.9999   0.9998   0.9995   0.9983   0.9957   0.9944
     0.9445   0.9428   0.6616   0.2573   0.0000

          k = 0.0667 0.1155 0.2305 (  2796 PWs)   bands (ev):

   -76.3799 -76.3578 -39.7169 -39.5971 -39.5321 -39.5173 -39.5041 -39.4947
    11.7871  13.5638  16.2389  16.5253  16.7185  17.0226  17.0811  17.1979
    18.2564  18.3343  18.7031  19.0600  31.6098

     occupation numbers 
     1.0000   1.0000   1.0000   1.0000   1.0000   1.0000   1.0000   1.0000
     1.0000   1.0000   1.0000   0.9999   0.9997   0.9985   0.9981   0.9968
     0.8896   0.8675   0.7234   0.5352   0.0000

          k = 0.0667 0.1155-0.3074 (  2810 PWs)   bands (ev):

   -76.3688 -76.3688 -39.6570 -39.6570 -39.5197 -39.5197 -39.5046 -39.5046
    12.6748  12.6748  16.3036  16.3036  16.8665  16.8665  17.0910  17.0910
    18.5027  18.5027  18.6816  18.6816  34.5126

     occupation numbers 
     1.0000   1.0000   1.0000   1.0000   1.0000   1.0000   1.0000   1.0000
     1.0000   1.0000   1.0000   1.0000   0.9993   0.9993   0.9980   0.9980
     0.8096   0.8096   0.7335   0.7335   0.0000

          k = 0.0667 0.1925 0.0000 (  2795 PWs)   bands (ev):

   -76.3895 -76.3363 -39.7944 -39.5902 -39.5595 -39.5311 -39.4873 -39.4866
    11.0786  14.7380  16.3394  16.5002  17.0476  17.3062  17.4170  17.5042
    17.6367  17.8007  18.9473  22.0462  25.9737

     occupation numbers 
     1.0000   1.0000   1.0000   1.0000   1.0000   1.0000   1.0000   1.0000
     1.0000   1.0000   1.0000   0.9999   0.9983   0.9949   0.9921   0.9889
     0.9822   0.9692   0.5978   0.0000   0.0000

          k = 0.0667 0.1925 0.0768 (  2795 PWs)   bands (ev):

   -76.3874 -76.3383 -39.7848 -39.5866 -39.5623 -39.5354 -39.4916 -39.4886
    11.2240  14.7223  16.3221  16.3633  17.0120  17.1851  17.3644  17.5742
    17.7918  17.8234  18.9249  21.3444  27.0686

     occupation numbers 
     1.0000   1.0000   1.0000   1.0000   1.0000   1.0000   1.0000   1.0000
     1.0000   1.0000   1.0000   1.0000   0.9986   0.9969   0.9935   0.9857
     0.9701   0.9669   0.6100   0.0008   0.0000

          k = 0.0667 0.1925 0.1537 (  2790 PWs)   bands (ev):

   -76.3817 -76.3441 -39.7575 -39.5836 -39.5741 -39.5371 -39.5025 -39.4950
    11.6493  14.5574  16.0201  16.4303  16.7631  17.1607  17.2366  17.5531
    18.0023  18.0652  18.8501  20.2651  29.3203

     occupation numbers 
     1.0000   1.0000   1.0000   1.0000   1.0000   1.0000   1.0000   1.0000
     1.0000   1.0000   1.0000   0.9999   0.9996   0.9972   0.9962   0.9868
     0.9434   0.9326   0.6499   0.0530   0.0000

          k = 0.0667 0.1925 0.2305 (  2794 PWs)   bands (ev):

   -76.3731 -76.3527 -39.7167 -39.6209 -39.5597 -39.5327 -39.5159 -39.5045
    12.3184  13.9941  15.9548  16.4178  16.6035  16.9917  17.2419  17.4298
    18.2576  18.4160  18.7140  19.4433  32.0038

     occupation numbers 
     1.0000   1.0000   1.0000   1.0000   1.0000   1.0000   1.0000   1.0000
     1.0000   1.0000   1.0000   0.9999   0.9998   0.9987   0.9961   0.9917
     0.8893   0.8411   0.7182   0.3250   0.0000

          k = 0.0667 0.1925-0.3074 (  2802 PWs)   bands (ev):

   -76.3629 -76.3629 -39.6686 -39.6686 -39.5421 -39.5421 -39.5147 -39.5147
    13.1532  13.1532  16.1437  16.1437  16.7775  16.7775  17.3133  17.3133
    18.4986  18.4986  18.8703  18.8703  34.9023

     occupation numbers 
     1.0000   1.0000   1.0000   1.0000   1.0000   1.0000   1.0000   1.0000
     1.0000   1.0000   1.0000   1.0000   0.9995   0.9995   0.9947   0.9947
     0.8112   0.8112   0.6393   0.6393   0.0000

          k = 0.0667 0.2694 0.0000 (  2782 PWs)   bands (ev):

   -76.3786 -76.3319 -39.7687 -39.6398 -39.6015 -39.5555 -39.4994 -39.4972
    11.9219  15.0339  15.9312  16.1324  16.9432  17.1217  17.4830  17.7065
    17.9059  18.1871  18.9894  23.4348  26.1652

     occupation numbers 
     1.0000   1.0000   1.0000   1.0000   1.0000   1.0000   1.0000   1.0000
     1.0000   1.0000   1.0000   1.0000   0.9990   0.9977   0.9898   0.9774
     0.9573   0.9070   0.5746   0.0000   0.0000

          k = 0.0667 0.2694 0.0768 (  2786 PWs)   bands (ev):

   -76.3768 -76.3337 -39.7637 -39.6339 -39.6070 -39.5558 -39.5033 -39.4986
    12.0512  15.0504  15.8157  16.1674  16.8562  17.1634  17.3913  17.7793
    17.9970  18.1611  18.9635  22.4332  27.4901

     occupation numbers 
     1.0000   1.0000   1.0000   1.0000   1.0000   1.0000   1.0000   1.0000
     1.0000   1.0000   1.0000   1.0000   0.9993   0.9972   0.9928   0.9712
     0.9443   0.9130   0.5889   0.0000   0.0000

          k = 0.0667 0.2694 0.1537 (  2785 PWs)   bands (ev):

   -76.3718 -76.3388 -39.7487 -39.6323 -39.6102 -39.5530 -39.5134 -39.5050
    12.4269  14.9491  15.6450  16.2531  16.6753  17.1524  17.3156  17.8354
    18.1707  18.2208  18.8836  21.0304  29.8564

     occupation numbers 
     1.0000   1.0000   1.0000   1.0000   1.0000   1.0000   1.0000   1.0000
     1.0000   1.0000   1.0000   1.0000   0.9997   0.9973   0.9947   0.9656
     0.9108   0.8988   0.6322   0.0035   0.0000

          k = 0.0667 0.2694 0.2305 (  2786 PWs)   bands (ev):

   -76.3642 -76.3463 -39.7246 -39.6604 -39.5869 -39.5477 -39.5278 -39.5157
    13.0094  14.4394  15.7571  16.2689  16.5610  16.9635  17.4072  17.7205
    18.3572  18.5533  18.7575  19.9133  32.5017

     occupation numbers 
     1.0000   1.0000   1.0000   1.0000   1.0000   1.0000   1.0000   1.0000
     1.0000   1.0000   1.0000   1.0000   0.9999   0.9989   0.9924   0.9763
     0.8604   0.7895   0.6971   0.1317   0.0000

          k = 0.0667 0.2694-0.3074 (  2794 PWs)   bands (ev):

   -76.3553 -76.3553 -39.6937 -39.6937 -39.5608 -39.5608 -39.5272 -39.5272
    13.7222  13.7222  16.0221  16.0221  16.7307  16.7307  17.5549  17.5549
    18.5578  18.5578  19.1191  19.1191  34.5237

     occupation numbers 
     1.0000   1.0000   1.0000   1.0000   1.0000   1.0000   1.0000   1.0000
     1.0000   1.0000   1.0000   1.0000   0.9996   0.9996   0.9867   0.9867
     0.7877   0.7877   0.5018   0.5018   0.0000

          k = 0.0667 0.3464 0.0000 (  2802 PWs)   bands (ev):

   -76.3667 -76.3279 -39.7386 -39.6930 -39.6488 -39.5761 -39.5153 -39.5082
    12.9006  15.0868  15.4829  16.0965  16.9643  16.9756  17.3049  18.0997
    18.3386  18.6568  19.0221  24.9469  26.3698

     occupation numbers 
     1.0000   1.0000   1.0000   1.0000   1.0000   1.0000   1.0000   1.0000
     1.0000   1.0000   1.0000   1.0000   0.9989   0.9988   0.9949   0.9259
     0.8662   0.7449   0.5564   0.0000   0.0000

          k = 0.0667 0.3464 0.0768 (  2794 PWs)   bands (ev):

   -76.3652 -76.3294 -39.7460 -39.6787 -39.6533 -39.5747 -39.5178 -39.5095
    12.9965  15.1144  15.4336  16.1181  16.8221  17.1197  17.3159  18.1058
    18.3837  18.5849  19.0127  23.5200  28.0167

     occupation numbers 
     1.0000   1.0000   1.0000   1.0000   1.0000   1.0000   1.0000   1.0000
     1.0000   1.0000   1.0000   1.0000   0.9994   0.9977   0.9947   0.9247
     0.8519   0.7764   0.5617   0.0000   0.0000

          k = 0.0667 0.3464 0.1537 (  2796 PWs)   bands (ev):

   -76.3610 -76.3336 -39.7519 -39.6819 -39.6362 -39.5693 -39.5261 -39.5148
    13.2700  15.0170  15.4415  16.1773  16.7077  17.2575  17.3207  18.1277
    18.4577  18.5114  18.9694  21.8440  30.0812

     occupation numbers 
     1.0000   1.0000   1.0000   1.0000   1.0000   1.0000   1.0000   1.0000
     1.0000   1.0000   1.0000   1.0000   0.9997   0.9958   0.9946   0.9202
     0.8264   0.8062   0.5857   0.0001   0.0000

          k = 0.0667 0.3464 0.2305 (  2791 PWs)   bands (ev):

   -76.3547 -76.3399 -39.7467 -39.7065 -39.6013 -39.5610 -39.5393 -39.5256
    13.6798  14.6420  15.6576  16.1422  16.7411  17.1613  17.4819  17.9773
    18.5664  18.7590  18.9079  20.4683  31.1073

     occupation numbers 
     1.0000   1.0000   1.0000   1.0000   1.0000   1.0000   1.0000   1.0000
     1.0000   1.0000   1.0000   1.0000   0.9996   0.9972   0.9898   0.9473
     0.7842   0.6963   0.6192   0.0285   0.0000

          k = 0.0667 0.3464-0.3074 (  2800 PWs)   bands (ev):

   -76.3473 -76.3473 -39.7303 -39.7303 -39.5708 -39.5708 -39.5391 -39.5391
    14.1629  14.1629  15.9287  15.9287  16.9462  16.9462  17.7162  17.7162
    18.7310  18.7310  19.4496  19.4496  31.9891

     occupation numbers 
     1.0000   1.0000   1.0000   1.0000   1.0000   1.0000   1.0000   1.0000
     1.0000   1.0000   1.0000   1.0000   0.9990   0.9990   0.9766   0.9766
     0.7100   0.7100   0.3218   0.3218   0.0000

          k = 0.0667 0.4234 0.0000 (  2799 PWs)   bands (ev):

   -76.3554 -76.3253 -39.7398 -39.7076 -39.6904 -39.5926 -39.5340 -39.5178
    13.8067  14.9416  15.1634  16.2232  16.8538  17.1342  17.1456  18.5581
    18.7189  19.0433  19.2536  25.8268  26.5447

     occupation numbers 
     1.0000   1.0000   1.0000   1.0000   1.0000   1.0000   1.0000   1.0000
     1.0000   1.0000   1.0000   1.0000   0.9993   0.9975   0.9974   0.7876
     0.7159   0.5445   0.4264   0.0000   0.0000

          k = 0.0667 0.4234 0.0768 (  2798 PWs)   bands (ev):

   -76.3543 -76.3264 -39.7566 -39.7041 -39.6774 -39.5903 -39.5343 -39.5195
    13.8331  14.9448  15.2332  16.1016  16.9028  17.1464  17.3235  18.5270
    18.7493  18.9104  19.2724  24.3490  27.4829

     occupation numbers 
     1.0000   1.0000   1.0000   1.0000   1.0000   1.0000   1.0000   1.0000
     1.0000   1.0000   1.0000   1.0000   0.9992   0.9974   0.9945   0.8001
     0.7011   0.6178   0.4160   0.0000   0.0000

          k = 0.0667 0.4234 0.1537 (  2791 PWs)   bands (ev):

   -76.3510 -76.3297 -39.7730 -39.7236 -39.6398 -39.5825 -39.5393 -39.5238
    13.9244  14.8763  15.3788  16.0209  16.9315  17.2681  17.6657  18.4176
    18.6854  18.8476  19.2529  22.6293  28.1006

     occupation numbers 
     1.0000   1.0000   1.0000   1.0000   1.0000   1.0000   1.0000   1.0000
     1.0000   1.0000   1.0000   1.0000   0.9990   0.9956   0.9803   0.8405
     0.7317   0.6512   0.4268   0.0000   0.0000

          k = 0.0667 0.4234 0.2305 (  2799 PWs)   bands (ev):

   -76.3461 -76.3346 -39.7767 -39.7477 -39.6036 -39.5707 -39.5505 -39.5328
    14.0972  14.6401  15.5841  15.9973  17.0884  17.4729  17.7996  18.1304
    18.7432  18.9964  19.3027  21.1376  28.7483

     occupation numbers 
     1.0000   1.0000   1.0000   1.0000   1.0000   1.0000   1.0000   1.0000
     1.0000   1.0000   1.0000   1.0000   0.9980   0.9902   0.9693   0.9197
     0.7041   0.5707   0.3993   0.0022   0.0000

          k = 0.0667 0.4234-0.3074 (  2804 PWs)   bands (ev):

   -76.3404 -76.3404 -39.7674 -39.7674 -39.5763 -39.5763 -39.5473 -39.5473
    14.3480  14.3480  15.8247  15.8247  17.4240  17.4240  17.8408  17.8408
    18.9263  18.9263  19.9741  19.9741  29.5589

     occupation numbers 
     1.0000   1.0000   1.0000   1.0000   1.0000   1.0000   1.0000   1.0000
     1.0000   1.0000   1.0000   1.0000   0.9918   0.9918   0.9650   0.9650
     0.6092   0.6092   0.1142   0.1142   0.0000

          k = 0.0667 0.5004 0.0000 (  2786 PWs)   bands (ev):

   -76.3469 -76.3243 -39.7717 -39.7185 -39.6814 -39.6035 -39.5517 -39.5244
    14.3792  14.7796  14.9729  16.4763  16.7984  17.0033  17.3031  18.9076
    18.9880  19.0545  20.1309  24.0690  28.1227

     occupation numbers 
     1.0000   1.0000   1.0000   1.0000   1.0000   1.0000   1.0000   1.0000
     1.0000   1.0000   1.0000   0.9999   0.9995   0.9986   0.9950   0.6194
     0.5754   0.5382   0.0769   0.0000   0.0000

          k = 0.0667 0.5004 0.0768 (  2801 PWs)   bands (ev):

   -76.3461 -76.3252 -39.7813 -39.7287 -39.6646 -39.6001 -39.5500 -39.5264
    14.2899  14.7677  15.2045  16.1017  16.8552  17.3156  17.4509  18.8527
    18.9911  19.0012  20.0673  23.7605  27.3980

     occupation numbers 
     1.0000   1.0000   1.0000   1.0000   1.0000   1.0000   1.0000   1.0000
     1.0000   1.0000   1.0000   1.0000   0.9993   0.9947   0.9910   0.6485
     0.5737   0.5680   0.0907   0.0000   0.0000

          k = 0.0667 0.5004 0.1537 (  2801 PWs)   bands (ev):

   -76.3436 -76.3276 -39.7956 -39.7513 -39.6326 -39.5897 -39.5510 -39.5307
    14.1994  14.7654  15.4790  15.8352  16.9354  17.4449  18.0642  18.5895
    18.9220  19.0671  19.9217  22.8773  26.9753

     occupation numbers 
     1.0000   1.0000   1.0000   1.0000   1.0000   1.0000   1.0000   1.0000
     1.0000   1.0000   1.0000   1.0000   0.9990   0.9912   0.9327   0.7745
     0.6116   0.5312   0.1292   0.0000   0.0000

          k = 0.0667 0.5004 0.2305 (  2803 PWs)   bands (ev):

   -76.3399 -76.3313 -39.8011 -39.7758 -39.6028 -39.5736 -39.5601 -39.5375
    14.2279  14.6108  15.5622  15.8751  17.1745  17.7578  18.1125  18.4391
    18.9045  19.1275  20.0050  21.7476  27.1163

     occupation numbers 
     1.0000   1.0000   1.0000   1.0000   1.0000   1.0000   1.0000   1.0000
     1.0000   1.0000   1.0000   1.0000   0.9971   0.9732   0.9234   0.8331
     0.6210   0.4971   0.1060   0.0001   0.0000

          k = 0.0667 0.5004-0.3074 (  2798 PWs)   bands (ev):

   -76.3356 -76.3356 -39.7940 -39.7940 -39.5804 -39.5804 -39.5510 -39.5510
    14.3818  14.3818  15.7433  15.7433  17.6205  17.6205  18.1910  18.1910
    19.0182  19.0182  20.7076  20.7077  27.6268

     occupation numbers 
     1.0000   1.0000   1.0000   1.0000   1.0000   1.0000   1.0000   1.0000
     1.0000   1.0000   1.0000   1.0000   0.9832   0.9832   0.9061   0.9061
     0.5586   0.5586   0.0125   0.0125   0.0000

          k = 0.0667 0.5774 0.0000 (  2796 PWs)   bands (ev):

   -76.3436 -76.3244 -39.7830 -39.7284 -39.6701 -39.6073 -39.5601 -39.5268
    14.5989  14.6631  14.9097  16.6273  16.7861  16.9505  17.3591  19.0202
    19.0579  19.0945  20.9250  22.8611  29.0495

     occupation numbers 
     1.0000   1.0000   1.0000   1.0000   1.0000   1.0000   1.0000   1.0000
     1.0000   1.0000   1.0000   0.9998   0.9995   0.9989   0.9937   0.5575
     0.5363   0.5157   0.0054   0.0000   0.0000

          k = 0.0667 0.5774 0.0768 (  2804 PWs)   bands (ev):

   -76.3428 -76.3251 -39.7913 -39.7382 -39.6565 -39.6032 -39.5575 -39.5289
    14.4024  14.6928  15.2225  16.1141  16.8213  17.3774  17.5497  18.9195
    19.0613  19.0883  20.8210  22.7600  28.5055

     occupation numbers 
     1.0000   1.0000   1.0000   1.0000   1.0000   1.0000   1.0000   1.0000
     1.0000   1.0000   1.0000   1.0000   0.9994   0.9932   0.9869   0.6129
     0.5344   0.5192   0.0082   0.0000   0.0000

          k = 0.0667 0.5774 0.1537 (  2813 PWs)   bands (ev):

   -76.3407 -76.3272 -39.8046 -39.7611 -39.6289 -39.5909 -39.5566 -39.5334
    14.2483  14.7240  15.6457  15.6644  16.9129  17.5195  18.2215  18.6227
    19.0706  19.1133  20.5763  22.4347  27.7551

     occupation numbers 
     1.0000   1.0000   1.0000   1.0000   1.0000   1.0000   1.0000   1.0000
     1.0000   1.0000   1.0000   1.0000   0.9991   0.9883   0.8987   0.7601
     0.5292   0.5051   0.0199   0.0000   0.0000

          k = 0.0667 0.5774 0.2305 (  2804 PWs)   bands (ev):

   -76.3376 -76.3303 -39.8102 -39.7857 -39.6029 -39.5715 -39.5657 -39.5393
    14.2442  14.5982  15.5652  15.8260  17.1734  17.8869  18.1308  18.6265
    19.0447  19.1122  20.5698  21.8649  27.0359

     occupation numbers 
     1.0000   1.0000   1.0000   1.0000   1.0000   1.0000   1.0000   1.0000
     1.0000   1.0000   1.0000   1.0000   0.9971   0.9597   0.9196   0.7584
     0.5437   0.5058   0.0203   0.0001   0.0000

          k = 0.0667 0.5774-0.3074 (  2794 PWs)   bands (ev):

   -76.3340 -76.3340 -39.8036 -39.8036 -39.5820 -39.5820 -39.5519 -39.5519
    14.3808  14.3808  15.7137  15.7137  17.6371  17.6371  18.3914  18.3914
    19.0280  19.0280  21.1414  21.1414  26.7977

     occupation numbers 
     1.0000   1.0000   1.0000   1.0000   1.0000   1.0000   1.0000   1.0000
     1.0000   1.0000   1.0000   1.0000   0.9822   0.9822   0.8494   0.8494
     0.5531   0.5531   0.0021   0.0021   0.0000

          k = 0.1333 0.2309 0.0000 (  2784 PWs)   bands (ev):

   -76.3802 -76.3325 -39.7727 -39.6239 -39.6041 -39.5460 -39.5011 -39.4974
    11.7923  15.0478  16.0317  16.0834  16.9787  17.0669  17.5551  17.5743
    17.8767  18.1886  18.9622  23.2333  26.1503

     occupation numbers 
     1.0000   1.0000   1.0000   1.0000   1.0000   1.0000   1.0000   1.0000
     1.0000   1.0000   1.0000   1.0000   0.9988   0.9982   0.9867   0.9857
     0.9609   0.9067   0.5896   0.0000   0.0000

          k = 0.1333 0.2309 0.0768 (  2784 PWs)   bands (ev):

   -76.3784 -76.3343 -39.7666 -39.6182 -39.6079 -39.5498 -39.5035 -39.4994
    11.9253  15.0639  15.8963  16.1123  16.9664  17.0147  17.4590  17.6456
[...]
    14.3885  15.2372  16.4112  16.4836  17.1778  17.2845  18.0468  18.6809
    19.4514  19.7703  20.2567  21.6209  31.6893

     occupation numbers 
     1.0000   1.0000   1.0000   1.0000   1.0000   1.0000   1.0000   1.0000
     1.0000   1.0000   0.9999   0.9999   0.9970   0.9953   0.9359   0.7338
     0.3209   0.1798   0.0543   0.0002   0.0000

          k = 0.2000 0.3464-0.3074 (  2802 PWs)   bands (ev):

   -75.5097 -75.5097 -38.9367 -38.9367 -38.7858 -38.7858 -38.7307 -38.7307
    14.8201  14.8201  16.5748  16.5748  17.0982  17.0982  18.3406  18.3406
    19.7759  19.7759  20.6318  20.6318  32.4716

     occupation numbers 
     1.0000   1.0000   1.0000   1.0000   1.0000   1.0000   1.0000   1.0000
     1.0000   1.0000   0.9998   0.9998   0.9979   0.9979   0.8656   0.8656
     0.1777   0.1777   0.0164   0.0164   0.0000

          k = 0.2000 0.4234 0.0000 (  2810 PWs)   bands (ev):

   -75.5164 -75.4912 -38.9239 -38.8980 -38.8784 -38.8081 -38.7528 -38.7328
    14.5996  15.6845  15.8325  16.1638  17.2410  17.7563  17.8773  18.9310
    19.7121  19.7156  20.7381  26.9508  27.8411

     occupation numbers 
     1.0000   1.0000   1.0000   1.0000   1.0000   1.0000   1.0000   1.0000
     1.0000   1.0000   1.0000   1.0000   0.9961   0.9733   0.9609   0.6067
     0.2021   0.2008   0.0112   0.0000   0.0000

          k = 0.2000 0.4234 0.0768 (  2804 PWs)   bands (ev):

   -75.5154 -75.4921 -38.9340 -38.9140 -38.8511 -38.8125 -38.7559 -38.7264
    14.6418  15.6407  15.8918  16.2342  17.2735  17.6647  17.8957  18.9513
    19.5719  19.7656  20.7923  25.6097  28.3345

     occupation numbers 
     1.0000   1.0000   1.0000   1.0000   1.0000   1.0000   1.0000   1.0000
     1.0000   1.0000   1.0000   1.0000   0.9955   0.9804   0.9586   0.5956
     0.2625   0.1815   0.0091   0.0000   0.0000

          k = 0.2000 0.4234 0.1537 (  2802 PWs)   bands (ev):

   -75.5127 -75.4948 -38.9525 -38.9280 -38.8269 -38.8082 -38.7601 -38.7181
    14.7614  15.5313  16.0437  16.4293  17.2743  17.4744  17.9597  18.9929
    19.3153  19.8756  20.9075  23.9670  28.8139

     occupation numbers 
     1.0000   1.0000   1.0000   1.0000   1.0000   1.0000   1.0000   1.0000
     1.0000   1.0000   1.0000   0.9999   0.9955   0.9901   0.9500   0.5727
     0.3925   0.1434   0.0058   0.0000   0.0000

          k = 0.2000 0.4234 0.2305 (  2795 PWs)   bands (ev):

   -75.5086 -75.4989 -38.9614 -38.9444 -38.8193 -38.7993 -38.7506 -38.7185
    14.9402  15.3612  16.2832  16.6451  17.1136  17.3263  18.0978  18.7073
    19.5044  19.9370  21.1064  22.5807  29.4852

     occupation numbers 
     1.0000   1.0000   1.0000   1.0000   1.0000   1.0000   1.0000   1.0000
     1.0000   1.0000   1.0000   0.9998   0.9978   0.9945   0.9263   0.7214
     0.2945   0.1246   0.0025   0.0000   0.0000

          k = 0.2000 0.4234-0.3074 (  2798 PWs)   bands (ev):

   -75.5038 -75.5038 -38.9578 -38.9578 -38.8083 -38.8083 -38.7307 -38.7307
    15.1518  15.1518  16.5615  16.5615  17.1521  17.1521  18.3489  18.3489
    19.8256  19.8256  21.5997  21.5997  30.3259

     occupation numbers 
     1.0000   1.0000   1.0000   1.0000   1.0000   1.0000   1.0000   1.0000
     1.0000   1.0000   0.9999   0.9999   0.9973   0.9973   0.8630   0.8630
     0.1600   0.1600   0.0002   0.0002   0.0000

          k = 0.2000 0.5004 0.0000 (  2805 PWs)   bands (ev):

   -75.5082 -75.4913 -38.9482 -38.9016 -38.8508 -38.8331 -38.7664 -38.7531
    15.2316  15.5877  15.6667  16.3078  17.2325  17.5530  18.0509  19.2599
    19.7011  19.7810  21.6907  25.2330  28.8038

     occupation numbers 
     1.0000   1.0000   1.0000   1.0000   1.0000   1.0000   1.0000   1.0000
     1.0000   1.0000   1.0000   1.0000   0.9962   0.9868   0.9352   0.4229
     0.2066   0.1758   0.0001   0.0000   0.0000

          k = 0.2000 0.5004 0.0768 (  2808 PWs)   bands (ev):

   -75.5076 -75.4919 -38.9541 -38.9142 -38.8502 -38.8195 -38.7728 -38.7423
    15.1729  15.6744  15.7379  16.2895  17.2525  17.5344  18.0782  19.2656
    19.5582  19.8209  21.7485  25.0762  28.0786

     occupation numbers 
     1.0000   1.0000   1.0000   1.0000   1.0000   1.0000   1.0000   1.0000
     1.0000   1.0000   1.0000   1.0000   0.9959   0.9876   0.9301   0.4197
     0.2688   0.1616   0.0001   0.0000   0.0000

          k = 0.2000 0.5004 0.1537 (  2798 PWs)   bands (ev):

   -75.5057 -75.4938 -38.9666 -38.9358 -38.8497 -38.7997 -38.7729 -38.7281
    15.1307  15.6624  15.9411  16.4258  17.1512  17.5442  18.1717  19.1486
    19.3834  19.8941  21.9069  24.4628  27.5457

     occupation numbers 
     1.0000   1.0000   1.0000   1.0000   1.0000   1.0000   1.0000   1.0000
     1.0000   1.0000   1.0000   0.9999   0.9973   0.9872   0.9106   0.4852
     0.3560   0.1376   0.0000   0.0000   0.0000

          k = 0.2000 0.5004 0.2305 (  2794 PWs)   bands (ev):

   -75.5030 -75.4965 -38.9744 -38.9570 -38.8405 -38.8088 -38.7493 -38.7225
    15.1772  15.4952  16.2121  16.7295  16.9534  17.4824  18.3092  18.7716
    19.5401  19.9007  22.1996  23.5413  27.7224

     occupation numbers 
     1.0000   1.0000   1.0000   1.0000   1.0000   1.0000   1.0000   1.0000
     1.0000   1.0000   1.0000   0.9996   0.9989   0.9898   0.8749   0.6901
     0.2774   0.1355   0.0000   0.0000   0.0000

          k = 0.2000 0.5004-0.3074 (  2794 PWs)   bands (ev):

   -75.4997 -75.4997 -38.9713 -38.9713 -38.8253 -38.8253 -38.7297 -38.7297
    15.3092  15.3092  16.5288  16.5288  17.2278  17.2278  18.4852  18.4852
    19.7663  19.7663  22.7302  22.7302  28.3208

     occupation numbers 
     1.0000   1.0000   1.0000   1.0000   1.0000   1.0000   1.0000   1.0000
     1.0000   1.0000   0.9999   0.9999   0.9963   0.9963   0.8162   0.8162
     0.1813   0.1813   0.0000   0.0000   0.0000

          k = 0.2000 0.5774 0.0000 (  2804 PWs)   bands (ev):

   -75.5047 -75.4919 -38.9566 -38.9008 -38.8442 -38.8375 -38.7711 -38.7638
    15.4318  15.5563  15.5974  16.4071  17.2719  17.4380  18.1190  19.4808
    19.6960  19.7120  22.5495  23.9679  28.7649

     occupation numbers 
     1.0000   1.0000   1.0000   1.0000   1.0000   1.0000   1.0000   1.0000
     1.0000   1.0000   1.0000   0.9999   0.9956   0.9914   0.9221   0.3061
     0.2086   0.2022   0.0000   0.0000   0.0000

          k = 0.2000 0.5774 0.0768 (  2803 PWs)   bands (ev):

   -75.5042 -75.4924 -38.9619 -38.9119 -38.8588 -38.8100 -38.7818 -38.7497
    15.2701  15.6421  15.8356  16.2900  17.2289  17.5166  18.1533  19.4864
    19.5421  19.7499  22.6210  23.9419  28.7086

     occupation numbers 
     1.0000   1.0000   1.0000   1.0000   1.0000   1.0000   1.0000   1.0000
     1.0000   1.0000   1.0000   1.0000   0.9963   0.9884   0.9147   0.3033
     0.2764   0.1874   0.0000   0.0000   0.0000

          k = 0.2000 0.5774 0.1537 (  2802 PWs)   bands (ev):

   -75.5028 -75.4938 -38.9729 -38.9362 -38.8596 -38.7959 -38.7760 -38.7331
    15.1817  15.7040  16.1204  16.2632  17.0832  17.6215  18.2645  19.1864
    19.5140  19.8100  22.8057  23.8528  28.1768

     occupation numbers 
     1.0000   1.0000   1.0000   1.0000   1.0000   1.0000   1.0000   1.0000
     1.0000   1.0000   1.0000   1.0000   0.9980   0.9831   0.8875   0.4639
     0.2899   0.1654   0.0000   0.0000   0.0000

          k = 0.2000 0.5774 0.2305 (  2802 PWs)   bands (ev):

   -75.5008 -75.4959 -38.9797 -38.9603 -38.8486 -38.8129 -38.7472 -38.7247
    15.2131  15.5595  16.2350  16.7243  16.8631  17.5625  18.4254  18.8221
    19.5894  19.8102  23.0723  23.6714  27.5593

     occupation numbers 
     1.0000   1.0000   1.0000   1.0000   1.0000   1.0000   1.0000   1.0000
     1.0000   1.0000   1.0000   0.9997   0.9993   0.9863   0.8379   0.6645
     0.2545   0.1653   0.0000   0.0000   0.0000

          k = 0.2000 0.5774-0.3074 (  2788 PWs)   bands (ev):

   -75.4983 -75.4983 -38.9759 -38.9759 -38.8316 -38.8316 -38.7291 -38.7291
    15.3512  15.3512  16.5180  16.5180  17.2423  17.2423  18.5909  18.5909
    19.7133  19.7133  23.3891  23.3891  27.3612

     occupation numbers 
     1.0000   1.0000   1.0000   1.0000   1.0000   1.0000   1.0000   1.0000
     1.0000   1.0000   0.9999   0.9999   0.9961   0.9961   0.7739   0.7739
     0.2017   0.2017   0.0000   0.0000   0.0000

          k = 0.2667 0.4619 0.0000 (  2828 PWs)   bands (ev):

   -75.5078 -75.4913 -38.9328 -38.9024 -38.8495 -38.8345 -38.7829 -38.7541
    15.3095  15.6351  15.9580  15.9828  17.1710  17.5598  18.0705  19.1023
    19.6696  19.7813  21.7218  26.6680  27.1468

     occupation numbers 
     1.0000   1.0000   1.0000   1.0000   1.0000   1.0000   1.0000   1.0000
     1.0000   1.0000   1.0000   1.0000   0.9971   0.9864   0.9316   0.5113
     0.2195   0.1757   0.0001   0.0000   0.0000

          k = 0.2667 0.4619 0.0768 (  2811 PWs)   bands (ev):

   -75.5072 -75.4919 -38.9340 -38.9208 -38.8434 -38.8299 -38.7835 -38.7445
    15.3301  15.6029  15.9811  16.0954  17.2163  17.4611  18.0686  19.1265
    19.5238  19.8223  21.7995  26.1897  27.3100

     occupation numbers 
     1.0000   1.0000   1.0000   1.0000   1.0000   1.0000   1.0000   1.0000
     1.0000   1.0000   1.0000   1.0000   0.9965   0.9906   0.9319   0.4977
     0.2851   0.1611   0.0001   0.0000   0.0000

          k = 0.2667 0.4619 0.1537 (  2805 PWs)   bands (ev):

   -75.5054 -75.4937 -38.9452 -38.9403 -38.8536 -38.8144 -38.7730 -38.7293
    15.3772  15.5594  16.0791  16.3572  17.2130  17.2775  18.0794  19.0825
    19.3250  19.8962  22.0012  25.0307  27.7727

     occupation numbers 
     1.0000   1.0000   1.0000   1.0000   1.0000   1.0000   1.0000   1.0000
     1.0000   1.0000   1.0000   1.0000   0.9965   0.9955   0.9299   0.5225
     0.3872   0.1369   0.0000   0.0000   0.0000

          k = 0.2667 0.4619 0.2305 (  2791 PWs)   bands (ev):

   -75.5027 -75.4964 -38.9595 -38.9521 -38.8508 -38.8232 -38.7475 -38.7223
    15.4295  15.5226  16.2812  16.6831  16.8988  17.2222  18.1558  18.6968
    19.5294  19.9062  22.3380  23.8388  28.4634

     occupation numbers 
     1.0000   1.0000   1.0000   1.0000   1.0000   1.0000   1.0000   1.0000
     1.0000   1.0000   1.0000   0.9997   0.9992   0.9964   0.9142   0.7264
     0.2824   0.1338   0.0000   0.0000   0.0000

          k = 0.2667 0.4619-0.3074 (  2796 PWs)   bands (ev):

   -75.4995 -75.4995 -38.9610 -38.9610 -38.8382 -38.8382 -38.7285 -38.7285
    15.4797  15.4797  16.5662  16.5662  17.0079  17.0079  18.3572  18.3572
    19.7776  19.7776  22.9200  22.9200  29.2130

     occupation numbers 
     1.0000   1.0000   1.0000   1.0000   1.0000   1.0000   1.0000   1.0000
     1.0000   1.0000   0.9998   0.9998   0.9986   0.9986   0.8604   0.8604
     0.1771   0.1771   0.0000   0.0000   0.0000

          k = 0.2667 0.5389 0.0000 (  2821 PWs)   bands (ev):

   -75.5016 -75.4929 -38.9382 -38.8897 -38.8611 -38.8247 -38.8017 -38.7748
    15.6198  15.6491  15.8550  16.1315  17.1955  17.3804  18.2046  19.3296
    19.6441  19.6646  22.9645  24.9730  26.7014

     occupation numbers 
     1.0000   1.0000   1.0000   1.0000   1.0000   1.0000   1.0000   1.0000
     1.0000   1.0000   1.0000   1.0000   0.9968   0.9931   0.9028   0.3848
     0.2303   0.2216   0.0000   0.0000   0.0000

          k = 0.2667 0.5389 0.0768 (  2818 PWs)   bands (ev):

   -75.5013 -75.4933 -38.9394 -38.9044 -38.8734 -38.8132 -38.7982 -38.7614
    15.5456  15.7829  15.9163  16.1248  17.1908  17.3288  18.2039  19.3512
    19.4920  19.6973  23.0796  24.9974  26.7656

     occupation numbers 
     1.0000   1.0000   1.0000   1.0000   1.0000   1.0000   1.0000   1.0000
     1.0000   1.0000   1.0000   1.0000   0.9968   0.9944   0.9030   0.3731
     0.3006   0.2081   0.0000   0.0000   0.0000

          k = 0.2667 0.5389 0.1537 (  2805 PWs)   bands (ev):

   -75.5003 -75.4942 -38.9473 -38.9278 -38.8832 -38.8231 -38.7680 -38.7403
    15.5359  15.8957  16.0277  16.2335  17.0980  17.2486  18.2154  19.1148
    19.4401  19.7556  23.3661  24.9848  26.9177

     occupation numbers 
     1.0000   1.0000   1.0000   1.0000   1.0000   1.0000   1.0000   1.0000
     1.0000   1.0000   1.0000   1.0000   0.9979   0.9960   0.9002   0.5043
     0.3266   0.1853   0.0000   0.0000   0.0000

          k = 0.2667 0.5389 0.2305 (  2793 PWs)   bands (ev):

   -75.4989 -75.4956 -38.9577 -38.9478 -38.8756 -38.8398 -38.7415 -38.7269
    15.5945  15.8207  16.2394  16.4787  16.9230  17.1488  18.2723  18.7166
    19.5664  19.7687  23.7576  24.7243  27.1667

     occupation numbers 
     1.0000   1.0000   1.0000   1.0000   1.0000   1.0000   1.0000   1.0000
     1.0000   1.0000   1.0000   0.9999   0.9991   0.9974   0.8854   0.7170
     0.2650   0.1804   0.0000   0.0000   0.0000

          k = 0.2667 0.5389-0.3074 (  2794 PWs)   bands (ev):

   -75.4972 -75.4972 -38.9588 -38.9588 -38.8587 -38.8587 -38.7270 -38.7270
    15.7001  15.7001  16.4727  16.4727  16.9670  16.9670  18.4239  18.4239
    19.6976  19.6976  24.2391  24.2391  27.6593

     occupation numbers 
     1.0000   1.0000   1.0000   1.0000   1.0000   1.0000   1.0000   1.0000
     1.0000   1.0000   0.9999   0.9999   0.9988   0.9988   0.8384   0.8384
     0.2080   0.2080   0.0000   0.0000   0.0000

          k = 0.3333 0.5774 0.0000 (  2826 PWs)   bands (ev):

   -75.4964 -75.4964 -38.9300 -38.8771 -38.8771 -38.8212 -38.7989 -38.7989
    15.6388  15.8577  15.8577  16.0799  17.2472  17.2472  18.2770  19.4739
    19.4739  19.6229  24.1728  25.0274  25.0274

     occupation numbers 
     1.0000   1.0000   1.0000   1.0000   1.0000   1.0000   1.0000   1.0000
     1.0000   1.0000   1.0000   1.0000   0.9960   0.9960   0.8841   0.3096
     0.3096   0.2395   0.0000   0.0000   0.0000

          k = 0.3333 0.5774 0.0768 (  2817 PWs)   bands (ev):

   -75.4964 -75.4964 -38.9258 -38.8939 -38.8939 -38.8254 -38.7820 -38.7820
    15.6867  15.8908  15.8908  16.0961  17.2069  17.2069  18.2629  19.4658
    19.5038  19.5038  24.4122  25.0568  25.0568

     occupation numbers 
     1.0000   1.0000   1.0000   1.0000   1.0000   1.0000   1.0000   1.0000
     1.0000   1.0000   1.0000   1.0000   0.9966   0.9966   0.8879   0.3136
     0.2948   0.2948   0.0000   0.0000   0.0000

          k = 0.3333 0.5774 0.1537 (  2814 PWs)   bands (ev):

   -75.4964 -75.4964 -38.9215 -38.9215 -38.9141 -38.8372 -38.7542 -38.7542
    15.8153  15.9769  15.9769  16.1321  17.1070  17.1070  18.2387  19.0953
    19.5725  19.5725  25.0435  25.1378  25.1378

     occupation numbers 
     1.0000   1.0000   1.0000   1.0000   1.0000   1.0000   1.0000   1.0000
     1.0000   1.0000   1.0000   1.0000   0.9978   0.9978   0.8943   0.5153
     0.2622   0.2622   0.0000   0.0000   0.0000

          k = 0.3333 0.5774 0.2305 (  2793 PWs)   bands (ev):

   -75.4964 -75.4964 -38.9419 -38.9419 -38.8965 -38.8549 -38.7336 -38.7336
    15.9781  16.0757  16.0757  16.1514  16.9992  16.9992  18.2584  18.6932
    19.6369  19.6369  25.2375  25.2375  25.9262

     occupation numbers 
     1.0000   1.0000   1.0000   1.0000   1.0000   1.0000   1.0000   1.0000
     1.0000   1.0000   1.0000   1.0000   0.9987   0.9987   0.8891   0.7281
     0.2334   0.2334   0.0000   0.0000   0.0000

          k = 0.3333 0.5774-0.3074 (  2772 PWs)   bands (ev):

   -75.4964 -75.4964 -38.9493 -38.9493 -38.8757 -38.8757 -38.7261 -38.7261
    16.1057  16.1057  16.1223  16.1223  16.9500  16.9500  18.3967  18.3967
    19.6625  19.6625  25.2862  25.2862  26.9781

     occupation numbers 
     1.0000   1.0000   1.0000   1.0000   1.0000   1.0000   1.0000   1.0000
     1.0000   1.0000   1.0000   1.0000   0.9989   0.9989   0.8476   0.8476
     0.2225   0.2225   0.0000   0.0000   0.0000

     the Fermi energy is    19.1224 ev

!    total energy              =    -753.50465008 Ry
     total all-electron energy =     -5573.861341 Ry
     estimated scf accuracy    <       0.00000002 Ry
     smearing contrib. (-TS)   =      -0.12951960 Ry
     internal energy E=F+TS    =    -753.37513048 Ry

     The total energy is F=E-TS. E is the sum of the following terms:
     one-electron contribution =    -278.79575346 Ry
     hartree contribution      =     163.54288981 Ry
     xc contribution           =     -61.30389901 Ry
     ewald contribution        =    -401.63724122 Ry
     one-center paw contrib.   =    -175.18112660 Ry
      -> PAW hartree energy AE =     222.28439136 Ry
      -> PAW hartree energy PS =    -221.22651047 Ry
      -> PAW xc energy AE      =    -117.62982400 Ry
      -> PAW xc energy PS      =      28.98137982 Ry
      -> total E_H with PAW    =     164.60077069 Ry
      -> total E_XC with PAW   =    -149.95234320 Ry

     total magnetization       =     1.32 Bohr mag/cell
     absolute magnetization    =     1.42 Bohr mag/cell

     convergence has been achieved in   3 iterations

     Writing all to output data dir ./out/Co.save/
 
     init_run     :      0.54s CPU      0.78s WALL (       1 calls)
     electrons    :     25.30s CPU     26.40s WALL (       1 calls)

     Called by init_run:
     wfcinit      :      0.39s CPU      0.60s WALL (       1 calls)
     potinit      :      0.10s CPU      0.13s WALL (       1 calls)
     hinit0       :      0.03s CPU      0.03s WALL (       1 calls)

     Called by electrons:
     c_bands      :     23.39s CPU     24.34s WALL (       4 calls)
     sum_band     :      1.58s CPU      1.65s WALL (       4 calls)
     v_of_rho     :      0.01s CPU      0.01s WALL (       4 calls)
     v_h          :      0.00s CPU      0.00s WALL (       4 calls)
     v_xc         :      0.01s CPU      0.01s WALL (       4 calls)
     newd         :      0.01s CPU      0.01s WALL (       4 calls)
     PAW_pot      :      0.40s CPU      0.49s WALL (       4 calls)
     mix_rho      :      0.00s CPU      0.00s WALL (       4 calls)

     Called by c_bands:
     init_us_2    :      0.10s CPU      0.10s WALL (    2160 calls)
     init_us_2:cp :      0.10s CPU      0.10s WALL (    2160 calls)
     cegterg      :     22.82s CPU     23.58s WALL (    1087 calls)

     Called by sum_band:
     sum_band:wei :      0.10s CPU      0.10s WALL (       4 calls)
     sum_band:loo :      1.45s CPU      1.52s WALL (       4 calls)
     sum_band:buf :      0.01s CPU      0.01s WALL (    1080 calls)
     sum_band:ini :      0.06s CPU      0.05s WALL (    1080 calls)
     sum_band:cal :      0.10s CPU      0.10s WALL (    1080 calls)
     sum_band:bec :      0.01s CPU      0.01s WALL (    1080 calls)
     addusdens    :      0.02s CPU      0.02s WALL (       4 calls)
                                        0.00s GPU  (       4 calls)
     addusd:skk   :      0.00s CPU      0.00s WALL (       4 calls)
                                        0.00s GPU  (       4 calls)

     Called by *egterg:
     cdiaghg      :      5.85s CPU      5.97s WALL (    8852 calls)
     cegterg:over :      0.81s CPU      0.78s WALL (    8312 calls)
     cegterg:upda :      0.13s CPU      0.20s WALL (    8312 calls)
     cegterg:last :      0.38s CPU      0.39s WALL (    6168 calls)
     h_psi        :     14.61s CPU     15.17s WALL (    9399 calls)
     s_psi        :      0.28s CPU      0.26s WALL (    9399 calls)
     g_psi        :      0.06s CPU      0.07s WALL (    8312 calls)

     Called by h_psi:
     h_psi:calbec :      0.70s CPU      0.66s WALL (    9399 calls)
     vloc_psi     :     13.58s CPU     14.09s WALL (    9399 calls)
     add_vuspsi   :      0.29s CPU      0.34s WALL (    9399 calls)

     General routines
     calbec       :      0.80s CPU      0.75s WALL (   10479 calls)
     fft          :      0.01s CPU      0.01s WALL (      84 calls)
     ffts         :      0.00s CPU      0.00s WALL (       8 calls)
     fftw         :     14.19s CPU     14.45s WALL (  276556 calls)
 
     Parallel routines

     PAW routines
     PAW_pot      :      0.40s CPU      0.49s WALL (       4 calls)
     PAW_symme    :      0.00s CPU      0.00s WALL (       7 calls)
 
     PWSCF        :     26.32s CPU     28.54s WALL

 
   This run was terminated on:  16:17:44  13Mar2024            

=------------------------------------------------------------------------------=
   JOB DONE.
=------------------------------------------------------------------------------=
