
     Program PWSCF v.7.2 starts on 13Mar2024 at 16:15:54 

     This program is part of the open-source Quantum ESPRESSO suite
     for quantum simulation of materials; please cite
         "P. Giannozzi et al., J. Phys.:Condens. Matter 21 395502 (2009);
         "P. Giannozzi et al., J. Phys.:Condens. Matter 29 465901 (2017);
         "P. Giannozzi et al., J. Chem. Phys. 152 154105 (2020);
          URL http://www.quantum-espresso.org", 
     in publications or presentations arising from this work. More details at
     http://www.quantum-espresso.org/quote

     Parallel version (MPI), running on    20 processors

     MPI processes distributed on     1 nodes
     334465 MiB available memory on the printing compute node when the environment starts
 
     Waiting for input...
     Reading input from standard input

     Current dimensions of program PWSCF are:
     Max number of different atomic species (ntypx) = 10
     Max number of k-points (npk) = 120000
     Max angular momentum in pseudopotentials (lmaxx) =  4
     file Co.pbe-spn-kjpaw_psl.0.3.1.UPF: wavefunction(s)  3P 3D renormalized
     Message from routine setup:
     using ibrav=0 with symmetry is DISCOURAGED, use correct ibrav instead
 
     R & G space division:  proc/nbgrp/npool/nimage =      20
     Subspace diagonalization in iterative solution of the eigenvalue problem:
     a serial algorithm will be used

 
     Parallelization info
     --------------------
     sticks:   dense  smooth     PW     G-vecs:    dense   smooth      PW
     Min          27      27      8                  825      825     136
     Max          28      28      9                  830      830     141
     Sum         547     547    163                16551    16551    2779
 
     Using Slab Decomposition
 


     bravais-lattice index     =            0
     lattice parameter (alat)  =       4.6714  a.u.
     unit-cell volume          =     143.6064 (a.u.)^3
     number of atoms/cell      =            2
     number of atomic types    =            1
     number of electrons       =        34.00
     number of Kohn-Sham states=           21
     kinetic-energy cutoff     =      90.0000  Ry
     charge density cutoff     =     360.0000  Ry
     scf convergence threshold =      8.0E-08
     mixing beta               =       0.4000
     number of iterations used =            8  plain     mixing
     Exchange-correlation= SLA  PW   PBX  PBC
                           (   1   4   3   4   0   0   0)

     celldm(1)=   4.671403  celldm(2)=   0.000000  celldm(3)=   0.000000
     celldm(4)=   0.000000  celldm(5)=   0.000000  celldm(6)=   0.000000

     crystal axes: (cart. coord. in units of alat)
               a(1) = (   1.000000   0.000000   0.000000 )  
               a(2) = (  -0.500000   0.866025   0.000000 )  
               a(3) = (   0.000000   0.000000   1.626676 )  

     reciprocal axes: (cart. coord. in units 2 pi/alat)
               b(1) = (  1.000000  0.577350  0.000000 )  
               b(2) = (  0.000000  1.154701  0.000000 )  
               b(3) = (  0.000000  0.000000  0.614750 )  


     PseudoPot. # 1 for Co read from file:
     /truba/home/amuhaymin/ZnS/pseudo/QE/Co.pbe-spn-kjpaw_psl.0.3.1.UPF
     MD5 check sum: b0a1ad65bf214e88c1f3d33b20c7d919
     Pseudo is Projector augmented-wave + core cor, Zval = 17.0
     Generated using &quot;atomic&quot; code by A. Dal Corso  v.6.2.2
     Shape of augmentation charge: PSQ
     Using radial grid of 1193 points,  6 beta functions with: 
                l(1) =   0
                l(2) =   0
                l(3) =   1
                l(4) =   1
                l(5) =   2
                l(6) =   2
     Q(r) pseudized with 0 coefficients 


     atomic species   valence    mass     pseudopotential
        Co            17.00    58.93300     Co( 1.00)

     Starting magnetic structure 
     atomic species   magnetization
        Co           0.294

     24 Sym. Ops., with inversion, found (12 have fractional translation)


                                    s                        frac. trans.

      isym =  1     identity                                     

 cryst.   s( 1) = (     1          0          0      )
                  (     0          1          0      )
                  (     0          0          1      )

 cart.    s( 1) = (  1.0000000  0.0000000  0.0000000 )
                  (  0.0000000  1.0000000  0.0000000 )
                  (  0.0000000  0.0000000  1.0000000 )


      isym =  2     180 deg rotation - cart. axis [0,0,1]        

 cryst.   s( 2) = (    -1          0          0      )    f =(  0.0000000 )
                  (     0         -1          0      )       (  0.0000000 )
                  (     0          0          1      )       ( -0.5000000 )

 cart.    s( 2) = ( -1.0000000  0.0000000  0.0000000 )    f =(  0.0000000 )
                  (  0.0000000 -1.0000000  0.0000000 )       (  0.0000000 )
                  (  0.0000000  0.0000000  1.0000000 )       ( -0.8133382 )


      isym =  3     180 deg rotation - cart. axis [0,1,0]        

 cryst.   s( 3) = (    -1          0          0      )    f =(  0.0000000 )
                  (     1          1          0      )       (  0.0000000 )
                  (     0          0         -1      )       (  0.5000000 )

 cart.    s( 3) = ( -1.0000000  0.0000000  0.0000000 )    f =(  0.0000000 )
                  (  0.0000000  1.0000000  0.0000000 )       (  0.0000000 )
                  (  0.0000000  0.0000000 -1.0000000 )       (  0.8133382 )


      isym =  4     180 deg rotation - cart. axis [1,0,0]        

 cryst.   s( 4) = (     1          0          0      )
                  (    -1         -1          0      )
                  (     0          0         -1      )

 cart.    s( 4) = (  1.0000000  0.0000000  0.0000000 )
                  (  0.0000000 -1.0000000  0.0000000 )
                  (  0.0000000  0.0000000 -1.0000000 )


      isym =  5      60 deg rotation - cryst. axis [0,0,1]       

 cryst.   s( 5) = (     1          1          0      )    f =(  0.0000000 )
                  (    -1          0          0      )       ( -0.0000000 )
                  (     0          0          1      )       ( -0.5000000 )

 cart.    s( 5) = (  0.5000000 -0.8660254  0.0000000 )    f =(  0.0000000 )
                  (  0.8660254  0.5000000  0.0000000 )       ( -0.0000000 )
                  (  0.0000000  0.0000000  1.0000000 )       ( -0.8133382 )


      isym =  6      60 deg rotation - cryst. axis [0,0,-1]      

 cryst.   s( 6) = (     0         -1          0      )    f =(  0.0000000 )
                  (     1          1          0      )       ( -0.0000000 )
                  (     0          0          1      )       ( -0.5000000 )

 cart.    s( 6) = (  0.5000000  0.8660254  0.0000000 )    f =(  0.0000000 )
                  ( -0.8660254  0.5000000  0.0000000 )       ( -0.0000000 )
                  (  0.0000000  0.0000000  1.0000000 )       ( -0.8133382 )


      isym =  7     120 deg rotation - cryst. axis [0,0,1]       

 cryst.   s( 7) = (     0          1          0      )
                  (    -1         -1          0      )
                  (     0          0          1      )

 cart.    s( 7) = ( -0.5000000 -0.8660254  0.0000000 )
                  (  0.8660254 -0.5000000  0.0000000 )
                  (  0.0000000  0.0000000  1.0000000 )


      isym =  8     120 deg rotation - cryst. axis [0,0,-1]      

 cryst.   s( 8) = (    -1         -1          0      )
                  (     1          0          0      )
                  (     0          0          1      )

 cart.    s( 8) = ( -0.5000000  0.8660254  0.0000000 )
                  ( -0.8660254 -0.5000000  0.0000000 )
                  (  0.0000000  0.0000000  1.0000000 )


      isym =  9     180 deg rotation - cryst. axis [1,-1,0]      

 cryst.   s( 9) = (     0         -1          0      )    f =(  0.0000000 )
                  (    -1          0          0      )       (  0.0000000 )
                  (     0          0         -1      )       (  0.5000000 )

 cart.    s( 9) = (  0.5000000 -0.8660254  0.0000000 )    f =(  0.0000000 )
                  ( -0.8660254 -0.5000000  0.0000000 )       (  0.0000000 )
                  (  0.0000000  0.0000000 -1.0000000 )       (  0.8133382 )


      isym = 10     180 deg rotation - cryst. axis [2,1,0]       

 cryst.   s(10) = (     1          1          0      )    f =(  0.0000000 )
                  (     0         -1          0      )       ( -0.0000000 )
                  (     0          0         -1      )       (  0.5000000 )

 cart.    s(10) = (  0.5000000  0.8660254  0.0000000 )    f =(  0.0000000 )
                  (  0.8660254 -0.5000000  0.0000000 )       ( -0.0000000 )
                  (  0.0000000  0.0000000 -1.0000000 )       (  0.8133382 )


      isym = 11     180 deg rotation - cryst. axis [0,1,0]       

 cryst.   s(11) = (    -1         -1          0      )
                  (     0          1          0      )
                  (     0          0         -1      )

 cart.    s(11) = ( -0.5000000 -0.8660254  0.0000000 )
                  ( -0.8660254  0.5000000  0.0000000 )
                  (  0.0000000  0.0000000 -1.0000000 )


      isym = 12     180 deg rotation - cryst. axis [1,1,0]       

 cryst.   s(12) = (     0          1          0      )
                  (     1          0          0      )
                  (     0          0         -1      )

 cart.    s(12) = ( -0.5000000  0.8660254  0.0000000 )
                  (  0.8660254  0.5000000  0.0000000 )
                  (  0.0000000  0.0000000 -1.0000000 )


      isym = 13     inversion                                    

 cryst.   s(13) = (    -1          0          0      )
                  (     0         -1          0      )
                  (     0          0         -1      )

 cart.    s(13) = ( -1.0000000  0.0000000  0.0000000 )
                  (  0.0000000 -1.0000000  0.0000000 )
                  (  0.0000000  0.0000000 -1.0000000 )


      isym = 14     inv. 180 deg rotation - cart. axis [0,0,1]   

 cryst.   s(14) = (     1          0          0      )    f =(  0.0000000 )
                  (     0          1          0      )       (  0.0000000 )
                  (     0          0         -1      )       (  0.5000000 )

 cart.    s(14) = (  1.0000000  0.0000000  0.0000000 )    f =(  0.0000000 )
                  (  0.0000000  1.0000000  0.0000000 )       (  0.0000000 )
                  (  0.0000000  0.0000000 -1.0000000 )       (  0.8133382 )


      isym = 15     inv. 180 deg rotation - cart. axis [0,1,0]   

 cryst.   s(15) = (     1          0          0      )    f =(  0.0000000 )
                  (    -1         -1          0      )       (  0.0000000 )
                  (     0          0          1      )       ( -0.5000000 )

 cart.    s(15) = (  1.0000000  0.0000000  0.0000000 )    f =(  0.0000000 )
                  (  0.0000000 -1.0000000  0.0000000 )       (  0.0000000 )
                  (  0.0000000  0.0000000  1.0000000 )       ( -0.8133382 )


      isym = 16     inv. 180 deg rotation - cart. axis [1,0,0]   

 cryst.   s(16) = (    -1          0          0      )
                  (     1          1          0      )
                  (     0          0          1      )

 cart.    s(16) = ( -1.0000000  0.0000000  0.0000000 )
                  (  0.0000000  1.0000000  0.0000000 )
                  (  0.0000000  0.0000000  1.0000000 )


      isym = 17     inv.  60 deg rotation - cryst. axis [0,0,1]  

 cryst.   s(17) = (    -1         -1          0      )    f =(  0.0000000 )
                  (     1          0          0      )       (  0.0000000 )
                  (     0          0         -1      )       (  0.5000000 )

 cart.    s(17) = ( -0.5000000  0.8660254  0.0000000 )    f =(  0.0000000 )
                  ( -0.8660254 -0.5000000  0.0000000 )       (  0.0000000 )
                  (  0.0000000  0.0000000 -1.0000000 )       (  0.8133382 )


      isym = 18     inv.  60 deg rotation - cryst. axis [0,0,-1] 

 cryst.   s(18) = (     0          1          0      )    f =(  0.0000000 )
                  (    -1         -1          0      )       ( -0.0000000 )
                  (     0          0         -1      )       (  0.5000000 )

 cart.    s(18) = ( -0.5000000 -0.8660254  0.0000000 )    f =(  0.0000000 )
                  (  0.8660254 -0.5000000  0.0000000 )       ( -0.0000000 )
                  (  0.0000000  0.0000000 -1.0000000 )       (  0.8133382 )


      isym = 19     inv. 120 deg rotation - cryst. axis [0,0,1]  

 cryst.   s(19) = (     0         -1          0      )
                  (     1          1          0      )
                  (     0          0         -1      )

 cart.    s(19) = (  0.5000000  0.8660254  0.0000000 )
                  ( -0.8660254  0.5000000  0.0000000 )
                  (  0.0000000  0.0000000 -1.0000000 )


      isym = 20     inv. 120 deg rotation - cryst. axis [0,0,-1] 

 cryst.   s(20) = (     1          1          0      )
                  (    -1          0          0      )
                  (     0          0         -1      )

 cart.    s(20) = (  0.5000000 -0.8660254  0.0000000 )
                  (  0.8660254  0.5000000  0.0000000 )
                  (  0.0000000  0.0000000 -1.0000000 )


      isym = 21     inv. 180 deg rotation - cryst. axis [1,-1,0] 

 cryst.   s(21) = (     0          1          0      )    f =(  0.0000000 )
                  (     1          0          0      )       ( -0.0000000 )
                  (     0          0          1      )       ( -0.5000000 )

 cart.    s(21) = ( -0.5000000  0.8660254  0.0000000 )    f =(  0.0000000 )
                  (  0.8660254  0.5000000  0.0000000 )       ( -0.0000000 )
                  (  0.0000000  0.0000000  1.0000000 )       ( -0.8133382 )


      isym = 22     inv. 180 deg rotation - cryst. axis [2,1,0]  

 cryst.   s(22) = (    -1         -1          0      )    f =(  0.0000000 )
                  (     0          1          0      )       ( -0.0000000 )
                  (     0          0          1      )       ( -0.5000000 )

 cart.    s(22) = ( -0.5000000 -0.8660254  0.0000000 )    f =(  0.0000000 )
                  ( -0.8660254  0.5000000  0.0000000 )       ( -0.0000000 )
                  (  0.0000000  0.0000000  1.0000000 )       ( -0.8133382 )


      isym = 23     inv. 180 deg rotation - cryst. axis [0,1,0]  

 cryst.   s(23) = (     1          1          0      )
                  (     0         -1          0      )
                  (     0          0          1      )

 cart.    s(23) = (  0.5000000  0.8660254  0.0000000 )
                  (  0.8660254 -0.5000000  0.0000000 )
                  (  0.0000000  0.0000000  1.0000000 )


      isym = 24     inv. 180 deg rotation - cryst. axis [1,1,0]  

 cryst.   s(24) = (     0         -1          0      )
                  (    -1          0          0      )
                  (     0          0          1      )

 cart.    s(24) = (  0.5000000 -0.8660254  0.0000000 )
                  ( -0.8660254 -0.5000000  0.0000000 )
                  (  0.0000000  0.0000000  1.0000000 )


   Cartesian axes

     site n.     atom                  positions (alat units)
         1           Co  tau(   1) = (  -0.0000000   0.5773503   0.4066691  )
         2           Co  tau(   2) = (   0.5000000   0.2886751   1.2200074  )

   Crystallographic axes

     site n.     atom                  positions (cryst. coord.)
         1           Co  tau(   1) = (  0.3333333  0.6666667  0.2500000  )
         2           Co  tau(   2) = (  0.6666667  0.3333333  0.7500000  )

     number of k points=   135  Gaussian smearing, width (Ry)=  0.0735
                       cart. coord. in units 2pi/alat
        k(    1) = (   0.0000000   0.0000000   0.0000000), wk =   0.0005556
        k(    2) = (   0.0000000   0.0000000   0.0768438), wk =   0.0011111
        k(    3) = (   0.0000000   0.0000000   0.1536876), wk =   0.0011111
        k(    4) = (   0.0000000   0.0000000   0.2305314), wk =   0.0011111
        k(    5) = (   0.0000000   0.0000000  -0.3073752), wk =   0.0005556
        k(    6) = (   0.0000000   0.0769800   0.0000000), wk =   0.0033333
        k(    7) = (   0.0000000   0.0769800   0.0768438), wk =   0.0066667
        k(    8) = (   0.0000000   0.0769800   0.1536876), wk =   0.0066667
        k(    9) = (   0.0000000   0.0769800   0.2305314), wk =   0.0066667
        k(   10) = (   0.0000000   0.0769800  -0.3073752), wk =   0.0033333
        k(   11) = (   0.0000000   0.1539601   0.0000000), wk =   0.0033333
        k(   12) = (   0.0000000   0.1539601   0.0768438), wk =   0.0066667
        k(   13) = (   0.0000000   0.1539601   0.1536876), wk =   0.0066667
        k(   14) = (   0.0000000   0.1539601   0.2305314), wk =   0.0066667
        k(   15) = (   0.0000000   0.1539601  -0.3073752), wk =   0.0033333
        k(   16) = (   0.0000000   0.2309401   0.0000000), wk =   0.0033333
        k(   17) = (   0.0000000   0.2309401   0.0768438), wk =   0.0066667
        k(   18) = (   0.0000000   0.2309401   0.1536876), wk =   0.0066667
        k(   19) = (   0.0000000   0.2309401   0.2305314), wk =   0.0066667
        k(   20) = (   0.0000000   0.2309401  -0.3073752), wk =   0.0033333
        k(   21) = (   0.0000000   0.3079201   0.0000000), wk =   0.0033333
        k(   22) = (   0.0000000   0.3079201   0.0768438), wk =   0.0066667
        k(   23) = (   0.0000000   0.3079201   0.1536876), wk =   0.0066667
        k(   24) = (   0.0000000   0.3079201   0.2305314), wk =   0.0066667
        k(   25) = (   0.0000000   0.3079201  -0.3073752), wk =   0.0033333
        k(   26) = (   0.0000000   0.3849002   0.0000000), wk =   0.0033333
        k(   27) = (   0.0000000   0.3849002   0.0768438), wk =   0.0066667
        k(   28) = (   0.0000000   0.3849002   0.1536876), wk =   0.0066667
        k(   29) = (   0.0000000   0.3849002   0.2305314), wk =   0.0066667
        k(   30) = (   0.0000000   0.3849002  -0.3073752), wk =   0.0033333
        k(   31) = (   0.0000000   0.4618802   0.0000000), wk =   0.0033333
        k(   32) = (   0.0000000   0.4618802   0.0768438), wk =   0.0066667
        k(   33) = (   0.0000000   0.4618802   0.1536876), wk =   0.0066667
        k(   34) = (   0.0000000   0.4618802   0.2305314), wk =   0.0066667
        k(   35) = (   0.0000000   0.4618802  -0.3073752), wk =   0.0033333
        k(   36) = (   0.0000000   0.5388603   0.0000000), wk =   0.0033333
        k(   37) = (   0.0000000   0.5388603   0.0768438), wk =   0.0066667
        k(   38) = (   0.0000000   0.5388603   0.1536876), wk =   0.0066667
        k(   39) = (   0.0000000   0.5388603   0.2305314), wk =   0.0066667
        k(   40) = (   0.0000000   0.5388603  -0.3073752), wk =   0.0033333
        k(   41) = (   0.0666667   0.1154701   0.0000000), wk =   0.0033333
        k(   42) = (   0.0666667   0.1154701   0.0768438), wk =   0.0066667
        k(   43) = (   0.0666667   0.1154701   0.1536876), wk =   0.0066667
        k(   44) = (   0.0666667   0.1154701   0.2305314), wk =   0.0066667
        k(   45) = (   0.0666667   0.1154701  -0.3073752), wk =   0.0033333
        k(   46) = (   0.0666667   0.1924501   0.0000000), wk =   0.0066667
        k(   47) = (   0.0666667   0.1924501   0.0768438), wk =   0.0133333
        k(   48) = (   0.0666667   0.1924501   0.1536876), wk =   0.0133333
        k(   49) = (   0.0666667   0.1924501   0.2305314), wk =   0.0133333
        k(   50) = (   0.0666667   0.1924501  -0.3073752), wk =   0.0066667
        k(   51) = (   0.0666667   0.2694301   0.0000000), wk =   0.0066667
        k(   52) = (   0.0666667   0.2694301   0.0768438), wk =   0.0133333
        k(   53) = (   0.0666667   0.2694301   0.1536876), wk =   0.0133333
        k(   54) = (   0.0666667   0.2694301   0.2305314), wk =   0.0133333
        k(   55) = (   0.0666667   0.2694301  -0.3073752), wk =   0.0066667
        k(   56) = (   0.0666667   0.3464102   0.0000000), wk =   0.0066667
        k(   57) = (   0.0666667   0.3464102   0.0768438), wk =   0.0133333
        k(   58) = (   0.0666667   0.3464102   0.1536876), wk =   0.0133333
        k(   59) = (   0.0666667   0.3464102   0.2305314), wk =   0.0133333
        k(   60) = (   0.0666667   0.3464102  -0.3073752), wk =   0.0066667
        k(   61) = (   0.0666667   0.4233902   0.0000000), wk =   0.0066667
        k(   62) = (   0.0666667   0.4233902   0.0768438), wk =   0.0133333
        k(   63) = (   0.0666667   0.4233902   0.1536876), wk =   0.0133333
        k(   64) = (   0.0666667   0.4233902   0.2305314), wk =   0.0133333
        k(   65) = (   0.0666667   0.4233902  -0.3073752), wk =   0.0066667
        k(   66) = (   0.0666667   0.5003702   0.0000000), wk =   0.0066667
        k(   67) = (   0.0666667   0.5003702   0.0768438), wk =   0.0133333
        k(   68) = (   0.0666667   0.5003702   0.1536876), wk =   0.0133333
        k(   69) = (   0.0666667   0.5003702   0.2305314), wk =   0.0133333
        k(   70) = (   0.0666667   0.5003702  -0.3073752), wk =   0.0066667
        k(   71) = (   0.0666667   0.5773503   0.0000000), wk =   0.0033333
        k(   72) = (   0.0666667   0.5773503   0.0768438), wk =   0.0066667
        k(   73) = (   0.0666667   0.5773503   0.1536876), wk =   0.0066667
        k(   74) = (   0.0666667   0.5773503   0.2305314), wk =   0.0066667
        k(   75) = (   0.0666667   0.5773503  -0.3073752), wk =   0.0033333
        k(   76) = (   0.1333333   0.2309401   0.0000000), wk =   0.0033333
        k(   77) = (   0.1333333   0.2309401   0.0768438), wk =   0.0066667
        k(   78) = (   0.1333333   0.2309401   0.1536876), wk =   0.0066667
        k(   79) = (   0.1333333   0.2309401   0.2305314), wk =   0.0066667
        k(   80) = (   0.1333333   0.2309401  -0.3073752), wk =   0.0033333
        k(   81) = (   0.1333333   0.3079201   0.0000000), wk =   0.0066667
        k(   82) = (   0.1333333   0.3079201   0.0768438), wk =   0.0133333
        k(   83) = (   0.1333333   0.3079201   0.1536876), wk =   0.0133333
        k(   84) = (   0.1333333   0.3079201   0.2305314), wk =   0.0133333
        k(   85) = (   0.1333333   0.3079201  -0.3073752), wk =   0.0066667
        k(   86) = (   0.1333333   0.3849002   0.0000000), wk =   0.0066667
        k(   87) = (   0.1333333   0.3849002   0.0768438), wk =   0.0133333
        k(   88) = (   0.1333333   0.3849002   0.1536876), wk =   0.0133333
        k(   89) = (   0.1333333   0.3849002   0.2305314), wk =   0.0133333
        k(   90) = (   0.1333333   0.3849002  -0.3073752), wk =   0.0066667
        k(   91) = (   0.1333333   0.4618802   0.0000000), wk =   0.0066667
        k(   92) = (   0.1333333   0.4618802   0.0768438), wk =   0.0133333
        k(   93) = (   0.1333333   0.4618802   0.1536876), wk =   0.0133333
        k(   94) = (   0.1333333   0.4618802   0.2305314), wk =   0.0133333
        k(   95) = (   0.1333333   0.4618802  -0.3073752), wk =   0.0066667
        k(   96) = (   0.1333333   0.5388603   0.0000000), wk =   0.0066667
        k(   97) = (   0.1333333   0.5388603   0.0768438), wk =   0.0133333
        k(   98) = (   0.1333333   0.5388603   0.1536876), wk =   0.0133333
        k(   99) = (   0.1333333   0.5388603   0.2305314), wk =   0.0133333
        k(  100) = (   0.1333333   0.5388603  -0.3073752), wk =   0.0066667
        k(  101) = (   0.2000000   0.3464102   0.0000000), wk =   0.0033333
        k(  102) = (   0.2000000   0.3464102   0.0768438), wk =   0.0066667
        k(  103) = (   0.2000000   0.3464102   0.1536876), wk =   0.0066667
        k(  104) = (   0.2000000   0.3464102   0.2305314), wk =   0.0066667
        k(  105) = (   0.2000000   0.3464102  -0.3073752), wk =   0.0033333
        k(  106) = (   0.2000000   0.4233902   0.0000000), wk =   0.0066667
        k(  107) = (   0.2000000   0.4233902   0.0768438), wk =   0.0133333
        k(  108) = (   0.2000000   0.4233902   0.1536876), wk =   0.0133333
        k(  109) = (   0.2000000   0.4233902   0.2305314), wk =   0.0133333
        k(  110) = (   0.2000000   0.4233902  -0.3073752), wk =   0.0066667
        k(  111) = (   0.2000000   0.5003702   0.0000000), wk =   0.0066667
        k(  112) = (   0.2000000   0.5003702   0.0768438), wk =   0.0133333
        k(  113) = (   0.2000000   0.5003702   0.1536876), wk =   0.0133333
        k(  114) = (   0.2000000   0.5003702   0.2305314), wk =   0.0133333
        k(  115) = (   0.2000000   0.5003702  -0.3073752), wk =   0.0066667
        k(  116) = (   0.2000000   0.5773503   0.0000000), wk =   0.0033333
        k(  117) = (   0.2000000   0.5773503   0.0768438), wk =   0.0066667
        k(  118) = (   0.2000000   0.5773503   0.1536876), wk =   0.0066667
        k(  119) = (   0.2000000   0.5773503   0.2305314), wk =   0.0066667
        k(  120) = (   0.2000000   0.5773503  -0.3073752), wk =   0.0033333
        k(  121) = (   0.2666667   0.4618802   0.0000000), wk =   0.0033333
        k(  122) = (   0.2666667   0.4618802   0.0768438), wk =   0.0066667
        k(  123) = (   0.2666667   0.4618802   0.1536876), wk =   0.0066667
        k(  124) = (   0.2666667   0.4618802   0.2305314), wk =   0.0066667
        k(  125) = (   0.2666667   0.4618802  -0.3073752), wk =   0.0033333
        k(  126) = (   0.2666667   0.5388603   0.0000000), wk =   0.0066667
        k(  127) = (   0.2666667   0.5388603   0.0768438), wk =   0.0133333
        k(  128) = (   0.2666667   0.5388603   0.1536876), wk =   0.0133333
        k(  129) = (   0.2666667   0.5388603   0.2305314), wk =   0.0133333
        k(  130) = (   0.2666667   0.5388603  -0.3073752), wk =   0.0066667
        k(  131) = (   0.3333333   0.5773503   0.0000000), wk =   0.0011111
        k(  132) = (   0.3333333   0.5773503   0.0768438), wk =   0.0022222
        k(  133) = (   0.3333333   0.5773503   0.1536876), wk =   0.0022222
        k(  134) = (   0.3333333   0.5773503   0.2305314), wk =   0.0022222
        k(  135) = (   0.3333333   0.5773503  -0.3073752), wk =   0.0011111

                       cryst. coord.
        k(    1) = (   0.0000000   0.0000000   0.0000000), wk =   0.0005556
        k(    2) = (   0.0000000   0.0000000   0.1250000), wk =   0.0011111
        k(    3) = (   0.0000000   0.0000000   0.2500000), wk =   0.0011111
        k(    4) = (   0.0000000   0.0000000   0.3750000), wk =   0.0011111
        k(    5) = (   0.0000000   0.0000000  -0.5000000), wk =   0.0005556
        k(    6) = (   0.0000000   0.0666667   0.0000000), wk =   0.0033333
        k(    7) = (   0.0000000   0.0666667   0.1250000), wk =   0.0066667
        k(    8) = (   0.0000000   0.0666667   0.2500000), wk =   0.0066667
        k(    9) = (   0.0000000   0.0666667   0.3750000), wk =   0.0066667
        k(   10) = (   0.0000000   0.0666667  -0.5000000), wk =   0.0033333
        k(   11) = (   0.0000000   0.1333333   0.0000000), wk =   0.0033333
        k(   12) = (   0.0000000   0.1333333   0.1250000), wk =   0.0066667
        k(   13) = (   0.0000000   0.1333333   0.2500000), wk =   0.0066667
        k(   14) = (   0.0000000   0.1333333   0.3750000), wk =   0.0066667
        k(   15) = (   0.0000000   0.1333333  -0.5000000), wk =   0.0033333
        k(   16) = (   0.0000000   0.2000000   0.0000000), wk =   0.0033333
        k(   17) = (   0.0000000   0.2000000   0.1250000), wk =   0.0066667
        k(   18) = (   0.0000000   0.2000000   0.2500000), wk =   0.0066667
        k(   19) = (   0.0000000   0.2000000   0.3750000), wk =   0.0066667
        k(   20) = (   0.0000000   0.2000000  -0.5000000), wk =   0.0033333
        k(   21) = (   0.0000000   0.2666667   0.0000000), wk =   0.0033333
        k(   22) = (   0.0000000   0.2666667   0.1250000), wk =   0.0066667
        k(   23) = (   0.0000000   0.2666667   0.2500000), wk =   0.0066667
        k(   24) = (   0.0000000   0.2666667   0.3750000), wk =   0.0066667
        k(   25) = (   0.0000000   0.2666667  -0.5000000), wk =   0.0033333
        k(   26) = (   0.0000000   0.3333333   0.0000000), wk =   0.0033333
        k(   27) = (   0.0000000   0.3333333   0.1250000), wk =   0.0066667
        k(   28) = (   0.0000000   0.3333333   0.2500000), wk =   0.0066667
        k(   29) = (   0.0000000   0.3333333   0.3750000), wk =   0.0066667
        k(   30) = (   0.0000000   0.3333333  -0.5000000), wk =   0.0033333
        k(   31) = (   0.0000000   0.4000000   0.0000000), wk =   0.0033333
        k(   32) = (   0.0000000   0.4000000   0.1250000), wk =   0.0066667
        k(   33) = (   0.0000000   0.4000000   0.2500000), wk =   0.0066667
        k(   34) = (   0.0000000   0.4000000   0.3750000), wk =   0.0066667
        k(   35) = (   0.0000000   0.4000000  -0.5000000), wk =   0.0033333
        k(   36) = (   0.0000000   0.4666667   0.0000000), wk =   0.0033333
        k(   37) = (   0.0000000   0.4666667   0.1250000), wk =   0.0066667
        k(   38) = (   0.0000000   0.4666667   0.2500000), wk =   0.0066667
        k(   39) = (   0.0000000   0.4666667   0.3750000), wk =   0.0066667
        k(   40) = (   0.0000000   0.4666667  -0.5000000), wk =   0.0033333
        k(   41) = (   0.0666667   0.0666667   0.0000000), wk =   0.0033333
        k(   42) = (   0.0666667   0.0666667   0.1250000), wk =   0.0066667
        k(   43) = (   0.0666667   0.0666667   0.2500000), wk =   0.0066667
        k(   44) = (   0.0666667   0.0666667   0.3750000), wk =   0.0066667
        k(   45) = (   0.0666667   0.0666667  -0.5000000), wk =   0.0033333
        k(   46) = (   0.0666667   0.1333333   0.0000000), wk =   0.0066667
        k(   47) = (   0.0666667   0.1333333   0.1250000), wk =   0.0133333
        k(   48) = (   0.0666667   0.1333333   0.2500000), wk =   0.0133333
        k(   49) = (   0.0666667   0.1333333   0.3750000), wk =   0.0133333
        k(   50) = (   0.0666667   0.1333333  -0.5000000), wk =   0.0066667
        k(   51) = (   0.0666667   0.2000000   0.0000000), wk =   0.0066667
        k(   52) = (   0.0666667   0.2000000   0.1250000), wk =   0.0133333
        k(   53) = (   0.0666667   0.2000000   0.2500000), wk =   0.0133333
        k(   54) = (   0.0666667   0.2000000   0.3750000), wk =   0.0133333
        k(   55) = (   0.0666667   0.2000000  -0.5000000), wk =   0.0066667
        k(   56) = (   0.0666667   0.2666667   0.0000000), wk =   0.0066667
        k(   57) = (   0.0666667   0.2666667   0.1250000), wk =   0.0133333
        k(   58) = (   0.0666667   0.2666667   0.2500000), wk =   0.0133333
        k(   59) = (   0.0666667   0.2666667   0.3750000), wk =   0.0133333
        k(   60) = (   0.0666667   0.2666667  -0.5000000), wk =   0.0066667
        k(   61) = (   0.0666667   0.3333333   0.0000000), wk =   0.0066667
        k(   62) = (   0.0666667   0.3333333   0.1250000), wk =   0.0133333
        k(   63) = (   0.0666667   0.3333333   0.2500000), wk =   0.0133333
        k(   64) = (   0.0666667   0.3333333   0.3750000), wk =   0.0133333
        k(   65) = (   0.0666667   0.3333333  -0.5000000), wk =   0.0066667
        k(   66) = (   0.0666667   0.4000000   0.0000000), wk =   0.0066667
        k(   67) = (   0.0666667   0.4000000   0.1250000), wk =   0.0133333
        k(   68) = (   0.0666667   0.4000000   0.2500000), wk =   0.0133333
        k(   69) = (   0.0666667   0.4000000   0.3750000), wk =   0.0133333
        k(   70) = (   0.0666667   0.4000000  -0.5000000), wk =   0.0066667
        k(   71) = (   0.0666667   0.4666667   0.0000000), wk =   0.0033333
        k(   72) = (   0.0666667   0.4666667   0.1250000), wk =   0.0066667
        k(   73) = (   0.0666667   0.4666667   0.2500000), wk =   0.0066667
        k(   74) = (   0.0666667   0.4666667   0.3750000), wk =   0.0066667
        k(   75) = (   0.0666667   0.4666667  -0.5000000), wk =   0.0033333
        k(   76) = (   0.1333333   0.1333333   0.0000000), wk =   0.0033333
        k(   77) = (   0.1333333   0.1333333   0.1250000), wk =   0.0066667
        k(   78) = (   0.1333333   0.1333333   0.2500000), wk =   0.0066667
        k(   79) = (   0.1333333   0.1333333   0.3750000), wk =   0.0066667
        k(   80) = (   0.1333333   0.1333333  -0.5000000), wk =   0.0033333
        k(   81) = (   0.1333333   0.2000000   0.0000000), wk =   0.0066667
        k(   82) = (   0.1333333   0.2000000   0.1250000), wk =   0.0133333
        k(   83) = (   0.1333333   0.2000000   0.2500000), wk =   0.0133333
        k(   84) = (   0.1333333   0.2000000   0.3750000), wk =   0.0133333
        k(   85) = (   0.1333333   0.2000000  -0.5000000), wk =   0.0066667
        k(   86) = (   0.1333333   0.2666667   0.0000000), wk =   0.0066667
        k(   87) = (   0.1333333   0.2666667   0.1250000), wk =   0.0133333
        k(   88) = (   0.1333333   0.2666667   0.2500000), wk =   0.0133333
        k(   89) = (   0.1333333   0.2666667   0.3750000), wk =   0.0133333
        k(   90) = (   0.1333333   0.2666667  -0.5000000), wk =   0.0066667
        k(   91) = (   0.1333333   0.3333333   0.0000000), wk =   0.0066667
        k(   92) = (   0.1333333   0.3333333   0.1250000), wk =   0.0133333
        k(   93) = (   0.1333333   0.3333333   0.2500000), wk =   0.0133333
        k(   94) = (   0.1333333   0.3333333   0.3750000), wk =   0.0133333
        k(   95) = (   0.1333333   0.3333333  -0.5000000), wk =   0.0066667
        k(   96) = (   0.1333333   0.4000000   0.0000000), wk =   0.0066667
        k(   97) = (   0.1333333   0.4000000   0.1250000), wk =   0.0133333
        k(   98) = (   0.1333333   0.4000000   0.2500000), wk =   0.0133333
        k(   99) = (   0.1333333   0.4000000   0.3750000), wk =   0.0133333
        k(  100) = (   0.1333333   0.4000000  -0.5000000), wk =   0.0066667
        k(  101) = (   0.2000000   0.2000000   0.0000000), wk =   0.0033333
        k(  102) = (   0.2000000   0.2000000   0.1250000), wk =   0.0066667
        k(  103) = (   0.2000000   0.2000000   0.2500000), wk =   0.0066667
        k(  104) = (   0.2000000   0.2000000   0.3750000), wk =   0.0066667
        k(  105) = (   0.2000000   0.2000000  -0.5000000), wk =   0.0033333
        k(  106) = (   0.2000000   0.2666667   0.0000000), wk =   0.0066667
        k(  107) = (   0.2000000   0.2666667   0.1250000), wk =   0.0133333
        k(  108) = (   0.2000000   0.2666667   0.2500000), wk =   0.0133333
        k(  109) = (   0.2000000   0.2666667   0.3750000), wk =   0.0133333
        k(  110) = (   0.2000000   0.2666667  -0.5000000), wk =   0.0066667
        k(  111) = (   0.2000000   0.3333333   0.0000000), wk =   0.0066667
        k(  112) = (   0.2000000   0.3333333   0.1250000), wk =   0.0133333
        k(  113) = (   0.2000000   0.3333333   0.2500000), wk =   0.0133333
        k(  114) = (   0.2000000   0.3333333   0.3750000), wk =   0.0133333
        k(  115) = (   0.2000000   0.3333333  -0.5000000), wk =   0.0066667
        k(  116) = (   0.2000000   0.4000000   0.0000000), wk =   0.0033333
        k(  117) = (   0.2000000   0.4000000   0.1250000), wk =   0.0066667
        k(  118) = (   0.2000000   0.4000000   0.2500000), wk =   0.0066667
        k(  119) = (   0.2000000   0.4000000   0.3750000), wk =   0.0066667
        k(  120) = (   0.2000000   0.4000000  -0.5000000), wk =   0.0033333
        k(  121) = (   0.2666667   0.2666667   0.0000000), wk =   0.0033333
        k(  122) = (   0.2666667   0.2666667   0.1250000), wk =   0.0066667
        k(  123) = (   0.2666667   0.2666667   0.2500000), wk =   0.0066667
        k(  124) = (   0.2666667   0.2666667   0.3750000), wk =   0.0066667
        k(  125) = (   0.2666667   0.2666667  -0.5000000), wk =   0.0033333
        k(  126) = (   0.2666667   0.3333333   0.0000000), wk =   0.0066667
        k(  127) = (   0.2666667   0.3333333   0.1250000), wk =   0.0133333
        k(  128) = (   0.2666667   0.3333333   0.2500000), wk =   0.0133333
        k(  129) = (   0.2666667   0.3333333   0.3750000), wk =   0.0133333
        k(  130) = (   0.2666667   0.3333333  -0.5000000), wk =   0.0066667
        k(  131) = (   0.3333333   0.3333333   0.0000000), wk =   0.0011111
        k(  132) = (   0.3333333   0.3333333   0.1250000), wk =   0.0022222
        k(  133) = (   0.3333333   0.3333333   0.2500000), wk =   0.0022222
        k(  134) = (   0.3333333   0.3333333   0.3750000), wk =   0.0022222
        k(  135) = (   0.3333333   0.3333333  -0.5000000), wk =   0.0011111

     Dense  grid:    16551 G-vectors     FFT dimensions: (  30,  30,  48)

     Dynamical RAM for                 wfc:       0.03 MB

     Dynamical RAM for     wfc (w. buffer):       8.94 MB

     Dynamical RAM for           str. fact:       0.01 MB

     Dynamical RAM for           local pot:       0.00 MB

     Dynamical RAM for          nlocal pot:       0.06 MB

     Dynamical RAM for                qrad:       1.52 MB

     Dynamical RAM for          rho,v,vnew:       0.20 MB

     Dynamical RAM for               rhoin:       0.07 MB

     Dynamical RAM for            rho*nmix:       0.40 MB

     Dynamical RAM for           G-vectors:       0.05 MB

     Dynamical RAM for          h,s,v(r/c):       0.08 MB

     Dynamical RAM for          <psi|beta>:       0.01 MB

     Dynamical RAM for                 psi:       0.07 MB

     Dynamical RAM for                hpsi:       0.07 MB

     Dynamical RAM for                spsi:       0.07 MB

     Dynamical RAM for      wfcinit/wfcrot:       0.08 MB

     Dynamical RAM for           addusdens:       2.39 MB

     Estimated static dynamical RAM per process >      11.01 MB

     Estimated max dynamical RAM per process >      13.80 MB

     Estimated total dynamical RAM >     276.01 MB

     Check: negative core charge=   -0.000067
     Generating pointlists ...
     new r_m :   0.4114 (alat units)  1.9220 (a.u.) for type    1

     The initial density is read from file :
     ./out/Co.save/charge-density

     Starting wfcs from file
     Checking if some PAW data can be deallocated... 

     total cpu time spent up to now is        0.9 secs

     Self-consistent Calculation

     iteration #  1     ecut=    90.00 Ry     beta= 0.40
     Davidson diagonalization with overlap

---- Real-time Memory Report at c_bands before calling an iterative solver
            54 MiB given to the printing process from OS
             0 MiB allocation reported by mallinfo(arena+hblkhd)
        333851 MiB available memory on the node where the printing process lives
------------------
     ethr =  1.00E-05,  avg # of iterations =  8.3

     Threshold (ethr) on eigenvalues was too large:
     Diagonalizing with lowered threshold

     Davidson diagonalization with overlap

---- Real-time Memory Report at c_bands before calling an iterative solver
            62 MiB given to the printing process from OS
             0 MiB allocation reported by mallinfo(arena+hblkhd)
        333686 MiB available memory on the node where the printing process lives
------------------
     ethr =  9.05E-08,  avg # of iterations =  9.1

     total cpu time spent up to now is       14.8 secs

     total energy              =    -753.50338450 Ry
     estimated scf accuracy    <       0.00003005 Ry

     total magnetization       =     1.28 Bohr mag/cell
     absolute magnetization    =     1.39 Bohr mag/cell

     iteration #  2     ecut=    90.00 Ry     beta= 0.40
     Davidson diagonalization with overlap

---- Real-time Memory Report at c_bands before calling an iterative solver
            75 MiB given to the printing process from OS
             0 MiB allocation reported by mallinfo(arena+hblkhd)
        333623 MiB available memory on the node where the printing process lives
------------------
     ethr =  8.84E-08,  avg # of iterations =  3.3

     total cpu time spent up to now is       18.0 secs

     total energy              =    -753.50339678 Ry
     estimated scf accuracy    <       0.00000794 Ry

     total magnetization       =     1.28 Bohr mag/cell
     absolute magnetization    =     1.39 Bohr mag/cell

     iteration #  3     ecut=    90.00 Ry     beta= 0.40
     Davidson diagonalization with overlap

---- Real-time Memory Report at c_bands before calling an iterative solver
            77 MiB given to the printing process from OS
             0 MiB allocation reported by mallinfo(arena+hblkhd)
        333611 MiB available memory on the node where the printing process lives
------------------
     ethr =  2.34E-08,  avg # of iterations =  2.1

     total cpu time spent up to now is       20.5 secs

     total energy              =    -753.50340302 Ry
     estimated scf accuracy    <       0.00000203 Ry

     total magnetization       =     1.28 Bohr mag/cell
     absolute magnetization    =     1.39 Bohr mag/cell

     iteration #  4     ecut=    90.00 Ry     beta= 0.40
     Davidson diagonalization with overlap

---- Real-time Memory Report at c_bands before calling an iterative solver
            78 MiB given to the printing process from OS
             0 MiB allocation reported by mallinfo(arena+hblkhd)
        333603 MiB available memory on the node where the printing process lives
------------------
     ethr =  5.97E-09,  avg # of iterations =  5.8

     total cpu time spent up to now is       24.6 secs

     total energy              =    -753.50340395 Ry
     estimated scf accuracy    <       0.00000099 Ry

     total magnetization       =     1.29 Bohr mag/cell
     absolute magnetization    =     1.39 Bohr mag/cell

     iteration #  5     ecut=    90.00 Ry     beta= 0.40
     Davidson diagonalization with overlap

---- Real-time Memory Report at c_bands before calling an iterative solver
            79 MiB given to the printing process from OS
             0 MiB allocation reported by mallinfo(arena+hblkhd)
        333595 MiB available memory on the node where the printing process lives
------------------
     ethr =  2.90E-09,  avg # of iterations =  4.2

     total cpu time spent up to now is       28.3 secs

     total energy              =    -753.50340357 Ry
     estimated scf accuracy    <       0.00000026 Ry

     total magnetization       =     1.29 Bohr mag/cell
     absolute magnetization    =     1.39 Bohr mag/cell

     iteration #  6     ecut=    90.00 Ry     beta= 0.40
     Davidson diagonalization with overlap

---- Real-time Memory Report at c_bands before calling an iterative solver
            80 MiB given to the printing process from OS
             0 MiB allocation reported by mallinfo(arena+hblkhd)
        333634 MiB available memory on the node where the printing process lives
------------------
     ethr =  7.62E-10,  avg # of iterations =  6.0

     total cpu time spent up to now is       33.3 secs

     total energy              =    -753.50340513 Ry
     estimated scf accuracy    <       0.00000232 Ry

     total magnetization       =     1.30 Bohr mag/cell
     absolute magnetization    =     1.40 Bohr mag/cell

     iteration #  7     ecut=    90.00 Ry     beta= 0.40
     Davidson diagonalization with overlap

---- Real-time Memory Report at c_bands before calling an iterative solver
            82 MiB given to the printing process from OS
             0 MiB allocation reported by mallinfo(arena+hblkhd)
        333627 MiB available memory on the node where the printing process lives
------------------
     ethr =  7.62E-10,  avg # of iterations =  1.2

     total cpu time spent up to now is       35.6 secs

     total energy              =    -753.50339825 Ry
     estimated scf accuracy    <       0.00000246 Ry

     total magnetization       =     1.30 Bohr mag/cell
     absolute magnetization    =     1.40 Bohr mag/cell

     iteration #  8     ecut=    90.00 Ry     beta= 0.40
     Davidson diagonalization with overlap

---- Real-time Memory Report at c_bands before calling an iterative solver
            83 MiB given to the printing process from OS
             0 MiB allocation reported by mallinfo(arena+hblkhd)
        333620 MiB available memory on the node where the printing process lives
------------------
     ethr =  7.62E-10,  avg # of iterations =  6.0

     total cpu time spent up to now is       40.4 secs

     total energy              =    -753.50340514 Ry
     estimated scf accuracy    <       0.00000013 Ry

     total magnetization       =     1.32 Bohr mag/cell
     absolute magnetization    =     1.42 Bohr mag/cell

     iteration #  9     ecut=    90.00 Ry     beta= 0.40
     Davidson diagonalization with overlap

---- Real-time Memory Report at c_bands before calling an iterative solver
            83 MiB given to the printing process from OS
             0 MiB allocation reported by mallinfo(arena+hblkhd)
        333652 MiB available memory on the node where the printing process lives
------------------
     ethr =  3.92E-10,  avg # of iterations =  1.9
 
     Magnetic moment per site  (integrated on atomic sphere of radius R)
     atom   1 (R=0.411)  charge= 15.5903  magn=  0.6829
     atom   2 (R=0.411)  charge= 15.5903  magn=  0.6829

     total cpu time spent up to now is       42.9 secs

     End of self-consistent calculation

 ------ SPIN UP ------------


          k = 0.0000 0.0000 0.0000 (  2081 PWs)   bands (ev):

   -76.4055 -76.3443 -39.8291 -39.5226 -39.5226 -39.4744 -39.4724 -39.4724
    10.0064  14.1283  16.9133  16.9656  16.9656  17.2985  17.2985  17.6999
    17.6999  18.7876  18.8520  18.8520  25.8031

     occupation numbers 
     1.0000   1.0000   1.0000   1.0000   1.0000   1.0000   1.0000   1.0000
     1.0000   1.0000   0.9991   0.9989   0.9989   0.9950   0.9950   0.9778
     0.9778   0.6818   0.6486   0.6486   0.0000

          k = 0.0000 0.0000 0.0768 (  2051 PWs)   bands (ev):

   -76.4032 -76.3466 -39.8157 -39.5206 -39.5206 -39.4881 -39.4742 -39.4742
    10.1643  14.0717  16.8685  16.9248  16.9248  17.2542  17.2542  17.7997
    17.7997  18.2625  18.8435  18.8435  26.6655

     occupation numbers 
     1.0000   1.0000   1.0000   1.0000   1.0000   1.0000   1.0000   1.0000
     1.0000   1.0000   0.9993   0.9991   0.9991   0.9959   0.9959   0.9693
     0.9693   0.8879   0.6531   0.6531   0.0000

          k = 0.0000 0.0000 0.1537 (  2051 PWs)   bands (ev):

   -76.3966 -76.3532 -39.7778 -39.5271 -39.5152 -39.5152 -39.4796 -39.4796
    10.6275  13.8162  16.7487  16.8640  16.8640  17.1422  17.1422  17.3052
    18.0273  18.0273  18.8017  18.8017  28.7086

     occupation numbers 
     1.0000   1.0000   1.0000   1.0000   1.0000   1.0000   1.0000   1.0000
     1.0000   1.0000   0.9996   0.9993   0.9993   0.9974   0.9974   0.9949
     0.9392   0.9392   0.6746   0.6746   0.0000

          k = 0.0000 0.0000 0.2305 (  2051 PWs)   bands (ev):

   -76.3866 -76.3632 -39.7207 -39.5849 -39.5071 -39.5071 -39.4878 -39.4878
    11.3594  13.1905  16.6012  16.6779  16.8504  16.8504  17.0098  17.0098
    18.2884  18.2884  18.6994  18.6994  31.3109

     occupation numbers 
     1.0000   1.0000   1.0000   1.0000   1.0000   1.0000   1.0000   1.0000
     1.0000   1.0000   0.9998   0.9997   0.9993   0.9993   0.9986   0.9986
     0.8808   0.8808   0.7249   0.7249   0.0000

          k = 0.0000 0.0000-0.3074 (  2062 PWs)   bands (ev):

   -76.3749 -76.3749 -39.6530 -39.6530 -39.4975 -39.4975 -39.4975 -39.4975
    12.2756  12.2756  16.5184  16.5184  16.9025  16.9025  16.9025  16.9025
    18.5240  18.5240  18.5240  18.5240  34.1931

     occupation numbers 
     1.0000   1.0000   1.0000   1.0000   1.0000   1.0000   1.0000   1.0000
     1.0000   1.0000   0.9999   0.9999   0.9992   0.9992   0.9992   0.9992
     0.8011   0.8011   0.8011   0.8011   0.0000

          k = 0.0000 0.0770 0.0000 (  2049 PWs)   bands (ev):

   -76.4032 -76.3431 -39.8240 -39.5338 -39.5262 -39.4839 -39.4764 -39.4742
    10.1647  14.2299  16.7538  17.0438  17.1000  17.2587  17.3681  17.5818
    17.6497  17.9337  18.8734  19.9261  25.8230

     occupation numbers 
     1.0000   1.0000   1.0000   1.0000   1.0000   1.0000   1.0000   1.0000
     1.0000   1.0000   0.9996   0.9984   0.9979   0.9958   0.9934   0.9853
     0.9813   0.9536   0.6373   0.1277   0.0000

          k = 0.0000 0.0770 0.0768 (  2058 PWs)   bands (ev):

   -76.4009 -76.3454 -39.8112 -39.5317 -39.5242 -39.4961 -39.4796 -39.4762
    10.3211  14.1787  16.7456  16.9958  17.0020  17.1575  17.3204  17.6392
    17.7612  17.8338  18.8617  19.5751  26.7158

     occupation numbers 
     1.0000   1.0000   1.0000   1.0000   1.0000   1.0000   1.0000   1.0000
     1.0000   1.0000   0.9996   0.9987   0.9986   0.9973   0.9946   0.9820
     0.9728   0.9657   0.6436   0.2608   0.0000

          k = 0.0000 0.0770 0.1537 (  2061 PWs)   bands (ev):

   -76.3944 -76.3520 -39.7746 -39.5333 -39.5256 -39.5186 -39.4861 -39.4818
    10.7799  13.9357  16.7264  16.8155  16.8401  16.9284  17.2067  17.3266
    18.0018  18.0209  18.8122  19.1153  28.7925

     occupation numbers 
     1.0000   1.0000   1.0000   1.0000   1.0000   1.0000   1.0000   1.0000
     1.0000   1.0000   0.9996   0.9994   0.9994   0.9990   0.9966   0.9944
     0.9434   0.9403   0.6693   0.5037   0.0000

          k = 0.0000 0.0770 0.2305 (  2051 PWs)   bands (ev):

   -76.3847 -76.3617 -39.7196 -39.5889 -39.5166 -39.5102 -39.4952 -39.4903
    11.5047  13.3193  16.4804  16.5759  16.8037  16.9133  17.0695  17.0739
    18.2715  18.3041  18.7002  18.8296  31.4108

     occupation numbers 
     1.0000   1.0000   1.0000   1.0000   1.0000   1.0000   1.0000   1.0000
     1.0000   1.0000   0.9999   0.9998   0.9995   0.9991   0.9981   0.9981
     0.8854   0.8763   0.7245   0.6604   0.0000

          k = 0.0000 0.0770-0.3074 (  2048 PWs)   bands (ev):

   -76.3732 -76.3732 -39.6544 -39.6544 -39.5059 -39.5059 -39.5002 -39.5002
    12.4124  12.4124  16.4312  16.4312  16.9018  16.9018  16.9658  16.9658
    18.5156  18.5156  18.5779  18.5779  34.3014

     occupation numbers 
     1.0000   1.0000   1.0000   1.0000   1.0000   1.0000   1.0000   1.0000
     1.0000   1.0000   0.9999   0.9999   0.9992   0.9992   0.9989   0.9989
     0.8044   0.8044   0.7791   0.7791   0.0000

          k = 0.0000 0.1540 0.0000 (  2068 PWs)   bands (ev):

   -76.3967 -76.3401 -39.8094 -39.5658 -39.5364 -39.5169 -39.4824 -39.4797
    10.6295  14.5042  16.5224  16.9323  17.1116  17.2690  17.3289  17.5181
    17.5673  17.6483  18.9238  21.1708  25.8909

     occupation numbers 
     1.0000   1.0000   1.0000   1.0000   1.0000   1.0000   1.0000   1.0000
     1.0000   1.0000   0.9999   0.9990   0.9978   0.9956   0.9944   0.9883
     0.9860   0.9814   0.6103   0.0019   0.0000

          k = 0.0000 0.1540 0.0768 (  2063 PWs)   bands (ev):

   -76.3945 -76.3423 -39.7982 -39.5630 -39.5342 -39.5262 -39.4874 -39.4818
    10.7809  14.4703  16.5358  16.7036  17.0393  17.1832  17.3238  17.4987
    17.6925  17.7737  18.9046  20.6237  26.8808

     occupation numbers 
     1.0000   1.0000   1.0000   1.0000   1.0000   1.0000   1.0000   1.0000
     1.0000   1.0000   0.9999   0.9997   0.9984   0.9969   0.9945   0.9891
     0.9784   0.9717   0.6207   0.0168   0.0000

          k = 0.0000 0.1540 0.1537 (  2064 PWs)   bands (ev):

   -76.3884 -76.3484 -39.7660 -39.5590 -39.5519 -39.5281 -39.4987 -39.4880
    11.2244  14.2662  16.3311  16.5852  16.7849  17.0976  17.2508  17.3900
    17.9560  18.0389  18.8362  19.7732  29.0513

     occupation numbers 
     1.0000   1.0000   1.0000   1.0000   1.0000   1.0000   1.0000   1.0000
     1.0000   1.0000   1.0000   0.9998   0.9995   0.9979   0.9959   0.9928
     0.9504   0.9372   0.6569   0.1785   0.0000

          k = 0.0000 0.1540 0.2305 (  2046 PWs)   bands (ev):

   -76.3792 -76.3576 -39.7177 -39.6039 -39.5421 -39.5189 -39.5125 -39.4972
    11.9243  13.6780  16.1505  16.4985  16.6910  17.0629  17.0840  17.2563
    18.2388  18.3661  18.7018  19.1624  31.7090

     occupation numbers 
     1.0000   1.0000   1.0000   1.0000   1.0000   1.0000   1.0000   1.0000
     1.0000   1.0000   1.0000   0.9999   0.9997   0.9982   0.9980   0.9958
     0.8942   0.8574   0.7238   0.4772   0.0000

          k = 0.0000 0.1540-0.3074 (  2028 PWs)   bands (ev):

   -76.3684 -76.3684 -39.6606 -39.6606 -39.5275 -39.5275 -39.5080 -39.5080
    12.8001  12.8001  16.2539  16.2539  16.8553  16.8553  17.1432  17.1432
    18.4976  18.4976  18.7304  18.7304  34.6143

     occupation numbers 
     1.0000   1.0000   1.0000   1.0000   1.0000   1.0000   1.0000   1.0000
     1.0000   1.0000   1.0000   1.0000   0.9993   0.9993   0.9974   0.9974
     0.8113   0.8113   0.7101   0.7101   0.0000

          k = 0.0000 0.2309 0.0000 (  2062 PWs)   bands (ev):

   -76.3868 -76.3358 -39.7867 -39.6132 -39.5646 -39.5510 -39.4925 -39.4880
    11.3666  14.8431  16.2563  16.2900  16.9763  17.3441  17.4862  17.6117
    17.6162  17.8712  18.9794  22.5406  26.0273

     occupation numbers 
     1.0000   1.0000   1.0000   1.0000   1.0000   1.0000   1.0000   1.0000
     1.0000   1.0000   1.0000   1.0000   0.9988   0.9940   0.9896   0.9836
     0.9834   0.9615   0.5798   0.0000   0.0000

          k = 0.0000 0.2309 0.0768 (  2070 PWs)   bands (ev):

   -76.3849 -76.3378 -39.7786 -39.6088 -39.5731 -39.5486 -39.4968 -39.4905
    11.5070  14.8380  16.1138  16.3186  16.9129  17.3004  17.3434  17.6985
    17.8138  17.8550  18.9514  21.7369  27.1968

     occupation numbers 
     1.0000   1.0000   1.0000   1.0000   1.0000   1.0000   1.0000   1.0000
     1.0000   1.0000   1.0000   1.0000   0.9991   0.9950   0.9941   0.9779
     0.9678   0.9634   0.5953   0.0001   0.0000

          k = 0.0000 0.2309 0.1537 (  2065 PWs)   bands (ev):

   -76.3793 -76.3433 -39.7552 -39.6035 -39.5898 -39.5418 -39.5093 -39.4973
    11.9170  14.6972  15.8676  16.3922  16.7127  17.2058  17.2666  17.6674
    17.9953  18.1097  18.8626  20.5335  29.4944

     occupation numbers 
     1.0000   1.0000   1.0000   1.0000   1.0000   1.0000   1.0000   1.0000
     1.0000   1.0000   1.0000   0.9999   0.9997   0.9966   0.9957   0.9802
     0.9444   0.9239   0.6431   0.0229   0.0000

          k = 0.0000 0.2309 0.2305 (  2050 PWs)   bands (ev):

   -76.3711 -76.3516 -39.7199 -39.6361 -39.5739 -39.5316 -39.5283 -39.5075
    12.5593  14.1573  15.8660  16.3602  16.6060  17.0197  17.2973  17.5280
    18.2451  18.4787  18.7083  19.6025  32.1789

     occupation numbers 
     1.0000   1.0000   1.0000   1.0000   1.0000   1.0000   1.0000   1.0000
     1.0000   1.0000   1.0000   1.0000   0.9998   0.9985   0.9951   0.9879
     0.8925   0.8185   0.7207   0.2484   0.0000

          k = 0.0000 0.2309-0.3074 (  2050 PWs)   bands (ev):

   -76.3613 -76.3613 -39.6781 -39.6781 -39.5511 -39.5511 -39.5196 -39.5196
    13.3560  13.3560  16.0866  16.0866  16.7925  16.7925  17.3916  17.3916
    18.4950  18.4950  18.9532  18.9532  34.9704

     occupation numbers 
     1.0000   1.0000   1.0000   1.0000   1.0000   1.0000   1.0000   1.0000
     1.0000   1.0000   1.0000   1.0000   0.9995   0.9995   0.9928   0.9928
     0.8123   0.8123   0.5943   0.5943   0.0000

          k = 0.0000 0.3079 0.0000 (  2072 PWs)   bands (ev):

   -76.3750 -76.3314 -39.7582 -39.6679 -39.6188 -39.5675 -39.5066 -39.4980
    12.3021  15.0322  15.7119  16.1786  16.9238  17.1633  17.3169  18.0198
    18.0384  18.2382  19.0255  24.0223  26.2269

     occupation numbers 
     1.0000   1.0000   1.0000   1.0000   1.0000   1.0000   1.0000   1.0000
     1.0000   1.0000   1.0000   1.0000   0.9991   0.9972   0.9947   0.9404
     0.9373   0.8943   0.5542   0.0000   0.0000

          k = 0.0000 0.3079 0.0768 (  2073 PWs)   bands (ev):

   -76.3733 -76.3330 -39.7569 -39.6590 -39.6263 -39.5649 -39.5093 -39.5006
    12.4196  15.0518  15.6333  16.2086  16.8229  17.1949  17.3489  18.0650
    18.0729  18.2012  18.9908  22.8582  27.6789

     occupation numbers 
     1.0000   1.0000   1.0000   1.0000   1.0000   1.0000   1.0000   1.0000
     1.0000   1.0000   1.0000   1.0000   0.9994   0.9968   0.9939   0.9325
     0.9310   0.9035   0.5735   0.0000   0.0000

          k = 0.0000 0.3079 0.1537 (  2070 PWs)   bands (ev):

   -76.3686 -76.3378 -39.7503 -39.6551 -39.6272 -39.5573 -39.5192 -39.5082
    12.7585  14.9585  15.5428  16.2715  16.6712  17.2883  17.3084  18.0174
    18.2230  18.2658  18.8914  21.3287  30.0470

     occupation numbers 
     1.0000   1.0000   1.0000   1.0000   1.0000   1.0000   1.0000   1.0000
     1.0000   1.0000   1.0000   1.0000   0.9997   0.9952   0.9948   0.9408
     0.8982   0.8870   0.6278   0.0009   0.0000

          k = 0.0000 0.3079 0.2305 (  2054 PWs)   bands (ev):

   -76.3615 -76.3448 -39.7349 -39.6820 -39.5972 -39.5460 -39.5379 -39.5194
    13.2765  14.5129  15.6986  16.2041  16.6894  17.1398  17.4380  17.8363
    18.3744  18.6348  18.7403  20.1007  32.2011

     occupation numbers 
     1.0000   1.0000   1.0000   1.0000   1.0000   1.0000   1.0000   1.0000
     1.0000   1.0000   1.0000   1.0000   0.9997   0.9975   0.9914   0.9655
     0.8548   0.7545   0.7053   0.0831   0.0000

          k = 0.0000 0.3079-0.3074 (  2050 PWs)   bands (ev):

   -76.3532 -76.3532 -39.7110 -39.7110 -39.5650 -39.5650 -39.5328 -39.5328
    13.8979  13.8979  15.9632  15.9632  16.9002  16.9002  17.6293  17.6293
    18.5587  18.5587  19.2217  19.2217  33.2036

     occupation numbers 
     1.0000   1.0000   1.0000   1.0000   1.0000   1.0000   1.0000   1.0000
     1.0000   1.0000   1.0000   1.0000   0.9992   0.9992   0.9826   0.9826
     0.7871   0.7871   0.4439   0.4439   0.0000

          k = 0.0000 0.3849 0.0000 (  2070 PWs)   bands (ev):

   -76.3630 -76.3278 -39.7269 -39.7205 -39.6697 -39.5829 -39.5240 -39.5077
    13.2843  14.9621  15.3067  16.2339  17.0037  17.0439  17.1600  18.4654
    18.5999  18.6155  19.0575  25.5958  26.1876

     occupation numbers 
     1.0000   1.0000   1.0000   1.0000   1.0000   1.0000   1.0000   1.0000
     1.0000   1.0000   1.0000   1.0000   0.9986   0.9984   0.9972   0.8234
     0.7698   0.7630   0.5363   0.0000   0.0000

          k = 0.0000 0.3849 0.0768 (  2068 PWs)   bands (ev):

   -76.3617 -76.3291 -39.7501 -39.6931 -39.6730 -39.5801 -39.5248 -39.5106
    13.3529  14.9737  15.3185  16.1687  16.9658  17.0583  17.3570  18.4814
    18.5568  18.5700  19.0237  23.8817  27.8897

     occupation numbers 
     1.0000   1.0000   1.0000   1.0000   1.0000   1.0000   1.0000   1.0000
     1.0000   1.0000   1.0000   1.0000   0.9989   0.9982   0.9937   0.8175
     0.7879   0.7824   0.5552   0.0000   0.0000

          k = 0.0000 0.3849 0.1537 (  2072 PWs)   bands (ev):

   -76.3579 -76.3330 -39.7641 -39.7041 -39.6430 -39.5720 -39.5300 -39.5188
    13.5491  14.8850  15.3970  16.1086  16.9394  17.2170  17.6245  18.3637
    18.5459  18.5526  18.9411  22.1271  29.0525

     occupation numbers 
     1.0000   1.0000   1.0000   1.0000   1.0000   1.0000   1.0000   1.0000
     1.0000   1.0000   1.0000   1.0000   0.9990   0.9965   0.9829   0.8582
     0.7924   0.7896   0.6009   0.0000   0.0000

          k = 0.0000 0.3849 0.2305 (  2066 PWs)   bands (ev):

   -76.3521 -76.3387 -39.7642 -39.7292 -39.6036 -39.5598 -39.5442 -39.5310
    13.8474  14.5888  15.6007  16.0391  17.0832  17.4632  17.6488  18.0866
    18.6284  18.8327  18.8382  20.6667  29.8067

     occupation numbers 
     1.0000   1.0000   1.0000   1.0000   1.0000   1.0000   1.0000   1.0000
     1.0000   1.0000   1.0000   1.0000   0.9980   0.9905   0.9814   0.9284
     0.7574   0.6587   0.6559   0.0145   0.0000

          k = 0.0000 0.3849-0.3074 (  2066 PWs)   bands (ev):

   -76.3454 -76.3454 -39.7514 -39.7514 -39.5692 -39.5692 -39.5454 -39.5454
    14.2113  14.2113  15.8477  15.8477  17.3891  17.3891  17.7675  17.7675
    18.7302  18.7302  19.5568  19.5568  30.6564

     occupation numbers 
     1.0000   1.0000   1.0000   1.0000   1.0000   1.0000   1.0000   1.0000
     1.0000   1.0000   1.0000   1.0000   0.9929   0.9929   0.9723   0.9723
     0.7102   0.7102   0.2692   0.2692   0.0000

          k = 0.0000 0.4619 0.0000 (  2064 PWs)   bands (ev):

   -76.3527 -76.3259 -39.7620 -39.7089 -39.6972 -39.5948 -39.5428 -39.5155
    14.0549  14.7969  15.0392  16.4378  16.8859  17.0395  17.2280  18.8061
    18.9433  19.0766  19.4228  24.8766  27.2101

     occupation numbers 
     1.0000   1.0000   1.0000   1.0000   1.0000   1.0000   1.0000   1.0000
     1.0000   1.0000   1.0000   0.9999   0.9992   0.9984   0.9963   0.6724
     0.5997   0.5255   0.3352   0.0000   0.0000

          k = 0.0000 0.4619 0.0768 (  2070 PWs)   bands (ev):

   -76.3517 -76.3269 -39.7742 -39.7197 -39.6755 -39.5918 -39.5414 -39.5185
    14.0305  14.7834  15.1936  16.1358  16.9511  17.2090  17.4729  18.8073
    18.8553  19.0681  19.3345  24.1419  27.0914

     occupation numbers 
     1.0000   1.0000   1.0000   1.0000   1.0000   1.0000   1.0000   1.0000
     1.0000   1.0000   1.0000   1.0000   0.9989   0.9966   0.9902   0.6718
     0.6469   0.5303   0.3818   0.0000   0.0000

          k = 0.0000 0.4619 0.1537 (  2075 PWs)   bands (ev):

   -76.3488 -76.3298 -39.7897 -39.7420 -39.6375 -39.5833 -39.5414 -39.5272
    14.0239  14.7423  15.4100  15.9070  17.1412  17.2446  18.1735  18.5780
    18.8511  19.0404  19.0789  22.7057  27.2754

     occupation numbers 
     1.0000   1.0000   1.0000   1.0000   1.0000   1.0000   1.0000   1.0000
     1.0000   1.0000   1.0000   1.0000   0.9975   0.9960   0.9101   0.7791
     0.6491   0.5459   0.5243   0.0000   0.0000

          k = 0.0000 0.4619 0.2305 (  2069 PWs)   bands (ev):

   -76.3444 -76.3342 -39.7944 -39.7669 -39.5997 -39.5704 -39.5495 -39.5401
    14.1102  14.5542  15.5497  15.8831  17.4384  17.5217  18.2117  18.5660
    18.8943  18.9973  19.0896  21.2778  27.7448

     occupation numbers 
     1.0000   1.0000   1.0000   1.0000   1.0000   1.0000   1.0000   1.0000
     1.0000   1.0000   1.0000   1.0000   0.9914   0.9882   0.9010   0.7841
     0.6262   0.5699   0.5182   0.0011   0.0000

          k = 0.0000 0.4619-0.3074 (  2068 PWs)   bands (ev):

   -76.3393 -76.3393 -39.7861 -39.7861 -39.5691 -39.5691 -39.5552 -39.5552
    14.3013  14.3013  15.7420  15.7420  17.8109  17.8109  18.0472  18.0472
    18.9458  18.9458  20.0567  20.0567  28.4407

     occupation numbers 
     1.0000   1.0000   1.0000   1.0000   1.0000   1.0000   1.0000   1.0000
     1.0000   1.0000   1.0000   1.0000   0.9681   0.9681   0.9357   0.9357
     0.5983   0.5983   0.0931   0.0931   0.0000

          k = 0.0000 0.5389 0.0000 (  2062 PWs)   bands (ev):

   -76.3464 -76.3255 -39.7846 -39.7302 -39.6771 -39.6013 -39.5569 -39.5198
    14.4503  14.6471  14.9063  16.6911  16.8235  16.9743  17.3341  18.9906
    19.0852  19.1420  20.4691  23.1345  28.6132

     occupation numbers 
     1.0000   1.0000   1.0000   1.0000   1.0000   1.0000   1.0000   1.0000
     1.0000   1.0000   1.0000   0.9997   0.9994   0.9988   0.9943   0.5737
     0.5207   0.4887   0.0284   0.0000   0.0000

          k = 0.0000 0.5389 0.0768 (  2068 PWs)   bands (ev):

   -76.3457 -76.3263 -39.7935 -39.7399 -39.6614 -39.5982 -39.5540 -39.5229
    14.3069  14.6443  15.1895  16.1393  16.8933  17.3264  17.6594  18.9286
    19.0372  19.1472  20.3349  22.9641  27.8654

     occupation numbers 
     1.0000   1.0000   1.0000   1.0000   1.0000   1.0000   1.0000   1.0000
     1.0000   1.0000   1.0000   1.0000   0.9992   0.9944   0.9807   0.6077
     0.5476   0.4857   0.0431   0.0000   0.0000

          k = 0.0000 0.5389 0.1537 (  2071 PWs)   bands (ev):

   -76.3434 -76.3286 -39.8074 -39.7627 -39.6285 -39.5894 -39.5500 -39.5318
    14.1672  14.6584  15.5444  15.7252  17.0970  17.3926  18.5421  18.6503
    19.0398  19.1367  19.9501  22.4361  27.0853

     occupation numbers 
     1.0000   1.0000   1.0000   1.0000   1.0000   1.0000   1.0000   1.0000
     1.0000   1.0000   1.0000   1.0000   0.9979   0.9928   0.7939   0.7476
     0.5462   0.4916   0.1208   0.0000   0.0000

          k = 0.0000 0.5389 0.2305 (  2077 PWs)   bands (ev):

   -76.3400 -76.3320 -39.8128 -39.7875 -39.5947 -39.5762 -39.5534 -39.5450
    14.1682  14.5256  15.5436  15.7841  17.4159  17.7578  18.2512  19.0614
    19.0761  19.1151  19.7494  21.6073  26.8058

     occupation numbers 
     1.0000   1.0000   1.0000   1.0000   1.0000   1.0000   1.0000   1.0000
     1.0000   1.0000   1.0000   1.0000   0.9921   0.9731   0.8909   0.5341
     0.5258   0.5039   0.1874   0.0002   0.0000

          k = 0.0000 0.5389-0.3074 (  2068 PWs)   bands (ev):

   -76.3360 -76.3360 -39.8058 -39.8058 -39.5683 -39.5683 -39.5606 -39.5606
    14.3076  14.3076  15.6808  15.6808  17.8172  17.8172  18.4294  18.4294
    19.0883  19.0883  20.6403  20.6403  26.9820

     occupation numbers 
     1.0000   1.0000   1.0000   1.0000   1.0000   1.0000   1.0000   1.0000
     1.0000   1.0000   1.0000   1.0000   0.9675   0.9675   0.8363   0.8363
     0.5190   0.5190   0.0159   0.0159   0.0000

          k = 0.0667 0.1155 0.0000 (  2051 PWs)   bands (ev):

   -76.3988 -76.3411 -39.8142 -39.5540 -39.5358 -39.5039 -39.4804 -39.4790
    10.4765  14.4193  16.5832  17.1468  17.1721  17.2084  17.2220  17.4941
    17.5158  17.7448  18.9042  20.8258  25.8674

     occupation numbers 
     1.0000   1.0000   1.0000   1.0000   1.0000   1.0000   1.0000   1.0000
     1.0000   1.0000   0.9998   0.9974   0.9971   0.9966   0.9964   0.9893
     0.9884   0.9743   0.6209   0.0080   0.0000

          k = 0.0667 0.1155 0.0768 (  2057 PWs)   bands (ev):

   -76.3966 -76.3433 -39.8024 -39.5515 -39.5343 -39.5135 -39.4849 -39.4810
    10.6296  14.3795  16.5921  16.8616  17.0561  17.1329  17.3295  17.4415
    17.7054  17.8011  18.8879  20.3351  26.8240

     occupation numbers 
     1.0000   1.0000   1.0000   1.0000   1.0000   1.0000   1.0000   1.0000
     1.0000   1.0000   0.9998   0.9993   0.9983   0.9975   0.9944   0.9913
     0.9774   0.9691   0.6297   0.0431   0.0000

          k = 0.0667 0.1155 0.1537 (  2063 PWs)   bands (ev):

   -76.3904 -76.3496 -39.7687 -39.5488 -39.5442 -39.5257 -39.4942 -39.4870
    11.0787  14.1623  16.4670  16.6302  16.7944  17.0531  17.2655  17.3301
    17.9955  18.0061  18.8274  19.5831  28.9644

     occupation numbers 
     1.0000   1.0000   1.0000   1.0000   1.0000   1.0000   1.0000   1.0000
     1.0000   1.0000   0.9999   0.9998   0.9995   0.9983   0.9957   0.9944
     0.9444   0.9427   0.6615   0.2571   0.0000

          k = 0.0667 0.1155 0.2305 (  2040 PWs)   bands (ev):

   -76.3810 -76.3589 -39.7180 -39.5983 -39.5332 -39.5184 -39.5053 -39.4958
    11.7877  13.5644  16.2391  16.5256  16.7188  17.0227  17.0814  17.1981
    18.2566  18.3344  18.7031  19.0599  31.6108

     occupation numbers 
     1.0000   1.0000   1.0000   1.0000   1.0000   1.0000   1.0000   1.0000
     1.0000   1.0000   1.0000   0.9999   0.9997   0.9985   0.9980   0.9967
     0.8895   0.8673   0.7232   0.5349   0.0000

          k = 0.0667 0.1155-0.3074 (  2040 PWs)   bands (ev):

   -76.3700 -76.3700 -39.6581 -39.6581 -39.5208 -39.5208 -39.5058 -39.5058
    12.6753  12.6753  16.3040  16.3040  16.8668  16.8668  17.0911  17.0911
    18.5026  18.5026  18.6817  18.6817  34.5136

     occupation numbers 
     1.0000   1.0000   1.0000   1.0000   1.0000   1.0000   1.0000   1.0000
     1.0000   1.0000   1.0000   1.0000   0.9993   0.9993   0.9980   0.9980
     0.8094   0.8094   0.7332   0.7332   0.0000

          k = 0.0667 0.1925 0.0000 (  2070 PWs)   bands (ev):

   -76.3906 -76.3374 -39.7956 -39.5914 -39.5607 -39.5323 -39.4885 -39.4877
    11.0791  14.7382  16.3395  16.5002  17.0478  17.3063  17.4171  17.5042
    17.6368  17.8008  18.9470  22.0462  25.9741

     occupation numbers 
     1.0000   1.0000   1.0000   1.0000   1.0000   1.0000   1.0000   1.0000
     1.0000   1.0000   1.0000   0.9999   0.9983   0.9949   0.9920   0.9889
     0.9821   0.9691   0.5977   0.0000   0.0000

          k = 0.0667 0.1925 0.0768 (  2072 PWs)   bands (ev):

   -76.3886 -76.3395 -39.7861 -39.5878 -39.5635 -39.5366 -39.4928 -39.4897
    11.2245  14.7226  16.3221  16.3634  17.0122  17.1852  17.3644  17.5742
    17.7918  17.8235  18.9247  21.3444  27.0690

     occupation numbers 
     1.0000   1.0000   1.0000   1.0000   1.0000   1.0000   1.0000   1.0000
     1.0000   1.0000   1.0000   1.0000   0.9986   0.9969   0.9935   0.9857
     0.9700   0.9668   0.6099   0.0008   0.0000

          k = 0.0667 0.1925 0.1537 (  2061 PWs)   bands (ev):

   -76.3828 -76.3452 -39.7588 -39.5848 -39.5753 -39.5382 -39.5037 -39.4961
    11.6498  14.5578  16.0202  16.4305  16.7632  17.1609  17.2367  17.5532
    18.0024  18.0653  18.8499  20.2651  29.3209

     occupation numbers 
     1.0000   1.0000   1.0000   1.0000   1.0000   1.0000   1.0000   1.0000
     1.0000   1.0000   1.0000   0.9999   0.9996   0.9972   0.9962   0.9867
     0.9433   0.9325   0.6498   0.0530   0.0000

          k = 0.0667 0.1925 0.2305 (  2049 PWs)   bands (ev):

   -76.3742 -76.3539 -39.7179 -39.6221 -39.5609 -39.5339 -39.5170 -39.5057
    12.3189  13.9945  15.9550  16.4181  16.6038  16.9919  17.2420  17.4298
    18.2577  18.4161  18.7140  19.4432  32.0047

     occupation numbers 
     1.0000   1.0000   1.0000   1.0000   1.0000   1.0000   1.0000   1.0000
     1.0000   1.0000   1.0000   0.9999   0.9998   0.9987   0.9961   0.9916
     0.8892   0.8409   0.7180   0.3248   0.0000

          k = 0.0667 0.1925-0.3074 (  2036 PWs)   bands (ev):

   -76.3640 -76.3640 -39.6697 -39.6697 -39.5432 -39.5432 -39.5158 -39.5158
    13.1537  13.1537  16.1441  16.1441  16.7777  16.7777  17.3134  17.3134
    18.4987  18.4987  18.8704  18.8704  34.9033

     occupation numbers 
     1.0000   1.0000   1.0000   1.0000   1.0000   1.0000   1.0000   1.0000
     1.0000   1.0000   1.0000   1.0000   0.9995   0.9995   0.9947   0.9947
     0.8109   0.8109   0.6390   0.6390   0.0000

          k = 0.0667 0.2694 0.0000 (  2074 PWs)   bands (ev):

   -76.3797 -76.3331 -39.7699 -39.6410 -39.6027 -39.5567 -39.5006 -39.4983
    11.9224  15.0341  15.9312  16.1325  16.9433  17.1218  17.4830  17.7066
    17.9058  18.1871  18.9892  23.4349  26.1657

     occupation numbers 
     1.0000   1.0000   1.0000   1.0000   1.0000   1.0000   1.0000   1.0000
     1.0000   1.0000   1.0000   1.0000   0.9990   0.9977   0.9898   0.9773
     0.9573   0.9069   0.5745   0.0000   0.0000

          k = 0.0667 0.2694 0.0768 (  2067 PWs)   bands (ev):

   -76.3780 -76.3349 -39.7649 -39.6351 -39.6082 -39.5570 -39.5045 -39.4997
    12.0517  15.0506  15.8157  16.1675  16.8564  17.1636  17.3914  17.7793
    17.9970  18.1611  18.9633  22.4333  27.4906

     occupation numbers 
     1.0000   1.0000   1.0000   1.0000   1.0000   1.0000   1.0000   1.0000
     1.0000   1.0000   1.0000   1.0000   0.9993   0.9972   0.9928   0.9712
     0.9442   0.9129   0.5887   0.0000   0.0000

          k = 0.0667 0.2694 0.1537 (  2065 PWs)   bands (ev):

   -76.3729 -76.3399 -39.7499 -39.6335 -39.6114 -39.5542 -39.5146 -39.5062
    12.4274  14.9494  15.6451  16.2532  16.6755  17.1524  17.3156  17.8354
    18.1707  18.2209  18.8834  21.0304  29.8572

     occupation numbers 
     1.0000   1.0000   1.0000   1.0000   1.0000   1.0000   1.0000   1.0000
     1.0000   1.0000   1.0000   1.0000   0.9997   0.9973   0.9947   0.9656
     0.9107   0.8987   0.6320   0.0035   0.0000

          k = 0.0667 0.2694 0.2305 (  2060 PWs)   bands (ev):

   -76.3653 -76.3475 -39.7258 -39.6616 -39.5880 -39.5489 -39.5289 -39.5169
    13.0099  14.4398  15.7573  16.2690  16.5611  16.9635  17.4073  17.7206
    18.3572  18.5534  18.7575  19.9133  32.5025

     occupation numbers 
     1.0000   1.0000   1.0000   1.0000   1.0000   1.0000   1.0000   1.0000
     1.0000   1.0000   1.0000   1.0000   0.9999   0.9989   0.9923   0.9762
     0.8603   0.7893   0.6969   0.1315   0.0000

          k = 0.0667 0.2694-0.3074 (  2062 PWs)   bands (ev):

   -76.3564 -76.3564 -39.6949 -39.6949 -39.5619 -39.5619 -39.5283 -39.5283
    13.7227  13.7227  16.0223  16.0223  16.7308  16.7308  17.5550  17.5550
    18.5578  18.5578  19.1191  19.1191  34.5244

     occupation numbers 
     1.0000   1.0000   1.0000   1.0000   1.0000   1.0000   1.0000   1.0000
     1.0000   1.0000   1.0000   1.0000   0.9996   0.9996   0.9867   0.9867
     0.7875   0.7875   0.5016   0.5016   0.0000

          k = 0.0667 0.3464 0.0000 (  2081 PWs)   bands (ev):

   -76.3678 -76.3291 -39.7398 -39.6942 -39.6500 -39.5772 -39.5166 -39.5093
    12.9011  15.0870  15.4830  16.0965  16.9644  16.9757  17.3049  18.0996
    18.3385  18.6566  19.0219  24.9472  26.3702

     occupation numbers 
     1.0000   1.0000   1.0000   1.0000   1.0000   1.0000   1.0000   1.0000
     1.0000   1.0000   1.0000   1.0000   0.9989   0.9988   0.9949   0.9259
     0.8660   0.7447   0.5562   0.0000   0.0000

          k = 0.0667 0.3464 0.0768 (  2073 PWs)   bands (ev):

   -76.3663 -76.3306 -39.7472 -39.6798 -39.6545 -39.5759 -39.5190 -39.5107
    12.9969  15.1146  15.4338  16.1181  16.8222  17.1199  17.3159  18.1057
    18.3837  18.5848  19.0125  23.5202  28.0173

     occupation numbers 
     1.0000   1.0000   1.0000   1.0000   1.0000   1.0000   1.0000   1.0000
     1.0000   1.0000   1.0000   1.0000   0.9994   0.9977   0.9947   0.9247
     0.8518   0.7763   0.5615   0.0000   0.0000

          k = 0.0667 0.3464 0.1537 (  2070 PWs)   bands (ev):

   -76.3621 -76.3348 -39.7531 -39.6832 -39.6373 -39.5704 -39.5273 -39.5159
    13.2704  15.0172  15.4418  16.1774  16.7078  17.2576  17.3207  18.1276
    18.4576  18.5113  18.9693  21.8440  30.0818

     occupation numbers 
     1.0000   1.0000   1.0000   1.0000   1.0000   1.0000   1.0000   1.0000
     1.0000   1.0000   1.0000   1.0000   0.9997   0.9958   0.9946   0.9202
     0.8262   0.8061   0.5854   0.0001   0.0000

          k = 0.0667 0.3464 0.2305 (  2063 PWs)   bands (ev):

   -76.3559 -76.3410 -39.7479 -39.7076 -39.6025 -39.5621 -39.5405 -39.5268
    13.6803  14.6423  15.6578  16.1424  16.7413  17.1613  17.4820  17.9773
    18.5664  18.7590  18.9079  20.4683  31.1079

     occupation numbers 
     1.0000   1.0000   1.0000   1.0000   1.0000   1.0000   1.0000   1.0000
     1.0000   1.0000   1.0000   1.0000   0.9996   0.9972   0.9898   0.9472
     0.7840   0.6961   0.6189   0.0285   0.0000

          k = 0.0667 0.3464-0.3074 (  2066 PWs)   bands (ev):

   -76.3485 -76.3485 -39.7315 -39.7315 -39.5720 -39.5720 -39.5402 -39.5402
    14.1632  14.1632  15.9289  15.9289  16.9463  16.9463  17.7163  17.7163
    18.7309  18.7309  19.4496  19.4496  31.9897

     occupation numbers 
     1.0000   1.0000   1.0000   1.0000   1.0000   1.0000   1.0000   1.0000
     1.0000   1.0000   1.0000   1.0000   0.9990   0.9990   0.9766   0.9766
     0.7098   0.7098   0.3215   0.3215   0.0000

          k = 0.0667 0.4234 0.0000 (  2068 PWs)   bands (ev):

   -76.3566 -76.3264 -39.7409 -39.7088 -39.6915 -39.5938 -39.5352 -39.5189
    13.8071  14.9418  15.1636  16.2233  16.8538  17.1343  17.1457  18.5580
    18.7189  19.0432  19.2535  25.8272  26.5452

     occupation numbers 
     1.0000   1.0000   1.0000   1.0000   1.0000   1.0000   1.0000   1.0000
     1.0000   1.0000   1.0000   1.0000   0.9993   0.9975   0.9974   0.7874
     0.7157   0.5443   0.4262   0.0000   0.0000

          k = 0.0667 0.4234 0.0768 (  2069 PWs)   bands (ev):

   -76.3554 -76.3276 -39.7578 -39.7053 -39.6785 -39.5914 -39.5355 -39.5207
    13.8335  14.9451  15.2334  16.1017  16.9029  17.1465  17.3236  18.5269
    18.7492  18.9103  19.2722  24.3493  27.4835

     occupation numbers 
     1.0000   1.0000   1.0000   1.0000   1.0000   1.0000   1.0000   1.0000
     1.0000   1.0000   1.0000   1.0000   0.9992   0.9974   0.9945   0.8000
     0.7009   0.6176   0.4158   0.0000   0.0000

          k = 0.0667 0.4234 0.1537 (  2073 PWs)   bands (ev):

   -76.3522 -76.3308 -39.7742 -39.7248 -39.6410 -39.5837 -39.5405 -39.5250
    13.9248  14.8766  15.3790  16.0210  16.9315  17.2682  17.6657  18.4175
    18.6853  18.8474  19.2527  22.6295  28.1012

     occupation numbers 
     1.0000   1.0000   1.0000   1.0000   1.0000   1.0000   1.0000   1.0000
     1.0000   1.0000   1.0000   1.0000   0.9990   0.9956   0.9803   0.8404
     0.7315   0.6511   0.4266   0.0000   0.0000

          k = 0.0667 0.4234 0.2305 (  2075 PWs)   bands (ev):

   -76.3473 -76.3357 -39.7779 -39.7489 -39.6048 -39.5719 -39.5517 -39.5340
    14.0975  14.6403  15.5843  15.9975  17.0885  17.4730  17.7996  18.1304
    18.7431  18.9962  19.3027  21.1376  28.7489

     occupation numbers 
     1.0000   1.0000   1.0000   1.0000   1.0000   1.0000   1.0000   1.0000
     1.0000   1.0000   1.0000   1.0000   0.9980   0.9901   0.9693   0.9196
     0.7039   0.5705   0.3991   0.0022   0.0000

          k = 0.0667 0.4234-0.3074 (  2066 PWs)   bands (ev):

   -76.3415 -76.3415 -39.7685 -39.7685 -39.5775 -39.5775 -39.5485 -39.5485
    14.3483  14.3483  15.8249  15.8249  17.4241  17.4241  17.8409  17.8409
    18.9262  18.9262  19.9742  19.9742  29.5595

     occupation numbers 
     1.0000   1.0000   1.0000   1.0000   1.0000   1.0000   1.0000   1.0000
     1.0000   1.0000   1.0000   1.0000   0.9918   0.9918   0.9650   0.9650
     0.6090   0.6090   0.1140   0.1140   0.0000

          k = 0.0667 0.5004 0.0000 (  2075 PWs)   bands (ev):

   -76.3481 -76.3255 -39.7729 -39.7197 -39.6826 -39.6047 -39.5529 -39.5256
    14.3796  14.7799  14.9731  16.4764  16.7984  17.0033  17.3032  18.9074
    18.9878  19.0544  20.1308  24.0694  28.1233

     occupation numbers 
     1.0000   1.0000   1.0000   1.0000   1.0000   1.0000   1.0000   1.0000
     1.0000   1.0000   1.0000   0.9999   0.9995   0.9986   0.9949   0.6192
     0.5752   0.5380   0.0768   0.0000   0.0000

          k = 0.0667 0.5004 0.0768 (  2076 PWs)   bands (ev):

   -76.3472 -76.3264 -39.7825 -39.7299 -39.6658 -39.6013 -39.5512 -39.5276
    14.2903  14.7679  15.2048  16.1018  16.8553  17.3156  17.4510  18.8526
    18.9909  19.0011  20.0672  23.7608  27.3986

     occupation numbers 
     1.0000   1.0000   1.0000   1.0000   1.0000   1.0000   1.0000   1.0000
     1.0000   1.0000   1.0000   1.0000   0.9993   0.9947   0.9909   0.6484
     0.5735   0.5678   0.0906   0.0000   0.0000

          k = 0.0667 0.5004 0.1537 (  2069 PWs)   bands (ev):

   -76.3448 -76.3288 -39.7968 -39.7525 -39.6338 -39.5909 -39.5522 -39.5319
    14.1997  14.7657  15.4792  15.8354  16.9355  17.4450  18.0643  18.5894
    18.9218  19.0669  19.9217  22.8776  26.9759

     occupation numbers 
     1.0000   1.0000   1.0000   1.0000   1.0000   1.0000   1.0000   1.0000
     1.0000   1.0000   1.0000   1.0000   0.9990   0.9911   0.9326   0.7743
     0.6114   0.5310   0.1290   0.0000   0.0000

          k = 0.0667 0.5004 0.2305 (  2069 PWs)   bands (ev):

   -76.3411 -76.3325 -39.8022 -39.7770 -39.6040 -39.5747 -39.5613 -39.5387
    14.2282  14.6111  15.5624  15.8753  17.1746  17.7579  18.1125  18.4391
    18.9044  19.1273  20.0051  21.7478  27.1170

     occupation numbers 
     1.0000   1.0000   1.0000   1.0000   1.0000   1.0000   1.0000   1.0000
     1.0000   1.0000   1.0000   1.0000   0.9971   0.9731   0.9233   0.8329
     0.6208   0.4970   0.1058   0.0001   0.0000

          k = 0.0667 0.5004-0.3074 (  2074 PWs)   bands (ev):

   -76.3368 -76.3368 -39.7952 -39.7952 -39.5816 -39.5816 -39.5522 -39.5522
    14.3821  14.3821  15.7435  15.7435  17.6205  17.6205  18.1910  18.1910
    19.0180  19.0180  20.7078  20.7078  27.6274

     occupation numbers 
     1.0000   1.0000   1.0000   1.0000   1.0000   1.0000   1.0000   1.0000
     1.0000   1.0000   1.0000   1.0000   0.9831   0.9831   0.9060   0.9060
     0.5584   0.5584   0.0125   0.0125   0.0000

          k = 0.0667 0.5774 0.0000 (  2067 PWs)   bands (ev):

   -76.3447 -76.3255 -39.7842 -39.7296 -39.6712 -39.6085 -39.5612 -39.5279
    14.5992  14.6634  14.9099  16.6275  16.7862  16.9506  17.3592  19.0200
    19.0579  19.0943  20.9252  22.8613  29.0501

     occupation numbers 
     1.0000   1.0000   1.0000   1.0000   1.0000   1.0000   1.0000   1.0000
     1.0000   1.0000   1.0000   0.9998   0.9995   0.9989   0.9937   0.5573
     0.5361   0.5155   0.0054   0.0000   0.0000

          k = 0.0667 0.5774 0.0768 (  2077 PWs)   bands (ev):

   -76.3440 -76.3263 -39.7925 -39.7393 -39.6577 -39.6044 -39.5587 -39.5300
    14.4027  14.6931  15.2227  16.1142  16.8214  17.3775  17.5497  18.9194
    19.0610  19.0881  20.8210  22.7602  28.5061

     occupation numbers 
     1.0000   1.0000   1.0000   1.0000   1.0000   1.0000   1.0000   1.0000
[...]
    14.3890  15.2373  16.4109  16.4831  17.1774  17.2839  18.0462  18.6801
    19.4505  19.7691  20.2559  21.6205  31.6897

     occupation numbers 
     1.0000   1.0000   1.0000   1.0000   1.0000   1.0000   1.0000   1.0000
     1.0000   1.0000   0.9999   0.9999   0.9970   0.9953   0.9359   0.7340
     0.3211   0.1800   0.0544   0.0002   0.0000

          k = 0.2000 0.3464-0.3074 (  2076 PWs)   bands (ev):

   -75.5119 -75.5119 -38.9386 -38.9386 -38.7877 -38.7877 -38.7326 -38.7326
    14.8204  14.8204  16.5744  16.5744  17.0977  17.0977  18.3399  18.3399
    19.7748  19.7748  20.6313  20.6313  32.4720

     occupation numbers 
     1.0000   1.0000   1.0000   1.0000   1.0000   1.0000   1.0000   1.0000
     1.0000   1.0000   0.9998   0.9998   0.9979   0.9979   0.8656   0.8656
     0.1779   0.1779   0.0164   0.0164   0.0000

          k = 0.2000 0.4234 0.0000 (  2089 PWs)   bands (ev):

   -75.5186 -75.4934 -38.9257 -38.8999 -38.8803 -38.8101 -38.7547 -38.7347
    14.6001  15.6842  15.8321  16.1635  17.2403  17.7556  17.8766  18.9301
    19.7109  19.7145  20.7373  26.9512  27.8415

     occupation numbers 
     1.0000   1.0000   1.0000   1.0000   1.0000   1.0000   1.0000   1.0000
     1.0000   1.0000   1.0000   1.0000   0.9961   0.9733   0.9609   0.6069
     0.2024   0.2010   0.0112   0.0000   0.0000

          k = 0.2000 0.4234 0.0768 (  2080 PWs)   bands (ev):

   -75.5176 -75.4943 -38.9359 -38.9159 -38.8529 -38.8144 -38.7578 -38.7283
    14.6423  15.6405  15.8915  16.2339  17.2729  17.6642  17.8951  18.9504
    19.5709  19.7645  20.7915  25.6099  28.3350

     occupation numbers 
     1.0000   1.0000   1.0000   1.0000   1.0000   1.0000   1.0000   1.0000
     1.0000   1.0000   1.0000   1.0000   0.9955   0.9804   0.9586   0.5958
     0.2627   0.1818   0.0091   0.0000   0.0000

          k = 0.2000 0.4234 0.1537 (  2068 PWs)   bands (ev):

   -75.5149 -75.4970 -38.9543 -38.9298 -38.8287 -38.8100 -38.7620 -38.7200
    14.7618  15.5312  16.0433  16.4290  17.2738  17.4739  17.9591  18.9921
    19.3145  19.8746  20.9068  23.9671  28.8145

     occupation numbers 
     1.0000   1.0000   1.0000   1.0000   1.0000   1.0000   1.0000   1.0000
     1.0000   1.0000   1.0000   0.9999   0.9955   0.9901   0.9500   0.5728
     0.3927   0.1436   0.0058   0.0000   0.0000

          k = 0.2000 0.4234 0.2305 (  2076 PWs)   bands (ev):

   -75.5108 -75.5011 -38.9632 -38.9463 -38.8212 -38.8012 -38.7525 -38.7204
    14.9405  15.3611  16.2828  16.6448  17.1131  17.3260  18.0972  18.7065
    19.5034  19.9359  21.1058  22.5806  29.4858

     occupation numbers 
     1.0000   1.0000   1.0000   1.0000   1.0000   1.0000   1.0000   1.0000
     1.0000   1.0000   1.0000   0.9998   0.9978   0.9945   0.9264   0.7216
     0.2948   0.1248   0.0025   0.0000   0.0000

          k = 0.2000 0.4234-0.3074 (  2076 PWs)   bands (ev):

   -75.5060 -75.5060 -38.9596 -38.9596 -38.8102 -38.8102 -38.7326 -38.7326
    15.1518  15.1518  16.5611  16.5611  17.1517  17.1517  18.3482  18.3482
    19.8245  19.8245  21.5994  21.5994  30.3264

     occupation numbers 
     1.0000   1.0000   1.0000   1.0000   1.0000   1.0000   1.0000   1.0000
     1.0000   1.0000   0.9999   0.9999   0.9973   0.9973   0.8631   0.8631
     0.1602   0.1602   0.0002   0.0002   0.0000

          k = 0.2000 0.5004 0.0000 (  2083 PWs)   bands (ev):

   -75.5104 -75.4935 -38.9500 -38.9035 -38.8527 -38.8350 -38.7683 -38.7550
    15.2318  15.5875  15.6664  16.3076  17.2319  17.5524  18.0501  19.2590
    19.7000  19.7799  21.6901  25.2332  28.8043

     occupation numbers 
     1.0000   1.0000   1.0000   1.0000   1.0000   1.0000   1.0000   1.0000
     1.0000   1.0000   1.0000   1.0000   0.9962   0.9868   0.9352   0.4231
     0.2068   0.1761   0.0001   0.0000   0.0000

          k = 0.2000 0.5004 0.0768 (  2075 PWs)   bands (ev):

   -75.5098 -75.4941 -38.9559 -38.9161 -38.8520 -38.8214 -38.7747 -38.7442
    15.1730  15.6742  15.7376  16.2893  17.2520  17.5339  18.0776  19.2647
    19.5573  19.8198  21.7480  25.0765  28.0791

     occupation numbers 
     1.0000   1.0000   1.0000   1.0000   1.0000   1.0000   1.0000   1.0000
     1.0000   1.0000   1.0000   1.0000   0.9959   0.9876   0.9302   0.4200
     0.2690   0.1618   0.0001   0.0000   0.0000

          k = 0.2000 0.5004 0.1537 (  2080 PWs)   bands (ev):

   -75.5079 -75.4960 -38.9685 -38.9377 -38.8516 -38.8016 -38.7747 -38.7300
    15.1307  15.6623  15.9408  16.4255  17.1507  17.5438  18.1710  19.1477
    19.3824  19.8930  21.9064  24.4630  27.5460

     occupation numbers 
     1.0000   1.0000   1.0000   1.0000   1.0000   1.0000   1.0000   1.0000
     1.0000   1.0000   1.0000   0.9999   0.9973   0.9872   0.9106   0.4854
     0.3563   0.1378   0.0000   0.0000   0.0000

          k = 0.2000 0.5004 0.2305 (  2076 PWs)   bands (ev):

   -75.5052 -75.4987 -38.9763 -38.9588 -38.8424 -38.8107 -38.7511 -38.7244
    15.1772  15.4951  16.2118  16.7292  16.9530  17.4821  18.3086  18.7707
    19.5391  19.8996  22.1993  23.5414  27.7229

     occupation numbers 
     1.0000   1.0000   1.0000   1.0000   1.0000   1.0000   1.0000   1.0000
     1.0000   1.0000   1.0000   0.9996   0.9989   0.9898   0.8750   0.6903
     0.2776   0.1357   0.0000   0.0000   0.0000

          k = 0.2000 0.5004-0.3074 (  2072 PWs)   bands (ev):

   -75.5019 -75.5019 -38.9732 -38.9732 -38.8271 -38.8271 -38.7315 -38.7315
    15.3092  15.3092  16.5285  16.5285  17.2275  17.2275  18.4845  18.4845
    19.7652  19.7652  22.7302  22.7302  28.3213

     occupation numbers 
     1.0000   1.0000   1.0000   1.0000   1.0000   1.0000   1.0000   1.0000
     1.0000   1.0000   0.9999   0.9999   0.9963   0.9963   0.8163   0.8163
     0.1815   0.1815   0.0000   0.0000   0.0000

          k = 0.2000 0.5774 0.0000 (  2069 PWs)   bands (ev):

   -75.5069 -75.4941 -38.9584 -38.9026 -38.8461 -38.8394 -38.7730 -38.7657
    15.4318  15.5561  15.5971  16.4071  17.2714  17.4375  18.1183  19.4798
    19.6950  19.7110  22.5493  23.9679  28.7655

     occupation numbers 
     1.0000   1.0000   1.0000   1.0000   1.0000   1.0000   1.0000   1.0000
     1.0000   1.0000   1.0000   0.9999   0.9956   0.9914   0.9221   0.3064
     0.2088   0.2024   0.0000   0.0000   0.0000

          k = 0.2000 0.5774 0.0768 (  2074 PWs)   bands (ev):

   -75.5064 -75.4946 -38.9637 -38.9137 -38.8606 -38.8118 -38.7836 -38.7516
    15.2700  15.6418  15.8354  16.2899  17.2284  17.5161  18.1527  19.4855
    19.5411  19.7488  22.6208  23.9419  28.7091

     occupation numbers 
     1.0000   1.0000   1.0000   1.0000   1.0000   1.0000   1.0000   1.0000
     1.0000   1.0000   1.0000   1.0000   0.9963   0.9884   0.9148   0.3035
     0.2766   0.1876   0.0000   0.0000   0.0000

          k = 0.2000 0.5774 0.1537 (  2082 PWs)   bands (ev):

   -75.5050 -75.4960 -38.9747 -38.9381 -38.8615 -38.7978 -38.7779 -38.7350
    15.1815  15.7037  16.1201  16.2630  17.0826  17.6211  18.2639  19.1855
    19.5130  19.8089  22.8055  23.8528  28.1772

     occupation numbers 
     1.0000   1.0000   1.0000   1.0000   1.0000   1.0000   1.0000   1.0000
     1.0000   1.0000   1.0000   1.0000   0.9980   0.9831   0.8875   0.4642
     0.2901   0.1656   0.0000   0.0000   0.0000

          k = 0.2000 0.5774 0.2305 (  2089 PWs)   bands (ev):

   -75.5030 -75.4981 -38.9816 -38.9622 -38.8505 -38.8148 -38.7491 -38.7266
    15.2129  15.5593  16.2346  16.7239  16.8627  17.5621  18.4247  18.8213
    19.5884  19.8090  23.0722  23.6714  27.5595

     occupation numbers 
     1.0000   1.0000   1.0000   1.0000   1.0000   1.0000   1.0000   1.0000
     1.0000   1.0000   1.0000   0.9997   0.9993   0.9863   0.8379   0.6646
     0.2547   0.1656   0.0000   0.0000   0.0000

          k = 0.2000 0.5774-0.3074 (  2080 PWs)   bands (ev):

   -75.5005 -75.5005 -38.9778 -38.9778 -38.8334 -38.8334 -38.7310 -38.7310
    15.3510  15.3510  16.5176  16.5176  17.2420  17.2420  18.5901  18.5901
    19.7122  19.7122  23.3891  23.3891  27.3616

     occupation numbers 
     1.0000   1.0000   1.0000   1.0000   1.0000   1.0000   1.0000   1.0000
     1.0000   1.0000   0.9999   0.9999   0.9961   0.9961   0.7740   0.7740
     0.2019   0.2019   0.0000   0.0000   0.0000

          k = 0.2667 0.4619 0.0000 (  2075 PWs)   bands (ev):

   -75.5100 -75.4935 -38.9346 -38.9042 -38.8513 -38.8364 -38.7847 -38.7560
    15.3098  15.6348  15.9578  15.9825  17.1704  17.5593  18.0698  19.1015
    19.6685  19.7801  21.7212  26.6686  27.1473

     occupation numbers 
     1.0000   1.0000   1.0000   1.0000   1.0000   1.0000   1.0000   1.0000
     1.0000   1.0000   1.0000   1.0000   0.9971   0.9864   0.9316   0.5115
     0.2197   0.1760   0.0001   0.0000   0.0000

          k = 0.2667 0.4619 0.0768 (  2078 PWs)   bands (ev):

   -75.5094 -75.4941 -38.9358 -38.9226 -38.8453 -38.8318 -38.7854 -38.7464
    15.3304  15.6027  15.9808  16.0951  17.2158  17.4606  18.0678  19.1256
    19.5228  19.8212  21.7990  26.1900  27.3104

     occupation numbers 
     1.0000   1.0000   1.0000   1.0000   1.0000   1.0000   1.0000   1.0000
     1.0000   1.0000   1.0000   1.0000   0.9965   0.9906   0.9320   0.4979
     0.2854   0.1613   0.0001   0.0000   0.0000

          k = 0.2667 0.4619 0.1537 (  2071 PWs)   bands (ev):

   -75.5076 -75.4959 -38.9470 -38.9421 -38.8554 -38.8163 -38.7748 -38.7312
    15.3774  15.5591  16.0788  16.3569  17.2125  17.2771  18.0787  19.0816
    19.3241  19.8952  22.0008  25.0310  27.7731

     occupation numbers 
     1.0000   1.0000   1.0000   1.0000   1.0000   1.0000   1.0000   1.0000
     1.0000   1.0000   1.0000   1.0000   0.9965   0.9955   0.9299   0.5227
     0.3875   0.1371   0.0000   0.0000   0.0000

          k = 0.2667 0.4619 0.2305 (  2075 PWs)   bands (ev):

   -75.5049 -75.4986 -38.9614 -38.9540 -38.8526 -38.8251 -38.7494 -38.7241
    15.4296  15.5224  16.2809  16.6827  16.8983  17.2219  18.1552  18.6961
    19.5284  19.9051  22.3377  23.8389  28.4637

     occupation numbers 
     1.0000   1.0000   1.0000   1.0000   1.0000   1.0000   1.0000   1.0000
     1.0000   1.0000   1.0000   0.9997   0.9992   0.9964   0.9142   0.7265
     0.2827   0.1340   0.0000   0.0000   0.0000

          k = 0.2667 0.4619-0.3074 (  2086 PWs)   bands (ev):

   -75.5018 -75.5018 -38.9629 -38.9629 -38.8401 -38.8401 -38.7303 -38.7303
    15.4795  15.4795  16.5658  16.5658  17.0075  17.0075  18.3565  18.3565
    19.7765  19.7765  22.9199  22.9199  29.2132

     occupation numbers 
     1.0000   1.0000   1.0000   1.0000   1.0000   1.0000   1.0000   1.0000
     1.0000   1.0000   0.9998   0.9998   0.9986   0.9986   0.8605   0.8605
     0.1773   0.1773   0.0000   0.0000   0.0000

          k = 0.2667 0.5389 0.0000 (  2078 PWs)   bands (ev):

   -75.5038 -75.4951 -38.9401 -38.8916 -38.8630 -38.8265 -38.8036 -38.7767
    15.6195  15.6491  15.8547  16.1314  17.1950  17.3799  18.2039  19.3286
    19.6430  19.6635  22.9643  24.9733  26.7020

     occupation numbers 
     1.0000   1.0000   1.0000   1.0000   1.0000   1.0000   1.0000   1.0000
     1.0000   1.0000   1.0000   1.0000   0.9968   0.9931   0.9029   0.3850
     0.2306   0.2218   0.0000   0.0000   0.0000

          k = 0.2667 0.5389 0.0768 (  2075 PWs)   bands (ev):

   -75.5035 -75.4955 -38.9413 -38.9063 -38.8752 -38.8150 -38.8001 -38.7633
    15.5454  15.7828  15.9160  16.1246  17.1903  17.3284  18.2031  19.3502
    19.4910  19.6963  23.0794  24.9976  26.7661

     occupation numbers 
     1.0000   1.0000   1.0000   1.0000   1.0000   1.0000   1.0000   1.0000
     1.0000   1.0000   1.0000   1.0000   0.9968   0.9944   0.9031   0.3734
     0.3008   0.2083   0.0000   0.0000   0.0000

          k = 0.2667 0.5389 0.1537 (  2081 PWs)   bands (ev):

   -75.5025 -75.4964 -38.9492 -38.9296 -38.8851 -38.8249 -38.7699 -38.7422
    15.5357  15.8955  16.0274  16.2332  17.0975  17.2482  18.2146  19.1139
    19.4391  19.7545  23.3659  24.9850  26.9180

     occupation numbers 
     1.0000   1.0000   1.0000   1.0000   1.0000   1.0000   1.0000   1.0000
     1.0000   1.0000   1.0000   1.0000   0.9979   0.9960   0.9003   0.5045
     0.3268   0.1855   0.0000   0.0000   0.0000

          k = 0.2667 0.5389 0.2305 (  2083 PWs)   bands (ev):

   -75.5011 -75.4978 -38.9596 -38.9496 -38.8775 -38.8417 -38.7434 -38.7288
    15.5943  15.8205  16.2391  16.4783  16.9226  17.1485  18.2716  18.7158
    19.5654  19.7676  23.7576  24.7245  27.1670

     occupation numbers 
     1.0000   1.0000   1.0000   1.0000   1.0000   1.0000   1.0000   1.0000
     1.0000   1.0000   1.0000   0.9999   0.9991   0.9974   0.8854   0.7171
     0.2652   0.1806   0.0000   0.0000   0.0000

          k = 0.2667 0.5389-0.3074 (  2078 PWs)   bands (ev):

   -75.4994 -75.4994 -38.9607 -38.9607 -38.8606 -38.8606 -38.7289 -38.7289
    15.6999  15.6999  16.4723  16.4723  16.9666  16.9666  18.4231  18.4231
    19.6965  19.6965  24.2392  24.2392  27.6596

     occupation numbers 
     1.0000   1.0000   1.0000   1.0000   1.0000   1.0000   1.0000   1.0000
     1.0000   1.0000   0.9999   0.9999   0.9988   0.9988   0.8385   0.8385
     0.2082   0.2082   0.0000   0.0000   0.0000

          k = 0.3333 0.5774 0.0000 (  2067 PWs)   bands (ev):

   -75.4986 -75.4986 -38.9318 -38.8789 -38.8789 -38.8230 -38.8008 -38.8008
    15.6385  15.8576  15.8576  16.0798  17.2467  17.2467  18.2763  19.4730
    19.4730  19.6218  24.1729  25.0278  25.0278

     occupation numbers 
     1.0000   1.0000   1.0000   1.0000   1.0000   1.0000   1.0000   1.0000
     1.0000   1.0000   1.0000   1.0000   0.9960   0.9960   0.8841   0.3098
     0.3098   0.2398   0.0000   0.0000   0.0000

          k = 0.3333 0.5774 0.0768 (  2070 PWs)   bands (ev):

   -75.4986 -75.4986 -38.9277 -38.8957 -38.8957 -38.8272 -38.7839 -38.7839
    15.6863  15.8906  15.8906  16.0959  17.2064  17.2064  18.2621  19.4648
    19.5030  19.5030  24.4122  25.0571  25.0571

     occupation numbers 
     1.0000   1.0000   1.0000   1.0000   1.0000   1.0000   1.0000   1.0000
     1.0000   1.0000   1.0000   1.0000   0.9966   0.9966   0.8880   0.3139
     0.2950   0.2950   0.0000   0.0000   0.0000

          k = 0.3333 0.5774 0.1537 (  2076 PWs)   bands (ev):

   -75.4986 -75.4986 -38.9233 -38.9233 -38.9159 -38.8391 -38.7561 -38.7561
    15.8150  15.9767  15.9767  16.1319  17.1066  17.1066  18.2380  19.0944
    19.5715  19.5715  25.0437  25.1382  25.1382

     occupation numbers 
     1.0000   1.0000   1.0000   1.0000   1.0000   1.0000   1.0000   1.0000
     1.0000   1.0000   1.0000   1.0000   0.9978   0.9978   0.8944   0.5155
     0.2624   0.2624   0.0000   0.0000   0.0000

          k = 0.3333 0.5774 0.2305 (  2076 PWs)   bands (ev):

   -75.4986 -75.4986 -38.9438 -38.9438 -38.8984 -38.8568 -38.7355 -38.7355
    15.9778  16.0754  16.0754  16.1512  16.9988  16.9988  18.2576  18.6923
    19.6360  19.6360  25.2378  25.2378  25.9263

     occupation numbers 
     1.0000   1.0000   1.0000   1.0000   1.0000   1.0000   1.0000   1.0000
     1.0000   1.0000   1.0000   1.0000   0.9987   0.9987   0.8892   0.7282
     0.2336   0.2336   0.0000   0.0000   0.0000

          k = 0.3333 0.5774-0.3074 (  2076 PWs)   bands (ev):

   -75.4986 -75.4986 -38.9512 -38.9512 -38.8776 -38.8776 -38.7279 -38.7279
    16.1054  16.1054  16.1222  16.1222  16.9496  16.9496  18.3959  18.3959
    19.6614  19.6614  25.2865  25.2865  26.9782

     occupation numbers 
     1.0000   1.0000   1.0000   1.0000   1.0000   1.0000   1.0000   1.0000
     1.0000   1.0000   1.0000   1.0000   0.9989   0.9989   0.8477   0.8477
     0.2227   0.2227   0.0000   0.0000   0.0000

     the Fermi energy is    19.1219 ev

!    total energy              =    -753.50340521 Ry
     total all-electron energy =     -5573.860096 Ry
     estimated scf accuracy    <       0.00000003 Ry
     smearing contrib. (-TS)   =      -0.12955037 Ry
     internal energy E=F+TS    =    -753.37385484 Ry

     The total energy is F=E-TS. E is the sum of the following terms:
     one-electron contribution =    -278.79035775 Ry
     hartree contribution      =     163.53659660 Ry
     xc contribution           =     -61.30254544 Ry
     ewald contribution        =    -401.63724122 Ry
     one-center paw contrib.   =    -175.18030703 Ry
      -> PAW hartree energy AE =     222.30766567 Ry
      -> PAW hartree energy PS =    -221.24930023 Ry
      -> PAW xc energy AE      =    -117.63085450 Ry
      -> PAW xc energy PS      =      28.98233554 Ry
      -> total E_H with PAW    =     164.59496204 Ry
      -> total E_XC with PAW   =    -149.95106440 Ry

     total magnetization       =     1.32 Bohr mag/cell
     absolute magnetization    =     1.42 Bohr mag/cell

     convergence has been achieved in   9 iterations

     Writing all to output data dir ./out/Co.save/
 
     init_run     :      0.52s CPU      0.75s WALL (       1 calls)
     electrons    :     40.23s CPU     42.10s WALL (       1 calls)

     Called by init_run:
     wfcinit      :      0.37s CPU      0.56s WALL (       1 calls)
     potinit      :      0.10s CPU      0.14s WALL (       1 calls)
     hinit0       :      0.03s CPU      0.03s WALL (       1 calls)

     Called by electrons:
     c_bands      :     35.60s CPU     37.08s WALL (      10 calls)
     sum_band     :      3.66s CPU      3.83s WALL (      10 calls)
     v_of_rho     :      0.03s CPU      0.03s WALL (      10 calls)
     v_h          :      0.00s CPU      0.00s WALL (      10 calls)
     v_xc         :      0.03s CPU      0.03s WALL (      10 calls)
     newd         :      0.03s CPU      0.04s WALL (      10 calls)
     PAW_pot      :      0.99s CPU      1.23s WALL (      10 calls)
     mix_rho      :      0.00s CPU      0.01s WALL (      10 calls)

     Called by c_bands:
     init_us_2    :      0.20s CPU      0.20s WALL (    5400 calls)
     init_us_2:cp :      0.20s CPU      0.19s WALL (    5400 calls)
     cegterg      :     34.51s CPU     35.83s WALL (    2700 calls)

     Called by sum_band:
     sum_band:wei :      0.25s CPU      0.25s WALL (      10 calls)
     sum_band:loo :      3.34s CPU      3.50s WALL (      10 calls)
     sum_band:buf :      0.01s CPU      0.02s WALL (    2700 calls)
     sum_band:ini :      0.12s CPU      0.10s WALL (    2700 calls)
     sum_band:cal :      0.21s CPU      0.21s WALL (    2700 calls)
     sum_band:bec :      0.01s CPU      0.03s WALL (    2700 calls)
     addusdens    :      0.06s CPU      0.07s WALL (      10 calls)
                                        0.00s GPU  (      10 calls)
     addusd:skk   :      0.00s CPU      0.00s WALL (      10 calls)
                                        0.00s GPU  (      10 calls)

     Called by *egterg:
     cdiaghg      :      8.87s CPU      9.10s WALL (   15091 calls)
     cegterg:over :      1.08s CPU      1.04s WALL (   12931 calls)
     cegterg:upda :      0.14s CPU      0.24s WALL (   12931 calls)
     cegterg:last :      0.41s CPU      0.44s WALL (    9197 calls)
     h_psi        :     22.54s CPU     23.48s WALL (   15631 calls)
     s_psi        :      0.44s CPU      0.42s WALL (   15631 calls)
     g_psi        :      0.07s CPU      0.08s WALL (   12931 calls)

     Called by h_psi:
     h_psi:calbec :      0.95s CPU      0.91s WALL (   15631 calls)
     vloc_psi     :     21.11s CPU     21.96s WALL (   15631 calls)
     add_vuspsi   :      0.42s CPU      0.50s WALL (   15631 calls)

     General routines
     calbec       :      1.15s CPU      1.09s WALL (   18331 calls)
     fft          :      0.02s CPU      0.02s WALL (     210 calls)
     ffts         :      0.00s CPU      0.00s WALL (      20 calls)
     fftw         :     23.29s CPU     23.51s WALL (  474580 calls)
 
     Parallel routines

     PAW routines
     PAW_pot      :      0.99s CPU      1.23s WALL (      10 calls)
     PAW_symme    :      0.01s CPU      0.01s WALL (      19 calls)
 
     PWSCF        :     41.22s CPU     44.11s WALL

 
   This run was terminated on:  16:16:38  13Mar2024            

=------------------------------------------------------------------------------=
   JOB DONE.
=------------------------------------------------------------------------------=
