# E (eV) pdos(E) 
 -7.455  0.442E+00
 -7.445  0.130E+01
 -7.435  0.244E+01
 -7.425  0.323E+01
 -7.415  0.359E+01
 -7.405  0.362E+01
 -7.395  0.359E+01
 -7.385  0.367E+01
 -7.375  0.375E+01
 -7.365  0.399E+01
 -7.355  0.447E+01
 -7.345  0.495E+01
 -7.335  0.549E+01
 -7.325  0.622E+01
 -7.315  0.702E+01
 -7.305  0.762E+01
 -7.295  0.793E+01
 -7.285  0.832E+01
 -7.275  0.901E+01
 -7.265  0.101E+02
 -7.255  0.107E+02
 -7.245  0.107E+02
 -7.235  0.108E+02
 -7.225  0.108E+02
 -7.215  0.107E+02
 -7.205  0.105E+02
 -7.195  0.102E+02
 -7.185  0.101E+02
 -7.175  0.100E+02
 -7.165  0.104E+02
 -7.155  0.112E+02
 -7.145  0.118E+02
 -7.135  0.124E+02
 -7.125  0.150E+02
 -7.115  0.163E+02
 -7.105  0.161E+02
 -7.095  0.150E+02
 -7.085  0.140E+02
 -7.075  0.142E+02
 -7.065  0.146E+02
 -7.055  0.151E+02
 -7.045  0.157E+02
 -7.035  0.160E+02
 -7.025  0.162E+02
 -7.015  0.156E+02
 -7.005  0.158E+02
 -6.995  0.159E+02
 -6.985  0.167E+02
 -6.975  0.173E+02
 -6.965  0.177E+02
 -6.955  0.176E+02
 -6.945  0.186E+02
 -6.935  0.222E+02
 -6.925  0.282E+02
 -6.915  0.309E+02
 -6.905  0.329E+02
 -6.895  0.349E+02
 -6.885  0.307E+02
 -6.875  0.297E+02
 -6.865  0.287E+02
 -6.855  0.277E+02
 -6.845  0.284E+02
 -6.835  0.312E+02
 -6.825  0.302E+02
 -6.815  0.262E+02
 -6.805  0.232E+02
 -6.795  0.209E+02
 -6.785  0.196E+02
 -6.775  0.193E+02
 -6.765  0.233E+02
 -6.755  0.309E+02
 -6.745  0.387E+02
 -6.735  0.358E+02
 -6.725  0.424E+02
 -6.715  0.596E+02
 -6.705  0.541E+02
 -6.695  0.473E+02
 -6.685  0.424E+02
 -6.675  0.567E+02
 -6.665  0.608E+02
 -6.655  0.630E+02
 -6.645  0.704E+02
 -6.635  0.733E+02
 -6.625  0.691E+02
 -6.615  0.684E+02
 -6.605  0.676E+02
 -6.595  0.785E+02
 -6.585  0.750E+02
 -6.575  0.735E+02
 -6.565  0.736E+02
 -6.555  0.767E+02
 -6.545  0.840E+02
 -6.535  0.107E+03
 -6.525  0.109E+03
 -6.515  0.951E+02
 -6.505  0.820E+02
 -6.495  0.887E+02
 -6.485  0.118E+03
 -6.475  0.132E+03
 -6.465  0.864E+02
 -6.455  0.804E+02
 -6.445  0.698E+02
 -6.435  0.759E+02
 -6.425  0.835E+02
 -6.415  0.852E+02
 -6.405  0.111E+03
 -6.395  0.176E+03
 -6.385  0.164E+03
 -6.375  0.135E+03
 -6.365  0.121E+03
 -6.355  0.104E+03
 -6.345  0.607E+01
 -6.335  0.000E+00
 -6.325  0.000E+00
 -6.315  0.000E+00
 -6.305  0.000E+00
 -6.295  0.000E+00
 -6.285  0.000E+00
 -6.275  0.000E+00
 -6.265  0.000E+00
 -6.255  0.000E+00
 -6.245  0.000E+00
 -6.235  0.000E+00
 -6.225  0.000E+00
 -6.215  0.000E+00
 -6.205  0.000E+00
 -6.195  0.000E+00
 -6.185  0.000E+00
 -6.175  0.000E+00
 -6.165  0.000E+00
 -6.155  0.000E+00
 -6.145  0.000E+00
 -6.135  0.000E+00
 -6.125  0.000E+00
 -6.115  0.000E+00
 -6.105  0.000E+00
 -6.095  0.000E+00
 -6.085  0.000E+00
 -6.075  0.000E+00
 -6.065  0.000E+00
 -6.055  0.000E+00
 -6.045  0.000E+00
 -6.035  0.000E+00
 -6.025  0.000E+00
 -6.015  0.000E+00
 -6.005  0.000E+00
 -5.995  0.000E+00
 -5.985  0.000E+00
 -5.975  0.000E+00
 -5.965  0.000E+00
 -5.955  0.000E+00
 -5.945  0.000E+00
 -5.935  0.000E+00
 -5.925  0.000E+00
 -5.915  0.000E+00
 -5.905  0.000E+00
 -5.895  0.000E+00
 -5.885  0.000E+00
 -5.875  0.000E+00
 -5.865  0.000E+00
 -5.855  0.000E+00
 -5.845  0.000E+00
 -5.835  0.000E+00
 -5.825  0.000E+00
 -5.815  0.000E+00
 -5.805  0.000E+00
 -5.795  0.000E+00
 -5.785  0.000E+00
 -5.775  0.000E+00
 -5.765  0.000E+00
 -5.755  0.000E+00
 -5.745  0.000E+00
 -5.735  0.000E+00
 -5.725  0.000E+00
 -5.715  0.000E+00
 -5.705  0.000E+00
 -5.695  0.000E+00
 -5.685  0.000E+00
 -5.675  0.000E+00
 -5.665  0.000E+00
 -5.655  0.000E+00
 -5.645  0.000E+00
 -5.635  0.000E+00
 -5.625  0.000E+00
 -5.615  0.000E+00
 -5.605  0.000E+00
 -5.595  0.000E+00
 -5.585  0.000E+00
 -5.575  0.000E+00
 -5.565  0.000E+00
 -5.555  0.000E+00
 -5.545  0.000E+00
 -5.535  0.000E+00
 -5.525  0.000E+00
 -5.515  0.000E+00
 -5.505  0.000E+00
 -5.495  0.000E+00
 -5.485  0.000E+00
 -5.475  0.000E+00
 -5.465  0.000E+00
 -5.455  0.000E+00
 -5.445  0.000E+00
 -5.435  0.000E+00
 -5.425  0.000E+00
 -5.415  0.000E+00
 -5.405  0.000E+00
 -5.395  0.000E+00
 -5.385  0.000E+00
 -5.375  0.000E+00
 -5.365  0.000E+00
 -5.355  0.000E+00
 -5.345  0.000E+00
 -5.335  0.000E+00
 -5.325  0.000E+00
 -5.315  0.000E+00
 -5.305  0.000E+00
 -5.295  0.000E+00
 -5.285  0.000E+00
 -5.275  0.000E+00
 -5.265  0.000E+00
 -5.255  0.000E+00
 -5.245  0.000E+00
 -5.235  0.000E+00
 -5.225  0.000E+00
 -5.215  0.000E+00
 -5.205  0.000E+00
 -5.195  0.000E+00
 -5.185  0.000E+00
 -5.175  0.000E+00
 -5.165  0.000E+00
 -5.155  0.000E+00
 -5.145  0.000E+00
 -5.135  0.000E+00
 -5.125  0.000E+00
 -5.115  0.000E+00
 -5.105  0.000E+00
 -5.095  0.000E+00
 -5.085  0.000E+00
 -5.075  0.000E+00
 -5.065  0.000E+00
 -5.055  0.000E+00
 -5.045  0.000E+00
 -5.035  0.000E+00
 -5.025  0.000E+00
 -5.015  0.000E+00
 -5.005  0.000E+00
 -4.995  0.000E+00
 -4.985  0.000E+00
 -4.975  0.000E+00
 -4.965  0.000E+00
 -4.955  0.000E+00
 -4.945  0.000E+00
 -4.935  0.000E+00
 -4.925  0.000E+00
 -4.915  0.000E+00
 -4.905  0.000E+00
 -4.895  0.000E+00
 -4.885  0.000E+00
 -4.875  0.000E+00
 -4.865  0.000E+00
 -4.855  0.000E+00
 -4.845  0.000E+00
 -4.835  0.000E+00
 -4.825  0.000E+00
 -4.815  0.000E+00
 -4.805  0.000E+00
 -4.795  0.000E+00
 -4.785  0.000E+00
 -4.775  0.000E+00
 -4.765  0.000E+00
 -4.755  0.000E+00
 -4.745  0.000E+00
 -4.735  0.000E+00
 -4.725  0.000E+00
 -4.715  0.000E+00
 -4.705  0.000E+00
 -4.695  0.000E+00
 -4.685  0.000E+00
 -4.675  0.000E+00
 -4.665  0.000E+00
 -4.655  0.000E+00
 -4.645  0.000E+00
 -4.635  0.000E+00
 -4.625  0.000E+00
 -4.615  0.000E+00
 -4.605  0.000E+00
 -4.595  0.000E+00
 -4.585  0.000E+00
 -4.575  0.000E+00
 -4.565  0.000E+00
 -4.555  0.000E+00
 -4.545  0.000E+00
 -4.535  0.000E+00
 -4.525  0.000E+00
 -4.515  0.000E+00
 -4.505  0.000E+00
 -4.495  0.000E+00
 -4.485  0.000E+00
 -4.475  0.000E+00
 -4.465  0.000E+00
 -4.455  0.000E+00
 -4.445  0.000E+00
 -4.435  0.000E+00
 -4.425  0.000E+00
 -4.415  0.000E+00
 -4.405  0.000E+00
 -4.395  0.000E+00
 -4.385  0.000E+00
 -4.375  0.000E+00
 -4.365  0.000E+00
 -4.355  0.000E+00
 -4.345  0.000E+00
 -4.335  0.000E+00
 -4.325  0.000E+00
 -4.315  0.000E+00
 -4.305  0.000E+00
 -4.295  0.000E+00
 -4.285  0.000E+00
 -4.275  0.000E+00
 -4.265  0.000E+00
 -4.255  0.000E+00
 -4.245  0.000E+00
 -4.235  0.000E+00
 -4.225  0.000E+00
 -4.215  0.000E+00
 -4.205  0.000E+00
 -4.195  0.000E+00
 -4.185  0.000E+00
 -4.175  0.000E+00
 -4.165  0.000E+00
 -4.155  0.000E+00
 -4.145  0.000E+00
 -4.135  0.000E+00
 -4.125  0.000E+00
 -4.115  0.000E+00
 -4.105  0.000E+00
 -4.095  0.000E+00
 -4.085  0.000E+00
 -4.075  0.000E+00
 -4.065  0.000E+00
 -4.055  0.000E+00
 -4.045  0.000E+00
 -4.035  0.000E+00
 -4.025  0.000E+00
 -4.015  0.000E+00
 -4.005  0.000E+00
 -3.995  0.000E+00
 -3.985  0.000E+00
 -3.975  0.000E+00
 -3.965  0.000E+00
 -3.955  0.000E+00
 -3.945  0.000E+00
 -3.935  0.000E+00
 -3.925  0.000E+00
 -3.915  0.000E+00
 -3.905  0.000E+00
 -3.895  0.000E+00
 -3.885  0.000E+00
 -3.875  0.000E+00
 -3.865  0.000E+00
 -3.855  0.000E+00
 -3.845  0.000E+00
 -3.835  0.000E+00
 -3.825  0.000E+00
 -3.815  0.000E+00
 -3.805  0.000E+00
 -3.795  0.000E+00
 -3.785  0.000E+00
 -3.775  0.000E+00
 -3.765  0.000E+00
 -3.755  0.000E+00
 -3.745  0.000E+00
 -3.735  0.000E+00
 -3.725  0.000E+00
 -3.715  0.000E+00
 -3.705  0.000E+00
 -3.695  0.000E+00
 -3.685  0.000E+00
 -3.675  0.000E+00
 -3.665  0.000E+00
 -3.655  0.000E+00
 -3.645  0.000E+00
 -3.635  0.000E+00
 -3.625  0.000E+00
 -3.615  0.000E+00
 -3.605  0.000E+00
 -3.595  0.000E+00
 -3.585  0.000E+00
 -3.575  0.000E+00
 -3.565  0.000E+00
 -3.555  0.000E+00
 -3.545  0.000E+00
 -3.535  0.000E+00
 -3.525  0.000E+00
 -3.515  0.000E+00
 -3.505  0.000E+00
 -3.495  0.000E+00
 -3.485  0.000E+00
 -3.475  0.000E+00
 -3.465  0.000E+00
 -3.455  0.000E+00
 -3.445  0.000E+00
 -3.435  0.000E+00
 -3.425  0.000E+00
 -3.415  0.000E+00
 -3.405  0.000E+00
 -3.395  0.000E+00
 -3.385  0.000E+00
 -3.375  0.000E+00
 -3.365  0.000E+00
 -3.355  0.000E+00
 -3.345  0.000E+00
 -3.335  0.000E+00
 -3.325  0.000E+00
 -3.315  0.000E+00
 -3.305  0.000E+00
 -3.295  0.000E+00
 -3.285  0.000E+00
 -3.275  0.000E+00
 -3.265  0.000E+00
 -3.255  0.000E+00
 -3.245  0.000E+00
 -3.235  0.000E+00
 -3.225  0.000E+00
 -3.215  0.000E+00
 -3.205  0.000E+00
 -3.195  0.000E+00
 -3.185  0.000E+00
 -3.175  0.000E+00
 -3.165  0.000E+00
 -3.155  0.000E+00
 -3.145  0.000E+00
 -3.135  0.000E+00
 -3.125  0.000E+00
 -3.115  0.000E+00
 -3.105  0.000E+00
 -3.095  0.000E+00
 -3.085  0.000E+00
 -3.075  0.000E+00
 -3.065  0.000E+00
 -3.055  0.000E+00
 -3.045  0.000E+00
 -3.035  0.000E+00
 -3.025  0.000E+00
 -3.015  0.000E+00
 -3.005  0.000E+00
 -2.995  0.000E+00
 -2.985  0.000E+00
 -2.975  0.000E+00
 -2.965  0.000E+00
 -2.955  0.000E+00
 -2.945  0.000E+00
 -2.935  0.000E+00
 -2.925  0.000E+00
 -2.915  0.000E+00
 -2.905  0.000E+00
 -2.895  0.000E+00
 -2.885  0.000E+00
 -2.875  0.000E+00
 -2.865  0.000E+00
 -2.855  0.000E+00
 -2.845  0.000E+00
 -2.835  0.000E+00
 -2.825  0.000E+00
 -2.815  0.000E+00
 -2.805  0.000E+00
 -2.795  0.000E+00
 -2.785  0.000E+00
 -2.775  0.000E+00
 -2.765  0.000E+00
 -2.755  0.000E+00
 -2.745  0.000E+00
 -2.735  0.000E+00
 -2.725  0.000E+00
 -2.715  0.000E+00
 -2.705  0.000E+00
 -2.695  0.000E+00
 -2.685  0.000E+00
 -2.675  0.000E+00
 -2.665  0.000E+00
 -2.655  0.000E+00
 -2.645  0.000E+00
 -2.635  0.000E+00
 -2.625  0.000E+00
 -2.615  0.000E+00
 -2.605  0.000E+00
 -2.595  0.000E+00
 -2.585  0.000E+00
 -2.575  0.000E+00
 -2.565  0.000E+00
 -2.555  0.000E+00
 -2.545  0.000E+00
 -2.535  0.000E+00
 -2.525  0.000E+00
 -2.515  0.000E+00
 -2.505  0.000E+00
 -2.495  0.000E+00
 -2.485  0.000E+00
 -2.475  0.000E+00
 -2.465  0.000E+00
 -2.455  0.000E+00
 -2.445  0.000E+00
 -2.435  0.000E+00
 -2.425  0.000E+00
 -2.415  0.000E+00
 -2.405  0.000E+00
 -2.395  0.000E+00
 -2.385  0.000E+00
 -2.375  0.000E+00
 -2.365  0.000E+00
 -2.355  0.000E+00
 -2.345  0.000E+00
 -2.335  0.000E+00
 -2.325  0.000E+00
 -2.315  0.000E+00
 -2.305  0.000E+00
 -2.295  0.000E+00
 -2.285  0.000E+00
 -2.275  0.000E+00
 -2.265  0.000E+00
 -2.255  0.000E+00
 -2.245  0.000E+00
 -2.235  0.000E+00
 -2.225  0.000E+00
 -2.215  0.000E+00
 -2.205  0.000E+00
 -2.195  0.000E+00
 -2.185  0.000E+00
 -2.175  0.000E+00
 -2.165  0.000E+00
 -2.155  0.000E+00
 -2.145  0.000E+00
 -2.135  0.000E+00
 -2.125  0.000E+00
 -2.115  0.000E+00
 -2.105  0.000E+00
 -2.095  0.000E+00
 -2.085  0.000E+00
 -2.075  0.000E+00
 -2.065  0.000E+00
 -2.055  0.000E+00
 -2.045  0.000E+00
 -2.035  0.000E+00
 -2.025  0.000E+00
 -2.015  0.000E+00
 -2.005  0.000E+00
 -1.995  0.000E+00
 -1.985  0.000E+00
 -1.975  0.000E+00
 -1.965  0.000E+00
 -1.955  0.000E+00
 -1.945  0.000E+00
 -1.935  0.000E+00
 -1.925  0.000E+00
 -1.915  0.177E+01
 -1.905  0.134E+02
 -1.895  0.112E+02
 -1.885  0.129E+02
 -1.875  0.280E+02
 -1.865  0.183E+02
 -1.855  0.229E+02
 -1.845  0.297E+02
 -1.835  0.748E+02
 -1.825  0.442E+02
 -1.815  0.968E+02
 -1.805  0.121E+03
 -1.795  0.104E+03
 -1.785  0.675E+02
 -1.775  0.390E+02
 -1.765  0.246E+02
 -1.755  0.232E+02
 -1.745  0.252E+02
 -1.735  0.141E+02
 -1.725  0.361E+02
 -1.715  0.139E+02
 -1.705  0.142E+02
 -1.695  0.121E+02
 -1.685  0.850E+01
 -1.675  0.132E+02
 -1.665  0.115E+02
 -1.655  0.943E+01
 -1.645  0.890E+01
 -1.635  0.148E+02
 -1.625  0.679E+01
 -1.615  0.420E+01
 -1.605  0.416E+01
 -1.595  0.547E+01
 -1.585  0.596E+01
 -1.575  0.170E+01
 -1.565  0.122E+01
 -1.555  0.237E+01
 -1.545  0.361E+01
 -1.535  0.427E+01
 -1.525  0.678E+01
 -1.515  0.165E+01
 -1.505  0.390E+01
 -1.495  0.312E+00
 -1.485  0.200E+01
 -1.475  0.386E+01
 -1.465  0.388E+01
 -1.455  0.262E+01
 -1.445  0.244E+01
 -1.435  0.233E+01
 -1.425  0.231E+01
 -1.415  0.273E+01
 -1.405  0.565E+01
 -1.395  0.542E+01
 -1.385  0.396E+01
 -1.375  0.335E+01
 -1.365  0.305E+01
 -1.355  0.305E+01
 -1.345  0.329E+01
 -1.335  0.381E+01
 -1.325  0.402E+01
 -1.315  0.392E+01
 -1.305  0.472E+01
 -1.295  0.674E+01
 -1.285  0.761E+01
 -1.275  0.672E+01
 -1.265  0.634E+01
 -1.255  0.673E+01
 -1.245  0.508E+01
 -1.235  0.469E+01
 -1.225  0.494E+01
 -1.215  0.688E+01
 -1.205  0.804E+01
 -1.195  0.105E+02
 -1.185  0.903E+01
 -1.175  0.391E+01
 -1.165  0.334E+01
 -1.155  0.546E+01
 -1.145  0.102E+02
 -1.135  0.108E+02
 -1.125  0.792E+01
 -1.115  0.474E+01
 -1.105  0.328E+01
 -1.095  0.427E+01
 -1.085  0.903E+00
 -1.075  0.139E+00
 -1.065  0.374E-03
 -1.055  0.000E+00
 -1.045  0.000E+00
 -1.035  0.000E+00
 -1.025  0.000E+00
 -1.015  0.000E+00
 -1.005  0.000E+00
 -0.995  0.000E+00
 -0.985  0.000E+00
 -0.975  0.000E+00
 -0.965  0.000E+00
 -0.955  0.000E+00
 -0.945  0.000E+00
 -0.935  0.000E+00
 -0.925  0.000E+00
 -0.915  0.000E+00
 -0.905  0.000E+00
 -0.895  0.000E+00
 -0.885  0.000E+00
 -0.875  0.000E+00
 -0.865  0.000E+00
 -0.855  0.000E+00
 -0.845  0.000E+00
 -0.835  0.000E+00
 -0.825  0.000E+00
 -0.815  0.000E+00
 -0.805  0.000E+00
 -0.795  0.000E+00
 -0.785  0.000E+00
 -0.775  0.000E+00
 -0.765  0.000E+00
 -0.755  0.000E+00
 -0.745  0.000E+00
 -0.735  0.000E+00
 -0.725  0.000E+00
 -0.715  0.000E+00
 -0.705  0.000E+00
 -0.695  0.000E+00
 -0.685  0.000E+00
 -0.675  0.000E+00
 -0.665  0.000E+00
 -0.655  0.000E+00
 -0.645  0.000E+00
 -0.635  0.000E+00
 -0.625  0.000E+00
 -0.615  0.000E+00
 -0.605  0.000E+00
 -0.595  0.000E+00
 -0.585  0.000E+00
 -0.575  0.000E+00
 -0.565  0.000E+00
 -0.555  0.000E+00
 -0.545  0.000E+00
 -0.535  0.000E+00
 -0.525  0.000E+00
 -0.515  0.000E+00
 -0.505  0.000E+00
 -0.495  0.000E+00
 -0.485  0.000E+00
 -0.475  0.000E+00
 -0.465  0.000E+00
 -0.455  0.000E+00
 -0.445  0.000E+00
 -0.435  0.000E+00
 -0.425  0.000E+00
 -0.415  0.000E+00
 -0.405  0.000E+00
 -0.395  0.000E+00
 -0.385  0.000E+00
 -0.375  0.000E+00
 -0.365  0.000E+00
 -0.355  0.000E+00
 -0.345  0.000E+00
 -0.335  0.000E+00
 -0.325  0.000E+00
 -0.315  0.000E+00
 -0.305  0.000E+00
 -0.295  0.000E+00
 -0.285  0.000E+00
 -0.275  0.000E+00
 -0.265  0.000E+00
 -0.255  0.000E+00
 -0.245  0.000E+00
 -0.235  0.000E+00
 -0.225  0.000E+00
 -0.215  0.000E+00
 -0.205  0.000E+00
 -0.195  0.000E+00
 -0.185  0.000E+00
 -0.175  0.000E+00
 -0.165  0.000E+00
 -0.155  0.000E+00
 -0.145  0.000E+00
 -0.135  0.000E+00
 -0.125  0.000E+00
 -0.115  0.000E+00
 -0.105  0.000E+00
 -0.095  0.000E+00
 -0.085  0.000E+00
 -0.075  0.000E+00
 -0.065  0.000E+00
 -0.055  0.000E+00
 -0.045  0.000E+00
 -0.035  0.000E+00
 -0.025  0.000E+00
 -0.015  0.000E+00
 -0.005  0.000E+00
  0.005  0.000E+00
  0.015  0.000E+00
  0.025  0.000E+00
  0.035  0.000E+00
  0.045  0.000E+00
  0.055  0.000E+00
  0.065  0.000E+00
  0.075  0.000E+00
  0.085  0.000E+00
  0.095  0.000E+00
  0.105  0.000E+00
  0.115  0.000E+00
  0.125  0.000E+00
  0.135  0.000E+00
  0.145  0.000E+00
  0.155  0.000E+00
  0.165  0.000E+00
  0.175  0.000E+00
  0.185  0.000E+00
  0.195  0.000E+00
  0.205  0.000E+00
  0.215  0.000E+00
  0.225  0.000E+00
  0.235  0.000E+00
  0.245  0.000E+00
  0.255  0.000E+00
  0.265  0.000E+00
  0.275  0.000E+00
  0.285  0.000E+00
  0.295  0.000E+00
  0.305  0.000E+00
  0.315  0.000E+00
  0.325  0.000E+00
  0.335  0.000E+00
  0.345  0.301E-03
  0.355  0.894E-02
  0.365  0.457E-01
  0.375  0.123E+00
  0.385  0.242E+00
  0.395  0.402E+00
  0.405  0.603E+00
  0.415  0.846E+00
  0.425  0.113E+01
  0.435  0.145E+01
  0.445  0.182E+01
  0.455  0.227E+01
  0.465  0.424E+01
  0.475  0.733E+01
  0.485  0.710E+01
  0.495  0.486E+01
  0.505  0.445E+01
  0.515  0.465E+01
  0.525  0.490E+01
  0.535  0.519E+01
  0.545  0.553E+01
  0.555  0.589E+01
  0.565  0.629E+01
  0.575  0.674E+01
  0.585  0.724E+01
  0.595  0.775E+01
  0.605  0.826E+01
  0.615  0.884E+01
  0.625  0.960E+01
  0.635  0.106E+02
  0.645  0.119E+02
  0.655  0.134E+02
  0.665  0.149E+02
  0.675  0.162E+02
  0.685  0.154E+02
  0.695  0.165E+02
  0.705  0.177E+02
  0.715  0.179E+02
  0.725  0.172E+02
  0.735  0.166E+02
  0.745  0.162E+02
  0.755  0.158E+02
  0.765  0.154E+02
  0.775  0.149E+02
  0.785  0.143E+02
  0.795  0.138E+02
  0.805  0.133E+02
  0.815  0.137E+02
  0.825  0.149E+02
  0.835  0.160E+02
  0.845  0.176E+02
  0.855  0.201E+02
  0.865  0.233E+02
  0.875  0.274E+02
  0.885  0.382E+02
  0.895  0.467E+02
  0.905  0.509E+02
  0.915  0.522E+02
  0.925  0.543E+02
  0.935  0.614E+02
  0.945  0.643E+02
  0.955  0.628E+02
  0.965  0.591E+02
  0.975  0.575E+02
  0.985  0.600E+02
  0.995  0.702E+02
  1.005  0.671E+02
  1.015  0.666E+02
  1.025  0.851E+02
  1.035  0.590E+02
  1.045  0.360E+02
  1.055  0.237E+02
  1.065  0.232E+02
  1.075  0.287E+02
  1.085  0.342E+02
  1.095  0.379E+02
  1.105  0.398E+02
  1.115  0.400E+02
  1.125  0.394E+02
  1.135  0.380E+02
  1.145  0.362E+02
  1.155  0.336E+02
  1.165  0.304E+02
  1.175  0.283E+02
  1.185  0.264E+02
  1.195  0.246E+02
  1.205  0.231E+02
  1.215  0.217E+02
  1.225  0.205E+02
  1.235  0.195E+02
  1.245  0.187E+02
  1.255  0.180E+02
  1.265  0.174E+02
  1.275  0.175E+02
  1.285  0.181E+02
  1.295  0.189E+02
  1.305  0.194E+02
  1.315  0.197E+02
  1.325  0.198E+02
  1.335  0.196E+02
  1.345  0.192E+02
  1.355  0.186E+02
  1.365  0.178E+02
  1.375  0.168E+02
  1.385  0.157E+02
  1.395  0.146E+02
  1.405  0.135E+02
  1.415  0.127E+02
  1.425  0.124E+02
  1.435  0.123E+02
  1.445  0.122E+02
  1.455  0.122E+02
  1.465  0.122E+02
  1.475  0.123E+02
  1.485  0.128E+02
  1.495  0.136E+02
  1.505  0.137E+02
  1.515  0.135E+02
  1.525  0.132E+02
  1.535  0.128E+02
  1.545  0.122E+02
  1.555  0.115E+02
  1.565  0.107E+02
  1.575  0.966E+01
  1.585  0.860E+01
  1.595  0.775E+01
  1.605  0.711E+01
  1.615  0.682E+01
  1.625  0.721E+01
  1.635  0.788E+01
  1.645  0.864E+01
  1.655  0.943E+01
  1.665  0.101E+02
  1.675  0.107E+02
  1.685  0.112E+02
  1.695  0.116E+02
  1.705  0.119E+02
  1.715  0.120E+02
  1.725  0.121E+02
  1.735  0.120E+02
  1.745  0.119E+02
  1.755  0.116E+02
  1.765  0.112E+02
  1.775  0.108E+02
  1.785  0.104E+02
  1.795  0.100E+02
  1.805  0.975E+01
  1.815  0.948E+01
  1.825  0.920E+01
  1.835  0.896E+01
  1.845  0.879E+01
  1.855  0.860E+01
  1.865  0.844E+01
  1.875  0.829E+01
  1.885  0.816E+01
  1.895  0.805E+01
  1.905  0.800E+01
  1.915  0.800E+01
  1.925  0.800E+01
  1.935  0.801E+01
  1.945  0.808E+01
  1.955  0.815E+01
  1.965  0.821E+01
  1.975  0.828E+01
  1.985  0.833E+01
  1.995  0.837E+01
  2.005  0.841E+01
  2.015  0.844E+01
  2.025  0.845E+01
  2.035  0.846E+01
  2.045  0.845E+01
  2.055  0.840E+01
  2.065  0.975E+01
  2.075  0.125E+02
  2.085  0.105E+02
  2.095  0.911E+01
  2.105  0.858E+01
  2.115  0.793E+01
  2.125  0.731E+01
  2.135  0.707E+01
  2.145  0.702E+01
  2.155  0.695E+01
  2.165  0.689E+01
  2.175  0.683E+01
  2.185  0.677E+01
  2.195  0.669E+01
  2.205  0.662E+01
  2.215  0.655E+01
  2.225  0.649E+01
  2.235  0.642E+01
  2.245  0.634E+01
  2.255  0.628E+01
  2.265  0.621E+01
  2.275  0.616E+01
  2.285  0.615E+01
  2.295  0.616E+01
  2.305  0.620E+01
  2.315  0.626E+01
  2.325  0.636E+01
  2.335  0.649E+01
  2.345  0.669E+01
  2.355  0.689E+01
  2.365  0.711E+01
  2.375  0.737E+01
  2.385  0.761E+01
  2.395  0.803E+01
  2.405  0.868E+01
  2.415  0.936E+01
  2.425  0.104E+02
  2.435  0.117E+02
  2.445  0.133E+02
  2.455  0.142E+02
  2.465  0.145E+02
  2.475  0.147E+02
  2.485  0.148E+02
  2.495  0.149E+02
  2.505  0.150E+02
  2.515  0.150E+02
  2.525  0.150E+02
  2.535  0.150E+02
  2.545  0.158E+02
  2.555  0.174E+02
  2.565  0.195E+02
  2.575  0.219E+02
  2.585  0.243E+02
  2.595  0.265E+02
  2.605  0.298E+02
  2.615  0.341E+02
  2.625  0.492E+02
  2.635  0.621E+02
  2.645  0.738E+02
  2.655  0.623E+02
  2.665  0.501E+02
  2.675  0.382E+02
  2.685  0.299E+02
  2.695  0.239E+02
  2.705  0.196E+02
  2.715  0.173E+02
  2.725  0.178E+02
  2.735  0.198E+02
  2.745  0.229E+02
  2.755  0.252E+02
  2.765  0.301E+02
  2.775  0.365E+02
  2.785  0.271E+02
  2.795  0.222E+02
  2.805  0.187E+02
  2.815  0.161E+02
  2.825  0.166E+02
  2.835  0.168E+02
  2.845  0.176E+02
  2.855  0.190E+02
  2.865  0.220E+02
  2.875  0.233E+02
  2.885  0.245E+02
  2.895  0.255E+02
  2.905  0.265E+02
  2.915  0.275E+02
  2.925  0.284E+02
  2.935  0.291E+02
  2.945  0.303E+02
  2.955  0.318E+02
  2.965  0.333E+02
  2.975  0.349E+02
  2.985  0.363E+02
  2.995  0.375E+02
  3.005  0.389E+02
  3.015  0.403E+02
  3.025  0.412E+02
  3.035  0.415E+02
  3.045  0.417E+02
  3.055  0.419E+02
  3.065  0.405E+02
  3.075  0.351E+02
  3.085  0.307E+02
  3.095  0.270E+02
  3.105  0.263E+02
  3.115  0.265E+02
  3.125  0.268E+02
  3.135  0.272E+02
  3.145  0.270E+02
  3.155  0.259E+02
  3.165  0.247E+02
  3.175  0.237E+02
  3.185  0.235E+02
  3.195  0.242E+02
  3.205  0.261E+02
  3.215  0.302E+02
  3.225  0.356E+02
  3.235  0.393E+02
  3.245  0.410E+02
  3.255  0.427E+02
  3.265  0.450E+02
  3.275  0.474E+02
  3.285  0.514E+02
  3.295  0.503E+02
  3.305  0.508E+02
  3.315  0.473E+02
  3.325  0.462E+02
  3.335  0.447E+02
  3.345  0.433E+02
  3.355  0.414E+02
  3.365  0.414E+02
  3.375  0.417E+02
  3.385  0.423E+02
  3.395  0.432E+02
  3.405  0.479E+02
  3.415  0.469E+02
  3.425  0.452E+02
  3.435  0.450E+02
  3.445  0.454E+02
  3.455  0.462E+02
  3.465  0.475E+02
  3.475  0.480E+02
  3.485  0.483E+02
  3.495  0.492E+02
  3.505  0.502E+02
  3.515  0.497E+02
  3.525  0.476E+02
  3.535  0.456E+02
  3.545  0.447E+02
  3.555  0.442E+02
  3.565  0.432E+02
  3.575  0.426E+02
  3.585  0.448E+02
  3.595  0.448E+02
  3.605  0.396E+02
  3.615  0.365E+02
  3.625  0.376E+02
  3.635  0.381E+02
  3.645  0.374E+02
  3.655  0.371E+02
  3.665  0.372E+02
  3.675  0.377E+02
  3.685  0.384E+02
  3.695  0.445E+02
  3.705  0.440E+02
  3.715  0.549E+02
  3.725  0.535E+02
  3.735  0.646E+02
  3.745  0.657E+02
  3.755  0.684E+02
  3.765  0.683E+02
  3.775  0.546E+02
  3.785  0.538E+02
  3.795  0.532E+02
  3.805  0.526E+02
  3.815  0.523E+02
  3.825  0.539E+02
  3.835  0.534E+02
  3.845  0.499E+02
  3.855  0.448E+02
  3.865  0.391E+02
  3.875  0.353E+02
  3.885  0.330E+02
  3.895  0.320E+02
  3.905  0.314E+02
  3.915  0.315E+02
  3.925  0.318E+02
  3.935  0.325E+02
  3.945  0.336E+02
  3.955  0.349E+02
  3.965  0.369E+02
  3.975  0.393E+02
  3.985  0.426E+02
  3.995  0.457E+02
  4.005  0.484E+02
  4.015  0.497E+02
  4.025  0.498E+02
  4.035  0.510E+02
  4.045  0.531E+02
  4.055  0.545E+02
  4.065  0.554E+02
  4.075  0.602E+02
  4.085  0.567E+02
  4.095  0.514E+02
  4.105  0.499E+02
  4.115  0.478E+02
  4.125  0.461E+02
  4.135  0.458E+02
  4.145  0.469E+02
  4.155  0.432E+02
  4.165  0.419E+02
  4.175  0.423E+02
  4.185  0.431E+02
  4.195  0.448E+02
  4.205  0.468E+02
  4.215  0.498E+02
  4.225  0.539E+02
  4.235  0.609E+02
  4.245  0.684E+02
  4.255  0.724E+02
  4.265  0.747E+02
  4.275  0.731E+02
  4.285  0.771E+02
  4.295  0.535E+02
  4.305  0.443E+02
  4.315  0.402E+02
  4.325  0.392E+02
  4.335  0.396E+02
  4.345  0.395E+02
  4.355  0.349E+02
  4.365  0.319E+02
  4.375  0.315E+02
  4.385  0.315E+02
  4.395  0.322E+02
  4.405  0.335E+02
  4.415  0.347E+02
  4.425  0.354E+02
  4.435  0.349E+02
  4.445  0.352E+02
  4.455  0.365E+02
  4.465  0.376E+02
  4.475  0.386E+02
  4.485  0.396E+02
  4.495  0.407E+02
  4.505  0.422E+02
  4.515  0.486E+02
  4.525  0.516E+02
  4.535  0.557E+02
  4.545  0.550E+02
  4.555  0.566E+02
  4.565  0.592E+02
  4.575  0.598E+02
  4.585  0.577E+02
  4.595  0.547E+02
  4.605  0.481E+02
  4.615  0.480E+02
  4.625  0.501E+02
  4.635  0.511E+02
  4.645  0.604E+02
  4.655  0.745E+02
  4.665  0.765E+02
  4.675  0.644E+02
  4.685  0.509E+02
  4.695  0.427E+02
  4.705  0.374E+02
  4.715  0.342E+02
  4.725  0.321E+02
  4.735  0.306E+02
  4.745  0.296E+02
  4.755  0.290E+02
  4.765  0.284E+02
  4.775  0.279E+02
  4.785  0.274E+02
  4.795  0.269E+02
  4.805  0.263E+02
  4.815  0.258E+02
  4.825  0.254E+02
  4.835  0.254E+02
  4.845  0.262E+02
  4.855  0.288E+02
  4.865  0.304E+02
  4.875  0.301E+02
  4.885  0.278E+02
  4.895  0.256E+02
  4.905  0.254E+02
  4.915  0.252E+02
  4.925  0.248E+02
  4.935  0.242E+02
  4.945  0.236E+02
  4.955  0.238E+02
  4.965  0.234E+02
  4.975  0.197E+02
  4.985  0.187E+02
  4.995  0.231E+02
  5.005  0.250E+02
  5.015  0.235E+02
  5.025  0.216E+02
  5.035  0.195E+02
  5.045  0.171E+02
  5.055  0.141E+02
  5.065  0.116E+02
  5.075  0.106E+02
  5.085  0.104E+02
  5.095  0.104E+02
  5.105  0.104E+02
  5.115  0.105E+02
  5.125  0.106E+02
  5.135  0.112E+02
  5.145  0.132E+02
  5.155  0.169E+02
  5.165  0.207E+02
  5.175  0.224E+02
  5.185  0.230E+02
  5.195  0.264E+02
  5.205  0.276E+02
  5.215  0.258E+02
  5.225  0.222E+02
  5.235  0.208E+02
  5.245  0.183E+02
  5.255  0.160E+02
  5.265  0.137E+02
  5.275  0.117E+02
  5.285  0.101E+02
  5.295  0.875E+01
  5.305  0.777E+01
  5.315  0.694E+01
  5.325  0.614E+01
  5.335  0.549E+01
  5.345  0.505E+01
  5.355  0.516E+01
  5.365  0.565E+01
  5.375  0.576E+01
  5.385  0.556E+01
  5.395  0.505E+01
  5.405  0.420E+01
  5.415  0.300E+01
  5.425  0.154E+01
  5.435  0.665E+00
  5.445  0.332E+00
  5.455  0.124E+00
  5.465  0.209E-01
  5.475  0.117E-02
  5.485  0.240E-03
  5.495  0.000E+00
  5.505  0.000E+00
  5.515  0.000E+00
  5.525  0.000E+00
  5.535  0.000E+00
  5.545  0.000E+00
  5.555  0.000E+00
  5.565  0.000E+00
  5.575  0.000E+00
  5.585  0.000E+00
  5.595  0.000E+00
  5.605  0.000E+00
  5.615  0.000E+00
  5.625  0.000E+00
  5.635  0.000E+00
  5.645  0.000E+00
  5.655  0.000E+00
  5.665  0.000E+00
  5.675  0.000E+00
  5.685  0.000E+00
  5.695  0.000E+00
  5.705  0.000E+00
  5.715  0.000E+00
  5.725  0.000E+00
  5.735  0.000E+00
  5.745  0.000E+00
  5.755  0.000E+00
  5.765  0.000E+00
  5.775  0.000E+00
  5.785  0.000E+00
  5.795  0.000E+00
  5.805  0.000E+00
  5.815  0.000E+00
  5.825  0.000E+00
  5.835  0.000E+00
  5.845  0.000E+00
  5.855  0.000E+00
  5.865  0.000E+00
  5.875  0.000E+00
  5.885  0.000E+00
  5.895  0.000E+00
  5.905  0.000E+00
  5.915  0.000E+00
  5.925  0.000E+00
  5.935  0.000E+00
  5.945  0.000E+00
  5.955  0.000E+00
  5.965  0.000E+00
  5.975  0.000E+00
  5.985  0.000E+00
  5.995  0.000E+00
  6.005  0.000E+00
  6.015  0.000E+00
  6.025  0.000E+00
  6.035  0.000E+00
  6.045  0.000E+00
  6.055  0.000E+00
  6.065  0.000E+00
  6.075  0.000E+00
  6.085  0.000E+00
  6.095  0.000E+00
  6.105  0.000E+00
  6.115  0.000E+00
  6.125  0.000E+00
  6.135  0.000E+00
  6.145  0.000E+00
  6.155  0.000E+00
  6.165  0.000E+00
  6.175  0.000E+00
  6.185  0.000E+00
  6.195  0.000E+00
  6.205  0.000E+00
  6.215  0.000E+00
  6.225  0.000E+00
  6.235  0.000E+00
  6.245  0.000E+00
  6.255  0.000E+00
  6.265  0.000E+00
  6.275  0.000E+00
  6.285  0.000E+00
  6.295  0.000E+00
  6.305  0.000E+00
  6.315  0.000E+00
  6.325  0.000E+00
  6.335  0.000E+00
  6.345  0.000E+00
  6.355  0.000E+00
  6.365  0.000E+00
  6.375  0.000E+00
  6.385  0.000E+00
  6.395  0.000E+00
  6.405  0.000E+00
  6.415  0.000E+00
  6.425  0.000E+00
  6.435  0.000E+00
  6.445  0.000E+00
  6.455  0.000E+00
  6.465  0.000E+00
  6.475  0.000E+00
  6.485  0.000E+00
  6.495  0.000E+00
  6.505  0.000E+00
  6.515  0.000E+00
  6.525  0.000E+00
  6.535  0.000E+00
  6.545  0.000E+00
  6.555  0.000E+00
  6.565  0.000E+00
  6.575  0.000E+00
  6.585  0.000E+00
  6.595  0.000E+00
  6.605  0.000E+00
  6.615  0.000E+00
  6.625  0.000E+00
  6.635  0.000E+00
  6.645  0.000E+00
  6.655  0.000E+00
  6.665  0.000E+00
  6.675  0.000E+00
  6.685  0.000E+00
  6.695  0.000E+00
  6.705  0.000E+00
  6.715  0.000E+00
  6.725  0.000E+00
  6.735  0.000E+00
  6.745  0.000E+00
  6.755  0.000E+00
  6.765  0.000E+00
  6.775  0.000E+00
  6.785  0.000E+00
  6.795  0.000E+00
  6.805  0.000E+00
  6.815  0.000E+00
  6.825  0.000E+00
  6.835  0.000E+00
  6.845  0.000E+00
  6.855  0.000E+00
  6.865  0.000E+00
  6.875  0.000E+00
  6.885  0.000E+00
  6.895  0.000E+00
  6.905  0.000E+00
  6.915  0.000E+00
  6.925  0.000E+00
  6.935  0.000E+00
  6.945  0.000E+00
  6.955  0.000E+00
  6.965  0.000E+00
  6.975  0.000E+00
  6.985  0.000E+00
  6.995  0.000E+00
  7.005  0.000E+00
  7.015  0.000E+00
  7.025  0.000E+00
  7.035  0.000E+00
  7.045  0.000E+00
  7.055  0.000E+00
  7.065  0.000E+00
  7.075  0.000E+00
  7.085  0.000E+00
  7.095  0.000E+00
  7.105  0.000E+00
  7.115  0.000E+00
  7.125  0.000E+00
  7.135  0.000E+00
  7.145  0.000E+00
  7.155  0.000E+00
  7.165  0.000E+00
  7.175  0.000E+00
  7.185  0.000E+00
  7.195  0.000E+00
  7.205  0.000E+00
  7.215  0.000E+00
  7.225  0.000E+00
  7.235  0.000E+00
  7.245  0.000E+00
  7.255  0.000E+00
  7.265  0.000E+00
  7.275  0.000E+00
  7.285  0.000E+00
  7.295  0.000E+00
  7.305  0.000E+00
  7.315  0.000E+00
  7.325  0.000E+00
  7.335  0.000E+00
  7.345  0.000E+00
  7.355  0.000E+00
  7.365  0.000E+00
  7.375  0.000E+00
  7.385  0.000E+00
  7.395  0.000E+00
  7.405  0.000E+00
  7.415  0.000E+00
  7.425  0.000E+00
  7.435  0.132E-06
  7.445  0.244E-04
  7.455  0.908E-04
  7.465  0.200E-03
  7.475  0.406E-03
  7.485  0.780E-03
  7.495  0.132E-02
  7.505  0.204E-02
  7.515  0.294E-02
  7.525  0.402E-02
  7.535  0.527E-02
  7.545  0.670E-02
  7.555  0.834E-02
  7.565  0.101E-01
  7.575  0.122E-01
  7.585  0.144E-01
  7.595  0.168E-01
  7.605  0.193E-01
  7.615  0.222E-01
  7.625  0.252E-01
  7.635  0.284E-01
  7.645  0.318E-01
  7.655  0.355E-01
  7.665  0.393E-01
  7.675  0.434E-01
  7.685  0.477E-01
  7.695  0.521E-01
  7.705  0.569E-01
  7.715  0.619E-01
  7.725  0.670E-01
  7.735  0.725E-01
  7.745  0.783E-01
  7.755  0.841E-01
  7.765  0.903E-01
  7.775  0.967E-01
  7.785  0.103E+00
  7.795  0.110E+00
  7.805  0.117E+00
  7.815  0.125E+00
  7.825  0.133E+00
  7.835  0.140E+00
  7.845  0.147E+00
  7.855  0.155E+00
  7.865  0.164E+00
  7.875  0.174E+00
  7.885  0.186E+00
  7.895  0.197E+00
  7.905  0.208E+00
  7.915  0.218E+00
  7.925  0.228E+00
  7.935  0.237E+00
  7.945  0.246E+00
  7.955  0.255E+00
  7.965  0.263E+00
  7.975  0.272E+00
  7.985  0.280E+00
  7.995  0.288E+00
  8.005  0.296E+00
  8.015  0.304E+00
  8.025  0.311E+00
  8.035  0.319E+00
  8.045  0.326E+00
  8.055  0.333E+00
  8.065  0.339E+00
  8.075  0.346E+00
  8.085  0.352E+00
  8.095  0.359E+00
  8.105  0.365E+00
  8.115  0.371E+00
  8.125  0.376E+00
  8.135  0.379E+00
  8.145  0.380E+00
  8.155  0.380E+00
  8.165  0.380E+00
  8.175  0.382E+00
  8.185  0.384E+00
  8.195  0.387E+00
  8.205  0.390E+00
  8.215  0.392E+00
  8.225  0.395E+00
  8.235  0.397E+00
  8.245  0.401E+00
  8.255  0.404E+00
  8.265  0.408E+00
  8.275  0.413E+00
  8.285  0.419E+00
  8.295  0.425E+00
  8.305  0.432E+00
  8.315  0.441E+00