
     Program PWSCF v.7.2 starts on  1Jul2024 at 11:15:22 

     This program is part of the open-source Quantum ESPRESSO suite
     for quantum simulation of materials; please cite
         "P. Giannozzi et al., J. Phys.:Condens. Matter 21 395502 (2009);
         "P. Giannozzi et al., J. Phys.:Condens. Matter 29 465901 (2017);
         "P. Giannozzi et al., J. Chem. Phys. 152 154105 (2020);
          URL http://www.quantum-espresso.org", 
     in publications or presentations arising from this work. More details at
     http://www.quantum-espresso.org/quote

     Parallel version (MPI), running on  1120 processors

     MPI processes distributed on    10 nodes
     233449 MiB available memory on the printing compute node when the environment starts
 
     Waiting for input...
     Reading input from standard input

     Current dimensions of program PWSCF are:
     Max number of different atomic species (ntypx) = 10
     Max number of k-points (npk) =  40000
     Max angular momentum in pseudopotentials (lmaxx) =  4

     Atomic positions and unit cell read from directory:
     ./out/ZnS_hub.save/
 
     file S.pbe-n-kjpaw_psl.1.0.0.UPF: wavefunction(s)  3S 3P renormalized
     file Zn.pbe-dnl-kjpaw_psl.1.0.0.UPF: wavefunction(s)  4S 3D renormalized
     Found identity + (  0.0000  0.2500  0.2500) symmetry
     This is a supercell, fractional translations are disabled
     [opt_tetra]  Optimized tetrahedron method is used.
 
     K-points division:     npool     =      10
     R & G space division:  proc/nbgrp/npool/nimage =     112
     Subspace diagonalization in iterative solution of the eigenvalue problem:
     one sub-group per band group will be used
     scalapack distributed-memory algorithm (size of sub-group:  3*  3 procs)

 
     Parallelization info
     --------------------
     sticks:   dense  smooth     PW     G-vecs:    dense   smooth      PW
     Min         126     126     33                11287    11287    1523
     Max         128     128     34                11292    11292    1528
     Sum       14137   14137   3721              1264415  1264415  170709
 
     Using Slab Decomposition
 


     bravais-lattice index     =            1
     lattice parameter (alat)  =      20.5686  a.u.
     unit-cell volume          =    8701.8437 (a.u.)^3
     number of atoms/cell      =           64
     number of atomic types    =            2
     number of electrons       =       576.00
     number of Kohn-Sham states=          345
     kinetic-energy cutoff     =     105.0000  Ry
     charge density cutoff     =     420.0000  Ry
     Exchange-correlation= SLA  PW   PBX  PBC
                           (   1   4   3   4   0   0   0)
     Hubbard projectors: ortho-atomic
     Hubbard parameters of DFT+U (Dudarev formulation) in eV:
     U(Zn-3d) =  4.0000

     Internal variables: lda_plus_u = T, lda_plus_u_kind = 0

     celldm(1)=  20.568554  celldm(2)=   0.000000  celldm(3)=   0.000000
     celldm(4)=   0.000000  celldm(5)=   0.000000  celldm(6)=   0.000000

     crystal axes: (cart. coord. in units of alat)
               a(1) = (   1.000000   0.000000   0.000000 )  
               a(2) = (   0.000000   1.000000   0.000000 )  
               a(3) = (   0.000000   0.000000   1.000000 )  

     reciprocal axes: (cart. coord. in units 2 pi/alat)
               b(1) = (  1.000000  0.000000  0.000000 )  
               b(2) = (  0.000000  1.000000  0.000000 )  
               b(3) = (  0.000000  0.000000  1.000000 )  


     PseudoPot. # 1 for S  read from file:
     /arf/home/amuhaymin/pseudo/S.pbe-n-kjpaw_psl.1.0.0.UPF
     MD5 check sum: fb45dfebcf3e72a4e1bd4a866ec2e262
     Pseudo is Projector augmented-wave + core cor, Zval =  6.0
     Generated using &quot;atomic&quot; code by A. Dal Corso  v.6.3
     Shape of augmentation charge: PSQ
     Using radial grid of 1151 points,  6 beta functions with: 
                l(1) =   0
                l(2) =   0
                l(3) =   1
                l(4) =   1
                l(5) =   2
                l(6) =   2
     Q(r) pseudized with 0 coefficients 


     PseudoPot. # 2 for Zn read from file:
     /arf/home/amuhaymin/pseudo/Zn.pbe-dnl-kjpaw_psl.1.0.0.UPF
     MD5 check sum: c608214d9520ac179f507641260889e3
     Pseudo is Projector augmented-wave + core cor, Zval = 12.0
     Generated using &quot;atomic&quot; code by A. Dal Corso  v.6.2.2
     Shape of augmentation charge: PSQ
     Using radial grid of 1201 points,  6 beta functions with: 
                l(1) =   0
                l(2) =   0
                l(3) =   1
                l(4) =   1
                l(5) =   2
                l(6) =   2
     Q(r) pseudized with 0 coefficients 


     atomic species   valence    mass     pseudopotential
        S              6.00    32.06500     S ( 1.00)
        Zn            12.00    65.38000     Zn( 1.00)

     24 Sym. Ops. (no inversion) found


                                    s                        frac. trans.

      isym =  1     identity                                     

 cryst.   s( 1) = (     1          0          0      )
                  (     0          1          0      )
                  (     0          0          1      )

 cart.    s( 1) = (  1.0000000  0.0000000  0.0000000 )
                  (  0.0000000  1.0000000  0.0000000 )
                  (  0.0000000  0.0000000  1.0000000 )


      isym =  2     180 deg rotation - cart. axis [0,0,1]        

 cryst.   s( 2) = (    -1          0          0      )
                  (     0         -1          0      )
                  (     0          0          1      )

 cart.    s( 2) = ( -1.0000000  0.0000000  0.0000000 )
                  (  0.0000000 -1.0000000  0.0000000 )
                  (  0.0000000  0.0000000  1.0000000 )


      isym =  3     180 deg rotation - cart. axis [0,1,0]        

 cryst.   s( 3) = (    -1          0          0      )
                  (     0          1          0      )
                  (     0          0         -1      )

 cart.    s( 3) = ( -1.0000000  0.0000000  0.0000000 )
                  (  0.0000000  1.0000000  0.0000000 )
                  (  0.0000000  0.0000000 -1.0000000 )


      isym =  4     180 deg rotation - cart. axis [1,0,0]        

 cryst.   s( 4) = (     1          0          0      )
                  (     0         -1          0      )
                  (     0          0         -1      )

 cart.    s( 4) = (  1.0000000  0.0000000  0.0000000 )
                  (  0.0000000 -1.0000000  0.0000000 )
                  (  0.0000000  0.0000000 -1.0000000 )


      isym =  5     120 deg rotation - cart. axis [-1,-1,-1]     

 cryst.   s( 5) = (     0          0          1      )
                  (     1          0          0      )
                  (     0          1          0      )

 cart.    s( 5) = (  0.0000000  1.0000000  0.0000000 )
                  (  0.0000000  0.0000000  1.0000000 )
                  (  1.0000000  0.0000000  0.0000000 )


      isym =  6     120 deg rotation - cart. axis [-1,1,1]       

 cryst.   s( 6) = (     0          0         -1      )
                  (    -1          0          0      )
                  (     0          1          0      )

 cart.    s( 6) = (  0.0000000 -1.0000000  0.0000000 )
                  (  0.0000000  0.0000000  1.0000000 )
                  ( -1.0000000  0.0000000  0.0000000 )


      isym =  7     120 deg rotation - cart. axis [1,1,-1]       

 cryst.   s( 7) = (     0          0         -1      )
                  (     1          0          0      )
                  (     0         -1          0      )

 cart.    s( 7) = (  0.0000000  1.0000000  0.0000000 )
                  (  0.0000000  0.0000000 -1.0000000 )
                  ( -1.0000000  0.0000000  0.0000000 )


      isym =  8     120 deg rotation - cart. axis [1,-1,1]       

 cryst.   s( 8) = (     0          0          1      )
                  (    -1          0          0      )
                  (     0         -1          0      )

 cart.    s( 8) = (  0.0000000 -1.0000000  0.0000000 )
                  (  0.0000000  0.0000000 -1.0000000 )
                  (  1.0000000  0.0000000  0.0000000 )


      isym =  9     120 deg rotation - cart. axis [1,1,1]        

 cryst.   s( 9) = (     0          1          0      )
                  (     0          0          1      )
                  (     1          0          0      )

 cart.    s( 9) = (  0.0000000  0.0000000  1.0000000 )
                  (  1.0000000  0.0000000  0.0000000 )
                  (  0.0000000  1.0000000  0.0000000 )


      isym = 10     120 deg rotation - cart. axis [-1,1,-1]      

 cryst.   s(10) = (     0         -1          0      )
                  (     0          0         -1      )
                  (     1          0          0      )

 cart.    s(10) = (  0.0000000  0.0000000  1.0000000 )
                  ( -1.0000000  0.0000000  0.0000000 )
                  (  0.0000000 -1.0000000  0.0000000 )


      isym = 11     120 deg rotation - cart. axis [1,-1,-1]      

 cryst.   s(11) = (     0         -1          0      )
                  (     0          0          1      )
                  (    -1          0          0      )

 cart.    s(11) = (  0.0000000  0.0000000 -1.0000000 )
                  ( -1.0000000  0.0000000  0.0000000 )
                  (  0.0000000  1.0000000  0.0000000 )


      isym = 12     120 deg rotation - cart. axis [-1,-1,1]      

 cryst.   s(12) = (     0          1          0      )
                  (     0          0         -1      )
                  (    -1          0          0      )

 cart.    s(12) = (  0.0000000  0.0000000 -1.0000000 )
                  (  1.0000000  0.0000000  0.0000000 )
                  (  0.0000000 -1.0000000  0.0000000 )


      isym = 13     inv. 180 deg rotation - cart. axis [1,1,0]   

 cryst.   s(13) = (     0         -1          0      )
                  (    -1          0          0      )
                  (     0          0          1      )

 cart.    s(13) = (  0.0000000 -1.0000000  0.0000000 )
                  ( -1.0000000  0.0000000  0.0000000 )
                  (  0.0000000  0.0000000  1.0000000 )


      isym = 14     inv. 180 deg rotation - cart. axis [1,-1,0]  

 cryst.   s(14) = (     0          1          0      )
                  (     1          0          0      )
                  (     0          0          1      )

 cart.    s(14) = (  0.0000000  1.0000000  0.0000000 )
                  (  1.0000000  0.0000000  0.0000000 )
                  (  0.0000000  0.0000000  1.0000000 )


      isym = 15     inv.  90 deg rotation - cart. axis [0,0,-1]  

 cryst.   s(15) = (     0          1          0      )
                  (    -1          0          0      )
                  (     0          0         -1      )

 cart.    s(15) = (  0.0000000 -1.0000000  0.0000000 )
                  (  1.0000000  0.0000000  0.0000000 )
                  (  0.0000000  0.0000000 -1.0000000 )


      isym = 16     inv.  90 deg rotation - cart. axis [0,0,1]   

 cryst.   s(16) = (     0         -1          0      )
                  (     1          0          0      )
                  (     0          0         -1      )

 cart.    s(16) = (  0.0000000  1.0000000  0.0000000 )
                  ( -1.0000000  0.0000000  0.0000000 )
                  (  0.0000000  0.0000000 -1.0000000 )


      isym = 17     inv. 180 deg rotation - cart. axis [1,0,1]   

 cryst.   s(17) = (     0          0         -1      )
                  (     0          1          0      )
                  (    -1          0          0      )

 cart.    s(17) = (  0.0000000  0.0000000 -1.0000000 )
                  (  0.0000000  1.0000000  0.0000000 )
                  ( -1.0000000  0.0000000  0.0000000 )


      isym = 18     inv. 180 deg rotation - cart. axis [-1,0,1]  

 cryst.   s(18) = (     0          0          1      )
                  (     0          1          0      )
                  (     1          0          0      )

 cart.    s(18) = (  0.0000000  0.0000000  1.0000000 )
                  (  0.0000000  1.0000000  0.0000000 )
                  (  1.0000000  0.0000000  0.0000000 )


      isym = 19     inv.  90 deg rotation - cart. axis [0,1,0]   

 cryst.   s(19) = (     0          0          1      )
                  (     0         -1          0      )
                  (    -1          0          0      )

 cart.    s(19) = (  0.0000000  0.0000000 -1.0000000 )
                  (  0.0000000 -1.0000000  0.0000000 )
                  (  1.0000000  0.0000000  0.0000000 )


      isym = 20     inv.  90 deg rotation - cart. axis [0,-1,0]  

 cryst.   s(20) = (     0          0         -1      )
                  (     0         -1          0      )
                  (     1          0          0      )

 cart.    s(20) = (  0.0000000  0.0000000  1.0000000 )
                  (  0.0000000 -1.0000000  0.0000000 )
                  ( -1.0000000  0.0000000  0.0000000 )


      isym = 21     inv. 180 deg rotation - cart. axis [0,1,1]   

 cryst.   s(21) = (     1          0          0      )
                  (     0          0         -1      )
                  (     0         -1          0      )

 cart.    s(21) = (  1.0000000  0.0000000  0.0000000 )
                  (  0.0000000  0.0000000 -1.0000000 )
                  (  0.0000000 -1.0000000  0.0000000 )


      isym = 22     inv. 180 deg rotation - cart. axis [0,1,-1]  

 cryst.   s(22) = (     1          0          0      )
                  (     0          0          1      )
                  (     0          1          0      )

 cart.    s(22) = (  1.0000000  0.0000000  0.0000000 )
                  (  0.0000000  0.0000000  1.0000000 )
                  (  0.0000000  1.0000000  0.0000000 )


      isym = 23     inv.  90 deg rotation - cart. axis [-1,0,0]  

 cryst.   s(23) = (    -1          0          0      )
                  (     0          0          1      )
                  (     0         -1          0      )

 cart.    s(23) = ( -1.0000000  0.0000000  0.0000000 )
                  (  0.0000000  0.0000000 -1.0000000 )
                  (  0.0000000  1.0000000  0.0000000 )


      isym = 24     inv.  90 deg rotation - cart. axis [1,0,0]   

 cryst.   s(24) = (    -1          0          0      )
                  (     0          0         -1      )
                  (     0          1          0      )

 cart.    s(24) = ( -1.0000000  0.0000000  0.0000000 )
                  (  0.0000000  0.0000000  1.0000000 )
                  (  0.0000000 -1.0000000  0.0000000 )


     point group T_d (-43m) 
     there are  5 classes
     the character table:

       E     8C3   3C2   6S4   6s_d 
A_1    1.00  1.00  1.00  1.00  1.00
A_2    1.00  1.00  1.00 -1.00 -1.00
E      2.00 -1.00  2.00  0.00  0.00
T_1    3.00  0.00 -1.00  1.00 -1.00
T_2    3.00  0.00 -1.00 -1.00  1.00

     the symmetry operations in each class and the name of the first element:

     E        1
          identity                                               
     8C3      5    7    8    6   12    9   10   11
          120 deg rotation - cart. axis [-1,-1,-1]               
     3C2      2    3    4
          180 deg rotation - cart. axis [0,0,1]                  
     6S4     15   16   20   19   23   24
          inv.  90 deg rotation - cart. axis [0,0,-1]            
     6s_d    13   14   17   18   21   22
          inv. 180 deg rotation - cart. axis [1,1,0]             

   Cartesian axes

     site n.     atom                  positions (alat units)
         1           Zn  tau(   1) = (   0.0000000   0.0000000   0.0000000  )
         2           Zn  tau(   2) = (   0.0000000   0.2500000   0.2500000  )
         3           Zn  tau(   3) = (   0.2500000   0.0000000   0.2500000  )
         4           Zn  tau(   4) = (   0.2500000   0.2500000   0.0000000  )
         5           S   tau(   5) = (   0.1250000   0.3750000   0.3750000  )
         6           S   tau(   6) = (   0.1250000   0.1250000   0.1250000  )
         7           S   tau(   7) = (   0.3750000   0.3750000   0.1250000  )
         8           S   tau(   8) = (   0.3750000   0.1250000   0.3750000  )
         9           Zn  tau(   9) = (   0.0000000   0.0000000   0.5000000  )
        10           Zn  tau(  10) = (   0.0000000   0.2500000   0.7500000  )
        11           Zn  tau(  11) = (   0.2500000   0.0000000   0.7500000  )
        12           Zn  tau(  12) = (   0.2500000   0.2500000   0.5000000  )
        13           S   tau(  13) = (   0.1250000   0.3750000   0.8750000  )
        14           S   tau(  14) = (   0.1250000   0.1250000   0.6250000  )
        15           S   tau(  15) = (   0.3750000   0.3750000   0.6250000  )
        16           S   tau(  16) = (   0.3750000   0.1250000   0.8750000  )
        17           Zn  tau(  17) = (   0.0000000   0.5000000   0.0000000  )
        18           Zn  tau(  18) = (   0.0000000   0.7500000   0.2500000  )
        19           Zn  tau(  19) = (   0.2500000   0.5000000   0.2500000  )
        20           Zn  tau(  20) = (   0.2500000   0.7500000   0.0000000  )
        21           S   tau(  21) = (   0.1250000   0.8750000   0.3750000  )
        22           S   tau(  22) = (   0.1250000   0.6250000   0.1250000  )
        23           S   tau(  23) = (   0.3750000   0.8750000   0.1250000  )
        24           S   tau(  24) = (   0.3750000   0.6250000   0.3750000  )
        25           Zn  tau(  25) = (   0.0000000   0.5000000   0.5000000  )
        26           Zn  tau(  26) = (   0.0000000   0.7500000   0.7500000  )
        27           Zn  tau(  27) = (   0.2500000   0.5000000   0.7500000  )
        28           Zn  tau(  28) = (   0.2500000   0.7500000   0.5000000  )
        29           S   tau(  29) = (   0.1250000   0.8750000   0.8750000  )
        30           S   tau(  30) = (   0.1250000   0.6250000   0.6250000  )
        31           S   tau(  31) = (   0.3750000   0.8750000   0.6250000  )
        32           S   tau(  32) = (   0.3750000   0.6250000   0.8750000  )
        33           Zn  tau(  33) = (   0.5000000   0.0000000   0.0000000  )
        34           Zn  tau(  34) = (   0.5000000   0.2500000   0.2500000  )
        35           Zn  tau(  35) = (   0.7500000   0.0000000   0.2500000  )
        36           Zn  tau(  36) = (   0.7500000   0.2500000   0.0000000  )
        37           S   tau(  37) = (   0.6250000   0.3750000   0.3750000  )
        38           S   tau(  38) = (   0.6250000   0.1250000   0.1250000  )
        39           S   tau(  39) = (   0.8750000   0.3750000   0.1250000  )
        40           S   tau(  40) = (   0.8750000   0.1250000   0.3750000  )
        41           Zn  tau(  41) = (   0.5000000   0.0000000   0.5000000  )
        42           Zn  tau(  42) = (   0.5000000   0.2500000   0.7500000  )
        43           Zn  tau(  43) = (   0.7500000   0.0000000   0.7500000  )
        44           Zn  tau(  44) = (   0.7500000   0.2500000   0.5000000  )
        45           S   tau(  45) = (   0.6250000   0.3750000   0.8750000  )
        46           S   tau(  46) = (   0.6250000   0.1250000   0.6250000  )
        47           S   tau(  47) = (   0.8750000   0.3750000   0.6250000  )
        48           S   tau(  48) = (   0.8750000   0.1250000   0.8750000  )
        49           Zn  tau(  49) = (   0.5000000   0.5000000   0.0000000  )
        50           Zn  tau(  50) = (   0.5000000   0.7500000   0.2500000  )
        51           Zn  tau(  51) = (   0.7500000   0.5000000   0.2500000  )
        52           Zn  tau(  52) = (   0.7500000   0.7500000   0.0000000  )
        53           S   tau(  53) = (   0.6250000   0.8750000   0.3750000  )
        54           S   tau(  54) = (   0.6250000   0.6250000   0.1250000  )
        55           S   tau(  55) = (   0.8750000   0.8750000   0.1250000  )
        56           S   tau(  56) = (   0.8750000   0.6250000   0.3750000  )
        57           Zn  tau(  57) = (   0.5000000   0.5000000   0.5000000  )
        58           Zn  tau(  58) = (   0.5000000   0.7500000   0.7500000  )
        59           Zn  tau(  59) = (   0.7500000   0.5000000   0.7500000  )
        60           Zn  tau(  60) = (   0.7500000   0.7500000   0.5000000  )
        61           S   tau(  61) = (   0.6250000   0.8750000   0.8750000  )
        62           S   tau(  62) = (   0.6250000   0.6250000   0.6250000  )
        63           S   tau(  63) = (   0.8750000   0.8750000   0.6250000  )
        64           S   tau(  64) = (   0.8750000   0.6250000   0.8750000  )

   Crystallographic axes

     site n.     atom                  positions (cryst. coord.)
         1           Zn  tau(   1) = (  0.0000000  0.0000000  0.0000000  )
         2           Zn  tau(   2) = (  0.0000000  0.2500000  0.2500000  )
         3           Zn  tau(   3) = (  0.2500000  0.0000000  0.2500000  )
         4           Zn  tau(   4) = (  0.2500000  0.2500000  0.0000000  )
         5           S   tau(   5) = (  0.1250000  0.3750000  0.3750000  )
         6           S   tau(   6) = (  0.1250000  0.1250000  0.1250000  )
         7           S   tau(   7) = (  0.3750000  0.3750000  0.1250000  )
         8           S   tau(   8) = (  0.3750000  0.1250000  0.3750000  )
         9           Zn  tau(   9) = (  0.0000000  0.0000000  0.5000000  )
        10           Zn  tau(  10) = (  0.0000000  0.2500000  0.7500000  )
        11           Zn  tau(  11) = (  0.2500000  0.0000000  0.7500000  )
        12           Zn  tau(  12) = (  0.2500000  0.2500000  0.5000000  )
        13           S   tau(  13) = (  0.1250000  0.3750000  0.8750000  )
        14           S   tau(  14) = (  0.1250000  0.1250000  0.6250000  )
        15           S   tau(  15) = (  0.3750000  0.3750000  0.6250000  )
        16           S   tau(  16) = (  0.3750000  0.1250000  0.8750000  )
        17           Zn  tau(  17) = (  0.0000000  0.5000000  0.0000000  )
        18           Zn  tau(  18) = (  0.0000000  0.7500000  0.2500000  )
        19           Zn  tau(  19) = (  0.2500000  0.5000000  0.2500000  )
        20           Zn  tau(  20) = (  0.2500000  0.7500000  0.0000000  )
        21           S   tau(  21) = (  0.1250000  0.8750000  0.3750000  )
        22           S   tau(  22) = (  0.1250000  0.6250000  0.1250000  )
        23           S   tau(  23) = (  0.3750000  0.8750000  0.1250000  )
        24           S   tau(  24) = (  0.3750000  0.6250000  0.3750000  )
        25           Zn  tau(  25) = (  0.0000000  0.5000000  0.5000000  )
        26           Zn  tau(  26) = (  0.0000000  0.7500000  0.7500000  )
        27           Zn  tau(  27) = (  0.2500000  0.5000000  0.7500000  )
        28           Zn  tau(  28) = (  0.2500000  0.7500000  0.5000000  )
        29           S   tau(  29) = (  0.1250000  0.8750000  0.8750000  )
        30           S   tau(  30) = (  0.1250000  0.6250000  0.6250000  )
        31           S   tau(  31) = (  0.3750000  0.8750000  0.6250000  )
        32           S   tau(  32) = (  0.3750000  0.6250000  0.8750000  )
        33           Zn  tau(  33) = (  0.5000000  0.0000000  0.0000000  )
        34           Zn  tau(  34) = (  0.5000000  0.2500000  0.2500000  )
        35           Zn  tau(  35) = (  0.7500000  0.0000000  0.2500000  )
        36           Zn  tau(  36) = (  0.7500000  0.2500000  0.0000000  )
        37           S   tau(  37) = (  0.6250000  0.3750000  0.3750000  )
        38           S   tau(  38) = (  0.6250000  0.1250000  0.1250000  )
        39           S   tau(  39) = (  0.8750000  0.3750000  0.1250000  )
        40           S   tau(  40) = (  0.8750000  0.1250000  0.3750000  )
        41           Zn  tau(  41) = (  0.5000000  0.0000000  0.5000000  )
        42           Zn  tau(  42) = (  0.5000000  0.2500000  0.7500000  )
        43           Zn  tau(  43) = (  0.7500000  0.0000000  0.7500000  )
        44           Zn  tau(  44) = (  0.7500000  0.2500000  0.5000000  )
        45           S   tau(  45) = (  0.6250000  0.3750000  0.8750000  )
        46           S   tau(  46) = (  0.6250000  0.1250000  0.6250000  )
        47           S   tau(  47) = (  0.8750000  0.3750000  0.6250000  )
        48           S   tau(  48) = (  0.8750000  0.1250000  0.8750000  )
        49           Zn  tau(  49) = (  0.5000000  0.5000000  0.0000000  )
        50           Zn  tau(  50) = (  0.5000000  0.7500000  0.2500000  )
        51           Zn  tau(  51) = (  0.7500000  0.5000000  0.2500000  )
        52           Zn  tau(  52) = (  0.7500000  0.7500000  0.0000000  )
        53           S   tau(  53) = (  0.6250000  0.8750000  0.3750000  )
        54           S   tau(  54) = (  0.6250000  0.6250000  0.1250000  )
        55           S   tau(  55) = (  0.8750000  0.8750000  0.1250000  )
        56           S   tau(  56) = (  0.8750000  0.6250000  0.3750000  )
        57           Zn  tau(  57) = (  0.5000000  0.5000000  0.5000000  )
        58           Zn  tau(  58) = (  0.5000000  0.7500000  0.7500000  )
        59           Zn  tau(  59) = (  0.7500000  0.5000000  0.7500000  )
        60           Zn  tau(  60) = (  0.7500000  0.7500000  0.5000000  )
        61           S   tau(  61) = (  0.6250000  0.8750000  0.8750000  )
        62           S   tau(  62) = (  0.6250000  0.6250000  0.6250000  )
        63           S   tau(  63) = (  0.8750000  0.8750000  0.6250000  )
        64           S   tau(  64) = (  0.8750000  0.6250000  0.8750000  )

     number of k points=    10 (tetrahedron method)
                       cart. coord. in units 2pi/alat
        k(    1) = (   0.0000000   0.0000000   0.0000000), wk =   0.0312500
        k(    2) = (   0.0000000   0.0000000   0.2500000), wk =   0.1875000
        k(    3) = (   0.0000000   0.0000000  -0.5000000), wk =   0.0937500
        k(    4) = (   0.0000000   0.2500000   0.2500000), wk =   0.3750000
        k(    5) = (   0.0000000   0.2500000  -0.5000000), wk =   0.3750000
        k(    6) = (   0.0000000  -0.5000000  -0.5000000), wk =   0.0937500
        k(    7) = (   0.2500000   0.2500000   0.2500000), wk =   0.2500000
        k(    8) = (   0.2500000   0.2500000  -0.5000000), wk =   0.3750000
        k(    9) = (   0.2500000  -0.5000000  -0.5000000), wk =   0.1875000
        k(   10) = (  -0.5000000  -0.5000000  -0.5000000), wk =   0.0312500

                       cryst. coord.
        k(    1) = (   0.0000000   0.0000000   0.0000000), wk =   0.0312500
        k(    2) = (   0.0000000   0.0000000   0.2500000), wk =   0.1875000
        k(    3) = (   0.0000000   0.0000000  -0.5000000), wk =   0.0937500
        k(    4) = (   0.0000000   0.2500000   0.2500000), wk =   0.3750000
        k(    5) = (   0.0000000   0.2500000  -0.5000000), wk =   0.3750000
        k(    6) = (   0.0000000  -0.5000000  -0.5000000), wk =   0.0937500
        k(    7) = (   0.2500000   0.2500000   0.2500000), wk =   0.2500000
        k(    8) = (   0.2500000   0.2500000  -0.5000000), wk =   0.3750000
        k(    9) = (   0.2500000  -0.5000000  -0.5000000), wk =   0.1875000
        k(   10) = (  -0.5000000  -0.5000000  -0.5000000), wk =   0.0312500

     Dense  grid:  1264415 G-vectors     FFT dimensions: ( 135, 135, 135)

     Dynamical RAM for                 wfc:       7.43 MB

     Dynamical RAM for     wfc (w. buffer):       7.43 MB

     Dynamical RAM for             U proj.:       3.44 MB

     Dynamical RAM for  U proj. (w. buff.):       3.44 MB

     Dynamical RAM for           str. fact:       0.34 MB

     Dynamical RAM for           local pot:       0.00 MB

     Dynamical RAM for          nlocal pot:      24.80 MB

     Dynamical RAM for                qrad:       3.29 MB

     Dynamical RAM for          rho,v,vnew:       1.35 MB

     Dynamical RAM for           G-vectors:       0.73 MB

     Dynamical RAM for          h,s,v(r/c):       2.42 MB

     Dynamical RAM for          <psi|beta>:       6.06 MB

     Dynamical RAM for                 psi:      14.86 MB

     Dynamical RAM for                hpsi:      14.86 MB

     Dynamical RAM for                spsi:      14.86 MB

     Dynamical RAM for      wfcinit/wfcrot:      17.58 MB

     Dynamical RAM for           addusdens:       3.91 MB

     Estimated static dynamical RAM per process >      43.30 MB

     Estimated max dynamical RAM per process >      96.35 MB

     Estimated total dynamical RAM >     105.39 GB

     The potential is recalculated from file :
     ./out/ZnS_hub.save/charge-density


     HUBBARD ENERGY =    0.1761  (Ry)

     STARTING HUBBARD OCCUPATIONS:

     =================== HUBBARD OCCUPATIONS ===================
     ------------------------ ATOM    1 ------------------------
     Tr[ns(  1)] =   9.96241
     eigenvalues:
       0.995  0.995  0.995  0.998  0.998
     eigenvectors (columns):
      -0.000  0.000  0.000 -0.044 -0.999
      -0.349 -0.119  0.930  0.000  0.000
      -0.615 -0.720 -0.323  0.000  0.000
       0.000 -0.000 -0.000  0.999 -0.044
       0.707 -0.684  0.178 -0.000 -0.000
     occupation matrix ns (before diag.):
       0.998 -0.000 -0.000  0.000  0.000
      -0.000  0.995 -0.000  0.000  0.000
      -0.000 -0.000  0.995  0.000  0.000
       0.000  0.000  0.000  0.998 -0.000
       0.000  0.000  0.000 -0.000  0.995
     ------------------------ ATOM    2 ------------------------
     Tr[ns(  2)] =   9.96240
     eigenvalues:
       0.995  0.995  0.995  0.998  0.998
     eigenvectors (columns):
      -0.000  0.000  0.000 -0.866 -0.500
       0.597 -0.378  0.707  0.000 -0.000
       0.535  0.845 -0.000 -0.000  0.000
       0.000 -0.000  0.000 -0.500  0.866
      -0.597  0.378  0.707  0.000  0.000
     occupation matrix ns (before diag.):
       0.998 -0.000 -0.000 -0.000 -0.000
      -0.000  0.995 -0.000 -0.000  0.000
      -0.000 -0.000  0.995  0.000  0.000
      -0.000 -0.000  0.000  0.998  0.000
      -0.000  0.000  0.000  0.000  0.995
     ------------------------ ATOM    3 ------------------------
     Tr[ns(  3)] =   9.96240
     eigenvalues:
       0.995  0.995  0.995  0.998  0.998
     eigenvectors (columns):
      -0.000  0.000  0.000 -0.866 -0.500
       0.535  0.845 -0.000  0.000  0.000
       0.597 -0.378  0.707  0.000 -0.000
      -0.000  0.000 -0.000  0.500 -0.866
      -0.597  0.378  0.707  0.000  0.000
     occupation matrix ns (before diag.):
       0.998 -0.000 -0.000  0.000 -0.000
      -0.000  0.995 -0.000 -0.000  0.000
      -0.000 -0.000  0.995  0.000  0.000
       0.000 -0.000  0.000  0.998 -0.000
      -0.000  0.000  0.000 -0.000  0.995
     ------------------------ ATOM    4 ------------------------
     Tr[ns(  4)] =   9.96240
     eigenvalues:
       0.995  0.995  0.995  0.998  0.998
     eigenvectors (columns):
      -0.000 -0.000 -0.000  0.000  1.000
      -0.597 -0.378 -0.707 -0.000 -0.000
      -0.597 -0.378  0.707  0.000 -0.000
       0.000 -0.000 -0.000  1.000 -0.000
       0.535 -0.845 -0.000 -0.000 -0.000
     occupation matrix ns (before diag.):
       0.998 -0.000 -0.000  0.000 -0.000
      -0.000  0.995 -0.000 -0.000  0.000
      -0.000 -0.000  0.995  0.000  0.000
       0.000 -0.000  0.000  0.998 -0.000
      -0.000  0.000  0.000 -0.000  0.995
     ------------------------ ATOM    9 ------------------------
     Tr[ns(  9)] =   9.96240
     eigenvalues:
       0.995  0.995  0.995  0.998  0.998
     eigenvectors (columns):
      -0.000  0.000 -0.000 -1.000  0.000
      -0.000  0.440 -0.898  0.000  0.000
      -0.000  0.898  0.440  0.000  0.000
       0.000 -0.000  0.000  0.000  1.000
       1.000  0.000 -0.000 -0.000 -0.000
     occupation matrix ns (before diag.):
       0.998 -0.000 -0.000  0.000  0.000
      -0.000  0.995 -0.000  0.000  0.000
      -0.000 -0.000  0.995  0.000  0.000
       0.000  0.000  0.000  0.998 -0.000
       0.000  0.000  0.000 -0.000  0.995
     ------------------------ ATOM   10 ------------------------
     Tr[ns( 10)] =   9.96240
     eigenvalues:
       0.995  0.995  0.995  0.998  0.998
     eigenvectors (columns):
      -0.000  0.000  0.000 -0.866 -0.500
       0.597 -0.378  0.707  0.000 -0.000
      -0.535 -0.845 -0.000  0.000 -0.000
       0.000 -0.000  0.000 -0.500  0.866
       0.597 -0.378 -0.707 -0.000 -0.000
     occupation matrix ns (before diag.):
       0.998 -0.000  0.000 -0.000  0.000
      -0.000  0.995  0.000 -0.000 -0.000
       0.000  0.000  0.995 -0.000  0.000
      -0.000 -0.000 -0.000  0.998 -0.000
       0.000 -0.000  0.000 -0.000  0.995
     ------------------------ ATOM   11 ------------------------
     Tr[ns( 11)] =   9.96240
     eigenvalues:
       0.995  0.995  0.995  0.998  0.998
     eigenvectors (columns):
      -0.000  0.000  0.000 -0.866 -0.500
      -0.535 -0.845 -0.000  0.000 -0.000
       0.597 -0.378  0.707  0.000 -0.000
      -0.000  0.000 -0.000  0.500 -0.866
       0.597 -0.378 -0.707 -0.000 -0.000
     occupation matrix ns (before diag.):
       0.998  0.000 -0.000  0.000  0.000
       0.000  0.995  0.000  0.000  0.000
      -0.000  0.000  0.995  0.000 -0.000
       0.000  0.000  0.000  0.998  0.000
       0.000  0.000 -0.000  0.000  0.995
     ------------------------ ATOM   12 ------------------------
     Tr[ns( 12)] =   9.96241
     eigenvalues:
       0.995  0.995  0.995  0.998  0.998
     eigenvectors (columns):
      -0.000 -0.000  0.000  0.000  1.000
      -0.707  0.153 -0.690 -0.000  0.000
       0.707  0.153 -0.690  0.000  0.000
       0.000  0.000  0.000 -1.000  0.000
      -0.000  0.976  0.216  0.000  0.000
     occupation matrix ns (before diag.):
       0.998  0.000  0.000  0.000  0.000
       0.000  0.995  0.000  0.000 -0.000
       0.000  0.000  0.995 -0.000 -0.000
       0.000  0.000 -0.000  0.998 -0.000
       0.000 -0.000 -0.000 -0.000  0.995
     ------------------------ ATOM   17 ------------------------
     Tr[ns( 17)] =   9.96240
     eigenvalues:
       0.995  0.995  0.995  0.998  0.998
     eigenvectors (columns):
       0.000 -0.000 -0.000 -0.500  0.866
       1.000  0.000 -0.000 -0.000 -0.000
       0.000 -0.637  0.771 -0.000 -0.000
      -0.000  0.000  0.000 -0.866 -0.500
      -0.000  0.771  0.637  0.000  0.000
     occupation matrix ns (before diag.):
       0.998 -0.000 -0.000 -0.000  0.000
      -0.000  0.995 -0.000  0.000  0.000
      -0.000 -0.000  0.995  0.000  0.000
      -0.000  0.000  0.000  0.998 -0.000
       0.000  0.000  0.000 -0.000  0.995
     ------------------------ ATOM   18 ------------------------
     Tr[ns( 18)] =   9.96240
     eigenvalues:
       0.995  0.995  0.995  0.998  0.998
     eigenvectors (columns):
      -0.000  0.000  0.000 -0.866 -0.500
      -0.597  0.378 -0.707 -0.000  0.000
      -0.535 -0.845  0.000  0.000 -0.000
       0.000 -0.000  0.000 -0.500  0.866
      -0.597  0.378  0.707  0.000  0.000
     occupation matrix ns (before diag.):
       0.998  0.000  0.000 -0.000 -0.000
       0.000  0.995 -0.000  0.000 -0.000
       0.000 -0.000  0.995 -0.000 -0.000
      -0.000  0.000 -0.000  0.998  0.000
      -0.000 -0.000 -0.000  0.000  0.995
     ------------------------ ATOM   19 ------------------------
     Tr[ns( 19)] =   9.96241
     eigenvalues:
       0.995  0.995  0.995  0.998  0.998
     eigenvectors (columns):
       0.000 -0.000  0.000  0.866  0.500
      -0.000  0.976  0.216 -0.000  0.000
      -0.707 -0.153  0.690  0.000 -0.000
      -0.000 -0.000  0.000 -0.500  0.866
      -0.707  0.153 -0.690  0.000  0.000
     occupation matrix ns (before diag.):
       0.998  0.000  0.000  0.000  0.000
       0.000  0.995  0.000  0.000 -0.000
       0.000  0.000  0.995 -0.000 -0.000
       0.000  0.000 -0.000  0.998  0.000
       0.000 -0.000 -0.000  0.000  0.995
     ------------------------ ATOM   20 ------------------------
     Tr[ns( 20)] =   9.96240
     eigenvalues:
       0.995  0.995  0.995  0.998  0.998
     eigenvectors (columns):
      -0.000 -0.000  0.000  0.000  1.000
       0.597  0.378 -0.707 -0.000  0.000
      -0.597 -0.378 -0.707 -0.000 -0.000
      -0.000  0.000  0.000 -1.000  0.000
      -0.535  0.845 -0.000  0.000  0.000
     occupation matrix ns (before diag.):
       0.998  0.000 -0.000  0.000  0.000
       0.000  0.995  0.000  0.000  0.000
      -0.000  0.000  0.995  0.000 -0.000
       0.000  0.000  0.000  0.998 -0.000
       0.000  0.000 -0.000 -0.000  0.995
     ------------------------ ATOM   25 ------------------------
     Tr[ns( 25)] =   9.96241
     eigenvalues:
       0.995  0.995  0.995  0.998  0.998
     eigenvectors (columns):
      -0.000 -0.000 -0.000  0.500 -0.866
      -0.336 -0.942  0.000 -0.000  0.000
      -0.000 -0.000 -1.000 -0.000  0.000
       0.000  0.000  0.000 -0.866 -0.500
       0.942 -0.336 -0.000  0.000  0.000
     occupation matrix ns (before diag.):
       0.998 -0.000 -0.000  0.000  0.000
      -0.000  0.995 -0.000  0.000  0.000
      -0.000 -0.000  0.995  0.000  0.000
       0.000  0.000  0.000  0.998 -0.000
       0.000  0.000  0.000 -0.000  0.995
     ------------------------ ATOM   26 ------------------------
     Tr[ns( 26)] =   9.96240
     eigenvalues:
       0.995  0.995  0.995  0.998  0.998
     eigenvectors (columns):
      -0.000  0.000  0.000 -0.866 -0.500
      -0.597  0.378 -0.707 -0.000  0.000
       0.535  0.845 -0.000 -0.000  0.000
       0.000 -0.000  0.000 -0.500  0.866
       0.597 -0.378 -0.707 -0.000 -0.000
     occupation matrix ns (before diag.):
       0.998  0.000 -0.000 -0.000  0.000
       0.000  0.995  0.000  0.000  0.000
      -0.000  0.000  0.995  0.000 -0.000
      -0.000  0.000  0.000  0.998 -0.000
       0.000  0.000 -0.000 -0.000  0.995
     ------------------------ ATOM   27 ------------------------
     Tr[ns( 27)] =   9.96241
     eigenvalues:
       0.995  0.995  0.995  0.998  0.998
     eigenvectors (columns):
       0.000  0.000 -0.000  0.866  0.500
      -0.000  0.976  0.216 -0.000 -0.000
      -0.707  0.153 -0.690  0.000 -0.000
      -0.000  0.000 -0.000 -0.500  0.866
       0.707  0.153 -0.690 -0.000 -0.000
     occupation matrix ns (before diag.):
       0.998 -0.000  0.000  0.000 -0.000
      -0.000  0.995 -0.000 -0.000 -0.000
       0.000 -0.000  0.995 -0.000  0.000
       0.000 -0.000 -0.000  0.998 -0.000
      -0.000 -0.000  0.000 -0.000  0.995
     ------------------------ ATOM   28 ------------------------
     Tr[ns( 28)] =   9.96241
     eigenvalues:
       0.995  0.995  0.995  0.998  0.998
     eigenvectors (columns):
       0.000  0.000 -0.000 -0.000  1.000
      -0.707  0.153 -0.690 -0.000 -0.000
      -0.707 -0.153  0.690 -0.000  0.000
      -0.000  0.000  0.000  1.000  0.000
       0.000  0.976  0.216 -0.000 -0.000
     occupation matrix ns (before diag.):
       0.998 -0.000  0.000  0.000 -0.000
      -0.000  0.995 -0.000 -0.000 -0.000
       0.000 -0.000  0.995 -0.000  0.000
       0.000 -0.000 -0.000  0.998 -0.000
      -0.000 -0.000  0.000 -0.000  0.995
     ------------------------ ATOM   33 ------------------------
     Tr[ns( 33)] =   9.96240
     eigenvalues:
       0.995  0.995  0.995  0.998  0.998
     eigenvectors (columns):
      -0.000 -0.000 -0.000  0.500 -0.866
      -0.000 -0.360 -0.933 -0.000  0.000
      -1.000  0.000  0.000 -0.000  0.000
       0.000  0.000  0.000 -0.866 -0.500
       0.000  0.933 -0.360  0.000  0.000
     occupation matrix ns (before diag.):
       0.998 -0.000 -0.000  0.000  0.000
      -0.000  0.995 -0.000  0.000  0.000
      -0.000 -0.000  0.995  0.000  0.000
       0.000  0.000  0.000  0.998 -0.000
       0.000  0.000  0.000 -0.000  0.995
     ------------------------ ATOM   34 ------------------------
     Tr[ns( 34)] =   9.96241
     eigenvalues:
       0.995  0.995  0.995  0.998  0.998
     eigenvectors (columns):
       0.000  0.000 -0.000  0.866  0.500
      -0.707  0.153 -0.690  0.000 -0.000
       0.000 -0.976 -0.216 -0.000  0.000
       0.000 -0.000  0.000  0.500 -0.866
      -0.707 -0.153  0.690  0.000  0.000
     occupation matrix ns (before diag.):
       0.998  0.000  0.000 -0.000  0.000
       0.000  0.995  0.000  0.000 -0.000
       0.000  0.000  0.995 -0.000 -0.000
      -0.000  0.000 -0.000  0.998 -0.000
       0.000 -0.000 -0.000 -0.000  0.995
     ------------------------ ATOM   35 ------------------------
     Tr[ns( 35)] =   9.96240
     eigenvalues:
       0.995  0.995  0.995  0.998  0.998
     eigenvectors (columns):
      -0.000  0.000  0.000 -0.866 -0.500
      -0.535 -0.845  0.000  0.000 -0.000
      -0.597  0.378 -0.707 -0.000  0.000
      -0.000  0.000 -0.000  0.500 -0.866
      -0.597  0.378  0.707  0.000  0.000
     occupation matrix ns (before diag.):
       0.998  0.000  0.000  0.000 -0.000
       0.000  0.995 -0.000  0.000 -0.000
       0.000 -0.000  0.995 -0.000 -0.000
       0.000  0.000 -0.000  0.998 -0.000
      -0.000 -0.000 -0.000 -0.000  0.995
     ------------------------ ATOM   36 ------------------------
     Tr[ns( 36)] =   9.96240
     eigenvalues:
       0.995  0.995  0.995  0.998  0.998
     eigenvectors (columns):
       0.000  0.000  0.000 -0.000  1.000
       0.597  0.378  0.707  0.000 -0.000
      -0.597 -0.378  0.707  0.000  0.000
       0.000 -0.000  0.000 -1.000 -0.000
       0.535 -0.845  0.000  0.000  0.000
     occupation matrix ns (before diag.):
       0.998 -0.000  0.000  0.000  0.000
      -0.000  0.995  0.000 -0.000 -0.000
       0.000  0.000  0.995 -0.000  0.000
       0.000 -0.000 -0.000  0.998 -0.000
       0.000 -0.000  0.000 -0.000  0.995
     ------------------------ ATOM   41 ------------------------
     Tr[ns( 41)] =   9.96241
     eigenvalues:
       0.995  0.995  0.995  0.998  0.998
     eigenvectors (columns):
      -0.000 -0.000  0.000 -0.500  0.866
      -0.000 -0.000  1.000 -0.000 -0.000
      -0.616  0.788 -0.000 -0.000 -0.000
       0.000  0.000 -0.000 -0.866 -0.500
       0.788  0.616  0.000  0.000  0.000
     occupation matrix ns (before diag.):
       0.998 -0.000 -0.000 -0.000  0.000
      -0.000  0.995 -0.000  0.000  0.000
      -0.000 -0.000  0.995  0.000  0.000
      -0.000  0.000  0.000  0.998 -0.000
       0.000  0.000  0.000 -0.000  0.995
     ------------------------ ATOM   42 ------------------------
     Tr[ns( 42)] =   9.96241
     eigenvalues:
       0.995  0.995  0.995  0.998  0.998
     eigenvectors (columns):
       0.000 -0.000  0.000  0.866  0.500
      -0.707 -0.153  0.690  0.000 -0.000
      -0.000 -0.976 -0.216 -0.000 -0.000
       0.000  0.000 -0.000  0.500 -0.866
       0.707 -0.153  0.690 -0.000 -0.000
     occupation matrix ns (before diag.):
       0.998  0.000 -0.000 -0.000 -0.000
       0.000  0.995 -0.000  0.000  0.000
      -0.000 -0.000  0.995  0.000 -0.000
      -0.000  0.000  0.000  0.998  0.000
      -0.000  0.000 -0.000  0.000  0.995
     ------------------------ ATOM   43 ------------------------
     Tr[ns( 43)] =   9.96240
     eigenvalues:
       0.995  0.995  0.995  0.998  0.998
     eigenvectors (columns):
      -0.000  0.000  0.000 -0.866 -0.500
       0.535  0.845 -0.000  0.000  0.000
      -0.597  0.378 -0.707 -0.000  0.000
      -0.000  0.000 -0.000  0.500 -0.866
       0.597 -0.378 -0.707 -0.000 -0.000
     occupation matrix ns (before diag.):
       0.998 -0.000  0.000  0.000  0.000
      -0.000  0.995  0.000 -0.000 -0.000
       0.000  0.000  0.995 -0.000  0.000
       0.000 -0.000 -0.000  0.998  0.000
       0.000 -0.000  0.000  0.000  0.995
     ------------------------ ATOM   44 ------------------------
     Tr[ns( 44)] =   9.96241
     eigenvalues:
       0.995  0.995  0.995  0.998  0.998
     eigenvectors (columns):
      -0.000  0.000  0.000 -0.000  1.000
      -0.707 -0.153 -0.690  0.000  0.000
      -0.707  0.153  0.690  0.000 -0.000
       0.000  0.000  0.000  1.000  0.000
       0.000  0.976 -0.216 -0.000 -0.000
     occupation matrix ns (before diag.):
       0.998  0.000 -0.000  0.000 -0.000
       0.000  0.995 -0.000  0.000  0.000
      -0.000 -0.000  0.995  0.000 -0.000
       0.000  0.000  0.000  0.998 -0.000
      -0.000  0.000 -0.000 -0.000  0.995
     ------------------------ ATOM   49 ------------------------
     Tr[ns( 49)] =   9.96241
     eigenvalues:
       0.995  0.995  0.995  0.998  0.998
     eigenvectors (columns):
       0.000 -0.000  0.000 -1.000 -0.000
       0.405 -0.914 -0.000  0.000  0.000
       0.914  0.405 -0.000  0.000  0.000
      -0.000  0.000 -0.000 -0.000  1.000
      -0.000  0.000 -1.000 -0.000 -0.000
     occupation matrix ns (before diag.):
       0.998 -0.000 -0.000  0.000  0.000
      -0.000  0.995 -0.000  0.000  0.000
      -0.000 -0.000  0.995  0.000  0.000
       0.000  0.000  0.000  0.998 -0.000
       0.000  0.000  0.000 -0.000  0.995
     ------------------------ ATOM   50 ------------------------
     Tr[ns( 50)] =   9.96241
     eigenvalues:
       0.995  0.995  0.995  0.998  0.998
     eigenvectors (columns):
       0.000  0.000 -0.000  0.866  0.500
       0.707 -0.153  0.690 -0.000  0.000
       0.000  0.976  0.216  0.000 -0.000
       0.000 -0.000  0.000  0.500 -0.866
      -0.707 -0.153  0.690  0.000  0.000
     occupation matrix ns (before diag.):
       0.998 -0.000 -0.000 -0.000  0.000
      -0.000  0.995  0.000 -0.000  0.000
      -0.000  0.000  0.995  0.000  0.000
      -0.000 -0.000  0.000  0.998 -0.000
       0.000  0.000  0.000 -0.000  0.995
     ------------------------ ATOM   51 ------------------------
     Tr[ns( 51)] =   9.96241
     eigenvalues:
       0.995  0.995  0.995  0.998  0.998
     eigenvectors (columns):
       0.000 -0.000  0.000  0.866  0.500
       0.000 -0.976 -0.216 -0.000 -0.000
       0.707  0.153 -0.690 -0.000  0.000
      -0.000 -0.000  0.000 -0.500  0.866
      -0.707  0.153 -0.690  0.000  0.000
     occupation matrix ns (before diag.):
       0.998 -0.000 -0.000  0.000  0.000
      -0.000  0.995  0.000 -0.000  0.000
      -0.000  0.000  0.995  0.000  0.000
       0.000 -0.000  0.000  0.998  0.000
       0.000  0.000  0.000  0.000  0.995
     ------------------------ ATOM   52 ------------------------
     Tr[ns( 52)] =   9.96240
     eigenvalues:
       0.995  0.995  0.995  0.998  0.998
     eigenvectors (columns):
       0.000  0.000 -0.000 -0.000  1.000
      -0.597 -0.378  0.707  0.000  0.000
      -0.597 -0.378 -0.707 -0.000  0.000
       0.000  0.000 -0.000  1.000  0.000
      -0.535  0.845 -0.000 -0.000 -0.000
     occupation matrix ns (before diag.):
       0.998  0.000  0.000  0.000 -0.000
       0.000  0.995 -0.000  0.000 -0.000
       0.000 -0.000  0.995 -0.000 -0.000
       0.000  0.000 -0.000  0.998 -0.000
      -0.000 -0.000 -0.000 -0.000  0.995
     ------------------------ ATOM   57 ------------------------
     Tr[ns( 57)] =   9.96240
     eigenvalues:
       0.995  0.995  0.995  0.998  0.998
     eigenvectors (columns):
      -0.000  0.000  0.000 -0.018 -1.000
      -0.339  0.012  0.941  0.000  0.000
      -0.636 -0.740 -0.220  0.000  0.000
       0.000 -0.000 -0.000  1.000 -0.018
       0.693 -0.673  0.258 -0.000 -0.000
     occupation matrix ns (before diag.):
       0.998 -0.000 -0.000  0.000  0.000
      -0.000  0.995 -0.000  0.000  0.000
      -0.000 -0.000  0.995  0.000  0.000
       0.000  0.000  0.000  0.998 -0.000
       0.000  0.000  0.000 -0.000  0.995
     ------------------------ ATOM   58 ------------------------
     Tr[ns( 58)] =   9.96241
     eigenvalues:
       0.995  0.995  0.995  0.998  0.998
     eigenvectors (columns):
       0.000 -0.000  0.000  0.866  0.500
       0.707  0.153 -0.690 -0.000  0.000
      -0.000  0.976  0.216 -0.000  0.000
       0.000  0.000 -0.000  0.500 -0.866
       0.707 -0.153  0.690 -0.000 -0.000
     occupation matrix ns (before diag.):
       0.998 -0.000  0.000 -0.000 -0.000
      -0.000  0.995 -0.000 -0.000 -0.000
       0.000 -0.000  0.995 -0.000  0.000
      -0.000 -0.000 -0.000  0.998  0.000
      -0.000 -0.000  0.000  0.000  0.995
     ------------------------ ATOM   59 ------------------------
     Tr[ns( 59)] =   9.96241
     eigenvalues:
       0.995  0.995  0.995  0.998  0.998
     eigenvectors (columns):
       0.000  0.000 -0.000  0.866  0.500
      -0.000 -0.976 -0.216 -0.000  0.000
       0.707 -0.153  0.690 -0.000  0.000
      -0.000  0.000 -0.000 -0.500  0.866
       0.707  0.153 -0.690 -0.000 -0.000
     occupation matrix ns (before diag.):
       0.998  0.000 -0.000  0.000 -0.000
       0.000  0.995 -0.000  0.000  0.000
      -0.000 -0.000  0.995  0.000 -0.000
       0.000  0.000  0.000  0.998 -0.000
      -0.000  0.000 -0.000 -0.000  0.995
     ------------------------ ATOM   60 ------------------------
     Tr[ns( 60)] =   9.96241
     eigenvalues:
       0.995  0.995  0.995  0.998  0.998
     eigenvectors (columns):
       0.000 -0.000 -0.000 -0.000  1.000
      -0.707 -0.153 -0.690  0.000 -0.000
       0.707 -0.153 -0.690 -0.000 -0.000
      -0.000  0.000  0.000 -1.000 -0.000
      -0.000  0.976 -0.216  0.000  0.000
     occupation matrix ns (before diag.):
       0.998 -0.000 -0.000  0.000  0.000
      -0.000  0.995  0.000 -0.000  0.000
      -0.000  0.000  0.995  0.000  0.000
       0.000 -0.000  0.000  0.998 -0.000
       0.000  0.000  0.000 -0.000  0.995

     Number of occupied Hubbard levels =  318.7970

     Atomic wfc used for Hubbard projectors are orthogonalized

     Starting wfcs from file
     Checking if some PAW data can be deallocated... 
       PAW data deallocated on  560 nodes for type:  1
       PAW data deallocated on  560 nodes for type:  2

     Band Structure Calculation
     Davidson diagonalization with overlap

     Computing kpt #:     1  of     1 on this pool
     total cpu time spent up to now is       31.2 secs

     ethr =  1.74E-10,  avg # of iterations = 53.7

     total cpu time spent up to now is       31.3 secs

     End of band structure calculation

          k = 0.0000 0.0000 0.0000 (158355 PWs)   bands (ev):

    -7.4537  -6.9532  -6.9532  -6.9531  -6.9531  -6.9531  -6.9529  -6.6667
    -6.6667  -6.6667  -6.6667  -6.6667  -6.6667  -6.6667  -6.6667  -6.6665
    -6.6665  -6.6665  -6.6665  -6.6515  -6.6515  -6.6515  -6.6515  -6.3934
    -6.3934  -6.3934  -6.3847  -6.3847  -6.3847  -6.3845  -6.3845  -6.3845
    -2.3408  -2.3408  -2.3408  -2.2632  -2.2632  -2.2632  -2.2632  -2.2632
    -2.2632  -2.2575  -2.2575  -2.2575  -2.2574  -2.2574  -2.2574  -2.2574
    -2.2574  -2.2431  -2.2431  -2.2430  -2.2418  -2.2418  -2.2418  -2.2417
    -2.2416  -2.2416  -2.2416  -2.2416  -2.2416  -2.2416  -2.2416  -2.2416
    -2.2243  -2.2243  -2.2243  -2.2242  -2.2242  -2.2242  -2.2241  -2.2241
    -2.2241  -2.2241  -2.2241  -2.2241  -2.2177  -2.2177  -2.2177  -2.2176
    -2.2176  -2.2176  -2.2176  -2.2176  -2.2176  -2.2175  -2.2175  -2.2175
    -2.1931  -2.1930  -2.1930  -2.1930  -2.1930  -2.1930  -2.1599  -2.1599
    -2.1599  -2.1598  -2.1598  -2.1598  -2.0852  -2.0852  -2.0852  -2.0850
    -2.0850  -2.0850  -2.0336  -2.0336  -2.0336  -2.0336  -2.0336  -2.0336
    -2.0330  -2.0329  -2.0329  -2.0327  -2.0327  -2.0327  -2.0327  -2.0327
    -2.0327  -2.0327  -2.0327  -2.0327  -2.0307  -2.0306  -2.0306  -2.0306
    -2.0305  -2.0305  -2.0187  -2.0185  -2.0185  -2.0183  -2.0183  -2.0183
    -2.0183  -2.0183  -2.0183  -2.0183  -2.0183  -2.0183  -2.0079  -2.0079
    -2.0017  -2.0016  -2.0016  -2.0015  -2.0015  -2.0015  -1.9768  -1.9768
    -1.9766  -1.9766  -1.9766  -1.9765  -1.9765  -1.9765  -1.9726  -1.9724
    -1.9724  -1.9723  -1.9723  -1.9723  -1.9370  -1.9370  -1.9369  -1.8294
    -1.8294  -1.8294  -1.8293  -1.8293  -1.8293  -1.8293  -1.8293  -1.8293
    -1.8292  -1.8292  -1.8292  -1.7028  -1.7028  -1.7028  -1.7027  -1.6433
    -1.6433  -1.6433  -1.4913  -1.4913  -1.4913  -1.4912  -1.4912  -1.4912
     0.3895   0.3895   0.3895   0.3895   0.8372   0.8373   0.8373   1.0086
     1.0086   1.0087   1.0087   1.0087   1.0087   1.4777   1.4777   1.4778
     1.4778   1.4778   1.4778   1.4778   1.4778   1.4778   1.4778   1.4778
     1.4779   2.7602   2.7603   2.7603   2.7603   2.7603   2.7603   2.7967
     2.7967   2.7967   2.7967   2.7967   2.7967   2.8728   2.8728   2.8728
     2.8728   2.8728   2.8728   3.0119   3.0119   3.0119   3.0119   3.0119
     3.0119   3.0119   3.0119   3.0119   3.0119   3.0119   3.0119   3.3438
     3.3438   3.3438   3.3438   3.3438   3.3438   4.2507   4.2507   4.2507
     4.2508   4.2508   4.2508   4.2508   4.2508   4.2508   4.2509   4.2509
     4.2509   4.5700   4.5700   4.5700   4.5700   4.5701   4.5701   4.5701
     4.5701   4.5701   4.5701   4.5701   4.5701   4.6083   4.6083   4.6083
     4.6084   4.6084   4.6084   4.6084   4.6084   5.4158   5.4158   5.4158
     7.5717   8.8102   8.8102   8.8102   8.8102   8.9800   8.9800   8.9800
     9.6096   9.6096   9.6096   9.9820   9.9820   9.9821   9.9821   9.9821
     9.9821  10.1135  10.1135  10.1135  10.1135  10.1135  10.1136  10.3216
    10.3216  10.3216  10.3216  10.3216  10.3217  10.3217  10.3217  10.3217
    10.3217  10.3217  10.3218  11.2264  11.2264  11.2264  11.2265  11.2265
    11.2265  11.4827  11.4827  11.4827  11.4827  11.4827  11.4828  11.9372
    11.9372  11.9372  12.1845  12.1846  12.1846  12.1846  12.1846  12.1846
    12.1846

     occupation numbers 
     1.0000   1.0000   1.0000   1.0000   1.0000   1.0000   1.0000   1.0000
     1.0000   1.0000   1.0000   1.0000   1.0000   1.0000   1.0000   1.0000
     1.0000   1.0000   1.0000   1.0000   1.0000   1.0000   1.0000   1.0000
     1.0000   1.0000   1.0000   1.0000   1.0000   1.0000   1.0000   1.0000
     1.0000   1.0000   1.0000   1.0000   1.0000   1.0000   1.0000   1.0000
     1.0000   1.0000   1.0000   1.0000   1.0000   1.0000   1.0000   1.0000
     1.0000   1.0000   1.0000   1.0000   1.0000   1.0000   1.0000   1.0000
     1.0000   1.0000   1.0000   1.0000   1.0000   1.0000   1.0000   1.0000
     1.0000   1.0000   1.0000   1.0000   1.0000   1.0000   1.0000   1.0000
     1.0000   1.0000   1.0000   1.0000   1.0000   1.0000   1.0000   1.0000
     1.0000   1.0000   1.0000   1.0000   1.0000   1.0000   1.0000   1.0000
     1.0000   1.0000   1.0000   1.0000   1.0000   1.0000   1.0000   1.0000
     1.0000   1.0000   1.0000   1.0000   1.0000   1.0000   1.0000   1.0000
     1.0000   1.0000   1.0000   1.0000   1.0000   1.0000   1.0000   1.0000
     1.0000   1.0000   1.0000   1.0000   1.0000   1.0000   1.0000   1.0000
     1.0000   1.0000   1.0000   1.0000   1.0000   1.0000   1.0000   1.0000
     1.0000   1.0000   1.0000   1.0000   1.0000   1.0000   1.0000   1.0000
     1.0000   1.0000   1.0000   1.0000   1.0000   1.0000   1.0000   1.0000
     1.0000   1.0000   1.0000   1.0000   1.0000   1.0000   1.0000   1.0000
     1.0000   1.0000   1.0000   1.0000   1.0000   1.0000   1.0000   1.0000
     1.0000   1.0000   1.0000   1.0000   1.0000   1.0000   1.0000   1.0000
     1.0000   1.0000   1.0000   1.0000   1.0000   1.0000   1.0000   1.0000
     1.0000   1.0000   1.0000   1.0000   1.0000   1.0000   1.0000   1.0000
     1.0000   1.0000   1.0000   1.0000   1.0000   1.0000   1.0000   1.0000
     1.0000   1.0000   1.0000   1.0000   1.0000   1.0000   1.0000   1.0000
     1.0000   1.0000   1.0000   1.0000   1.0000   1.0000   1.0000   1.0000
     1.0000   1.0000   1.0000   1.0000   1.0000   1.0000   1.0000   1.0000
     1.0000   1.0000   1.0000   1.0000   1.0000   1.0000   1.0000   1.0000
     1.0000   1.0000   1.0000   1.0000   1.0000   1.0000   1.0000   1.0000
     1.0000   1.0000   1.0000   1.0000   1.0000   1.0000   1.0000   1.0000
     1.0000   1.0000   1.0000   1.0000   1.0000   1.0000   1.0000   1.0000
     1.0000   1.0000   1.0000   1.0000   1.0000   1.0000   1.0000   1.0000
     1.0000   1.0000   1.0000   1.0000   1.0000   1.0000   1.0000   1.0000
     1.0000   1.0000   1.0000   1.0000   1.0000   1.0000   1.0000   1.0000
     1.0000   1.0000   1.0000   1.0000   1.0000   1.0000   1.0000   1.0000
     1.0000   1.0000   1.0000   1.0000   1.0000   1.0000   1.0000   1.0000
     0.0000   0.0000   0.0000   0.0000   0.0000   0.0000   0.0000   0.0000
     0.0000   0.0000   0.0000   0.0000   0.0000   0.0000   0.0000   0.0000
     0.0000   0.0000   0.0000   0.0000   0.0000   0.0000   0.0000   0.0000
     0.0000   0.0000   0.0000   0.0000   0.0000   0.0000   0.0000   0.0000
     0.0000   0.0000   0.0000   0.0000   0.0000   0.0000   0.0000   0.0000
     0.0000   0.0000   0.0000   0.0000   0.0000   0.0000   0.0000   0.0000
     0.0000   0.0000   0.0000   0.0000   0.0000   0.0000   0.0000   0.0000
     0.0000

          k = 0.0000 0.0000 0.2500 (158119 PWs)   bands (ev):

    -7.4175  -7.1515  -6.9314  -6.9313  -6.9313  -6.9312  -6.7763  -6.7762
    -6.7762  -6.7761  -6.7458  -6.6644  -6.6644  -6.6644  -6.6644  -6.6536
    -6.6536  -6.6536  -6.6536  -6.5578  -6.5577  -6.5577  -6.5577  -6.4379
    -6.4058  -6.4057  -6.4057  -6.4056  -6.3921  -6.3921  -6.3859  -6.3859
    -2.3374  -2.3325  -2.3325  -2.3005  -2.2711  -2.2711  -2.2628  -2.2628
    -2.2627  -2.2627  -2.2559  -2.2558  -2.2558  -2.2558  -2.2524  -2.2524
    -2.2524  -2.2523  -2.2454  -2.2454  -2.2453  -2.2453  -2.2451  -2.2449
    -2.2449  -2.2449  -2.2384  -2.2375  -2.2374  -2.2374  -2.2374  -2.2350
    -2.2350  -2.2333  -2.2319  -2.2319  -2.2319  -2.2319  -2.2281  -2.2281
    -2.2281  -2.2280  -2.2245  -2.2245  -2.2244  -2.2243  -2.2038  -2.2037
    -2.2037  -2.2037  -2.2003  -2.2002  -2.2002  -2.2002  -2.1994  -2.1994
    -2.1928  -2.1928  -2.1928  -2.1927  -2.1740  -2.1740  -2.1621  -2.1620
    -2.1620  -2.1620  -2.1508  -2.1508  -2.0985  -2.0985  -2.0966  -2.0966
    -2.0822  -2.0821  -2.0818  -2.0818  -2.0817  -2.0817  -2.0517  -2.0516
    -2.0366  -2.0365  -2.0365  -2.0365  -2.0361  -2.0360  -2.0360  -2.0360
    -2.0332  -2.0225  -2.0225  -2.0224  -2.0224  -2.0212  -2.0210  -2.0210
    -2.0210  -2.0116  -2.0116  -2.0115  -2.0114  -2.0114  -2.0114  -2.0112
    -2.0112  -2.0112  -2.0052  -2.0012  -2.0011  -2.0010  -2.0010  -1.9991
    -1.9989  -1.9989  -1.9989  -1.9860  -1.9824  -1.9822  -1.9821  -1.9820
    -1.9819  -1.9819  -1.9819  -1.9818  -1.9818  -1.9818  -1.9794  -1.9725
    -1.9724  -1.9723  -1.9723  -1.9588  -1.9424  -1.9423  -1.9396  -1.9194
    -1.9193  -1.9193  -1.9193  -1.8168  -1.8168  -1.8168  -1.8167  -1.7279
    -1.7279  -1.7279  -1.7278  -1.7129  -1.7071  -1.7071  -1.7071  -1.7070
    -1.6190  -1.6190  -1.5165  -1.5164  -1.5164  -1.5164  -1.5121  -1.5121
     0.5094   0.5094   0.5094   0.5094   0.8581   0.8581   0.9782   0.9783
     1.0117   1.0152   1.0153   1.0153   1.0153   1.2131   1.2132   1.2132
     1.2132   1.2409   1.2409   1.2409   1.2409   1.8389   1.8389   1.8389
     1.8390   2.0853   2.5673   2.5673   2.5673   2.5674   2.6248   2.6248
     2.6248   2.6249   2.7097   2.7097   2.7097   2.7097   2.8457   2.8457
     2.9363   2.9363   3.2509   3.2509   3.2509   3.2510   3.2566   3.2566
     3.2683   3.2683   3.3089   3.3089   3.3089   3.3089   3.3975   3.3976
     3.3976   3.3976   3.4078   3.4078   3.5584   3.8843   3.8843   4.1231
     4.1231   4.1231   4.1232   4.2475   4.2476   4.2476   4.2476   4.3657
     4.3658   4.3658   4.3658   4.3945   4.3945   4.3945   4.3946   4.5756
     4.5756   4.5756   4.5756   4.6026   4.6026   4.6027   4.6027   4.6521
     4.6521   4.6679   4.6679   4.6679   4.6680   5.0540   5.3107   5.3107
     7.9634   9.0293   9.0293   9.0293   9.0293   9.0568   9.2094   9.2094
     9.5087   9.6364   9.6772   9.8152   9.8153  10.0414  10.0587  10.0588
    10.0588  10.0588  10.0897  10.0897  10.0897  10.0897  10.2973  10.2974
    10.2974  10.2974  10.3324  10.3324  10.3324  10.3325  10.4390  10.4390
    10.4390  10.4390  10.6578  10.6766  10.6766  11.0467  11.0467  11.0467
    11.0468  11.0715  11.0715  11.5896  11.5897  11.5897  11.5897  11.7301
    11.8258  11.8258  11.8258  11.8258  12.0230  12.0251  12.0252  12.0252
    12.0253

     occupation numbers 
     1.0000   1.0000   1.0000   1.0000   1.0000   1.0000   1.0000   1.0000
     1.0000   1.0000   1.0000   1.0000   1.0000   1.0000   1.0000   1.0000
     1.0000   1.0000   1.0000   1.0000   1.0000   1.0000   1.0000   1.0000
     1.0000   1.0000   1.0000   1.0000   1.0000   1.0000   1.0000   1.0000
     1.0000   1.0000   1.0000   1.0000   1.0000   1.0000   1.0000   1.0000
     1.0000   1.0000   1.0000   1.0000   1.0000   1.0000   1.0000   1.0000
     1.0000   1.0000   1.0000   1.0000   1.0000   1.0000   1.0000   1.0000
     1.0000   1.0000   1.0000   1.0000   1.0000   1.0000   1.0000   1.0000
     1.0000   1.0000   1.0000   1.0000   1.0000   1.0000   1.0000   1.0000
     1.0000   1.0000   1.0000   1.0000   1.0000   1.0000   1.0000   1.0000
     1.0000   1.0000   1.0000   1.0000   1.0000   1.0000   1.0000   1.0000
     1.0000   1.0000   1.0000   1.0000   1.0000   1.0000   1.0000   1.0000
     1.0000   1.0000   1.0000   1.0000   1.0000   1.0000   1.0000   1.0000
     1.0000   1.0000   1.0000   1.0000   1.0000   1.0000   1.0000   1.0000
     1.0000   1.0000   1.0000   1.0000   1.0000   1.0000   1.0000   1.0000
     1.0000   1.0000   1.0000   1.0000   1.0000   1.0000   1.0000   1.0000
     1.0000   1.0000   1.0000   1.0000   1.0000   1.0000   1.0000   1.0000
     1.0000   1.0000   1.0000   1.0000   1.0000   1.0000   1.0000   1.0000
     1.0000   1.0000   1.0000   1.0000   1.0000   1.0000   1.0000   1.0000
     1.0000   1.0000   1.0000   1.0000   1.0000   1.0000   1.0000   1.0000
     1.0000   1.0000   1.0000   1.0000   1.0000   1.0000   1.0000   1.0000
     1.0000   1.0000   1.0000   1.0000   1.0000   1.0000   1.0000   1.0000
     1.0000   1.0000   1.0000   1.0000   1.0000   1.0000   1.0000   1.0000
     1.0000   1.0000   1.0000   1.0000   1.0000   1.0000   1.0000   1.0000
     1.0000   1.0000   1.0000   1.0000   1.0000   1.0000   1.0000   1.0000
     1.0000   1.0000   1.0000   1.0000   1.0000   1.0000   1.0000   1.0000
     1.0000   1.0000   1.0000   1.0000   1.0000   1.0000   1.0000   1.0000
     1.0000   1.0000   1.0000   1.0000   1.0000   1.0000   1.0000   1.0000
     1.0000   1.0000   1.0000   1.0000   1.0000   1.0000   1.0000   1.0000
     1.0000   1.0000   1.0000   1.0000   1.0000   1.0000   1.0000   1.0000
     1.0000   1.0000   1.0000   1.0000   1.0000   1.0000   1.0000   1.0000
     1.0000   1.0000   1.0000   1.0000   1.0000   1.0000   1.0000   1.0000
     1.0000   1.0000   1.0000   1.0000   1.0000   1.0000   1.0000   1.0000
     1.0000   1.0000   1.0000   1.0000   1.0000   1.0000   1.0000   1.0000
     1.0000   1.0000   1.0000   1.0000   1.0000   1.0000   1.0000   1.0000
     1.0000   1.0000   1.0000   1.0000   1.0000   1.0000   1.0000   1.0000
     0.0000   0.0000   0.0000   0.0000   0.0000   0.0000   0.0000   0.0000
     0.0000   0.0000   0.0000   0.0000   0.0000   0.0000   0.0000   0.0000
     0.0000   0.0000   0.0000   0.0000   0.0000   0.0000   0.0000   0.0000
     0.0000   0.0000   0.0000   0.0000   0.0000   0.0000   0.0000   0.0000
     0.0000   0.0000   0.0000   0.0000   0.0000   0.0000   0.0000   0.0000
     0.0000   0.0000   0.0000   0.0000   0.0000   0.0000   0.0000   0.0000
     0.0000   0.0000   0.0000   0.0000   0.0000   0.0000   0.0000   0.0000
     0.0000

          k = 0.0000 0.0000-0.5000 (157924 PWs)   bands (ev):

    -7.3130  -7.3129  -6.8693  -6.8693  -6.8692  -6.8692  -6.8692  -6.8692
    -6.8691  -6.8691  -6.6590  -6.6590  -6.6590  -6.6590  -6.6590  -6.6590
    -6.6590  -6.6590  -6.5633  -6.5632  -6.4663  -6.4663  -6.4663  -6.4663
    -6.4662  -6.4662  -6.4662  -6.4662  -6.3891  -6.3891  -6.3890  -6.3890
    -2.3254  -2.3253  -2.3086  -2.3086  -2.3085  -2.3085  -2.2566  -2.2566
    -2.2565  -2.2564  -2.2563  -2.2562  -2.2562  -2.2562  -2.2513  -2.2513
    -2.2513  -2.2512  -2.2512  -2.2512  -2.2512  -2.2511  -2.2394  -2.2394
    -2.2392  -2.2392  -2.2392  -2.2392  -2.2392  -2.2391  -2.2361  -2.2359
    -2.2359  -2.2359  -2.2359  -2.2359  -2.2358  -2.2357  -2.2299  -2.2298
    -2.2165  -2.2164  -2.2164  -2.2164  -2.2163  -2.2163  -2.2162  -2.2162
    -2.2161  -2.2161  -2.2160  -2.2160  -2.1724  -2.1724  -2.1724  -2.1723
    -2.1722  -2.1721  -2.1721  -2.1721  -2.1508  -2.1508  -2.1506  -2.1506
    -2.1504  -2.1504  -2.1504  -2.1503  -2.1286  -2.1286  -2.1286  -2.1286
    -2.1268  -2.1268  -2.1267  -2.1267  -2.0718  -2.0717  -2.0716  -2.0716
    -2.0400  -2.0399  -2.0399  -2.0399  -2.0396  -2.0396  -2.0396  -2.0396
    -2.0218  -2.0217  -2.0093  -2.0093  -2.0091  -2.0091  -2.0090  -2.0089
    -2.0089  -2.0088  -1.9984  -1.9983  -1.9982  -1.9981  -1.9981  -1.9981
    -1.9981  -1.9979  -1.9976  -1.9975  -1.9961  -1.9960  -1.9960  -1.9959
    -1.9959  -1.9959  -1.9959  -1.9958  -1.9958  -1.9957  -1.9956  -1.9956
    -1.9954  -1.9954  -1.9954  -1.9953  -1.9634  -1.9633  -1.9633  -1.9633
    -1.9633  -1.9631  -1.9630  -1.9630  -1.9583  -1.9582  -1.9582  -1.9581
    -1.9474  -1.9473  -1.8579  -1.8578  -1.7787  -1.7787  -1.7787  -1.7787
    -1.7786  -1.7786  -1.7786  -1.7785  -1.5923  -1.5923  -1.5923  -1.5922
    -1.5920  -1.5920  -1.5920  -1.5919  -1.5640  -1.5640  -1.5639  -1.5639
     0.8297   0.8297   0.8297   0.8297   0.8297   0.8297   0.8297   0.8297
     0.9135   0.9135   0.9135   0.9135   1.0655   1.0655   1.0655   1.0655
     1.0655   1.0655   1.0655   1.0656   1.4655   1.4655   2.2496   2.2496
     2.2496   2.2496   2.2496   2.2496   2.2496   2.2497   2.5445   2.5445
     2.5445   2.5445   2.5445   2.5445   2.5445   2.5445   3.0502   3.0502
     3.0502   3.0502   3.0963   3.0963   3.0963   3.0963   3.5938   3.5938
     3.5938   3.5938   3.7669   3.7669   3.7669   3.7669   3.7670   3.7670
     3.7670   3.7670   3.8000   3.8000   3.8000   3.8000   3.8001   3.8001
     3.8001   3.8001   3.8812   3.8812   3.8812   3.8812   3.8812   3.8812
     3.8812   3.8812   4.3369   4.3369   4.5659   4.5659   4.5659   4.5659
     4.5659   4.5659   4.5659   4.5660   4.5890   4.5890   4.5890   4.5890
     4.5891   4.5891   4.5891   4.5891   5.0305   5.0305   5.0306   5.0306
     8.7417   8.7417   9.2810   9.2810   9.5500   9.5500   9.5500   9.5500
     9.5500   9.5500   9.5500   9.5500   9.8330   9.8330   9.8331   9.8331
     9.8559   9.8559  10.2073  10.2073  10.2074  10.2074  10.2074  10.2074
    10.2074  10.2075  10.3654  10.3654  10.3654  10.3654  10.7146  10.7146
    10.7146  10.7146  10.7146  10.7146  10.7146  10.7146  10.9500  10.9500
    10.9500  10.9500  10.9500  10.9500  10.9501  10.9501  11.2373  11.2373
    11.7925  11.7925  11.7925  11.7925  11.7925  11.7926  11.7926  11.7926
    12.0786

     occupation numbers 
     1.0000   1.0000   1.0000   1.0000   1.0000   1.0000   1.0000   1.0000
     1.0000   1.0000   1.0000   1.0000   1.0000   1.0000   1.0000   1.0000
     1.0000   1.0000   1.0000   1.0000   1.0000   1.0000   1.0000   1.0000
     1.0000   1.0000   1.0000   1.0000   1.0000   1.0000   1.0000   1.0000
     1.0000   1.0000   1.0000   1.0000   1.0000   1.0000   1.0000   1.0000
     1.0000   1.0000   1.0000   1.0000   1.0000   1.0000   1.0000   1.0000
     1.0000   1.0000   1.0000   1.0000   1.0000   1.0000   1.0000   1.0000
     1.0000   1.0000   1.0000   1.0000   1.0000   1.0000   1.0000   1.0000
     1.0000   1.0000   1.0000   1.0000   1.0000   1.0000   1.0000   1.0000
     1.0000   1.0000   1.0000   1.0000   1.0000   1.0000   1.0000   1.0000
     1.0000   1.0000   1.0000   1.0000   1.0000   1.0000   1.0000   1.0000
     1.0000   1.0000   1.0000   1.0000   1.0000   1.0000   1.0000   1.0000
     1.0000   1.0000   1.0000   1.0000   1.0000   1.0000   1.0000   1.0000
     1.0000   1.0000   1.0000   1.0000   1.0000   1.0000   1.0000   1.0000
     1.0000   1.0000   1.0000   1.0000   1.0000   1.0000   1.0000   1.0000
     1.0000   1.0000   1.0000   1.0000   1.0000   1.0000   1.0000   1.0000
     1.0000   1.0000   1.0000   1.0000   1.0000   1.0000   1.0000   1.0000
     1.0000   1.0000   1.0000   1.0000   1.0000   1.0000   1.0000   1.0000
     1.0000   1.0000   1.0000   1.0000   1.0000   1.0000   1.0000   1.0000
     1.0000   1.0000   1.0000   1.0000   1.0000   1.0000   1.0000   1.0000
     1.0000   1.0000   1.0000   1.0000   1.0000   1.0000   1.0000   1.0000
     1.0000   1.0000   1.0000   1.0000   1.0000   1.0000   1.0000   1.0000
     1.0000   1.0000   1.0000   1.0000   1.0000   1.0000   1.0000   1.0000
     1.0000   1.0000   1.0000   1.0000   1.0000   1.0000   1.0000   1.0000
     1.0000   1.0000   1.0000   1.0000   1.0000   1.0000   1.0000   1.0000
     1.0000   1.0000   1.0000   1.0000   1.0000   1.0000   1.0000   1.0000
     1.0000   1.0000   1.0000   1.0000   1.0000   1.0000   1.0000   1.0000
     1.0000   1.0000   1.0000   1.0000   1.0000   1.0000   1.0000   1.0000
     1.0000   1.0000   1.0000   1.0000   1.0000   1.0000   1.0000   1.0000
     1.0000   1.0000   1.0000   1.0000   1.0000   1.0000   1.0000   1.0000
     1.0000   1.0000   1.0000   1.0000   1.0000   1.0000   1.0000   1.0000
     1.0000   1.0000   1.0000   1.0000   1.0000   1.0000   1.0000   1.0000
     1.0000   1.0000   1.0000   1.0000   1.0000   1.0000   1.0000   1.0000
     1.0000   1.0000   1.0000   1.0000   1.0000   1.0000   1.0000   1.0000
     1.0000   1.0000   1.0000   1.0000   1.0000   1.0000   1.0000   1.0000
     1.0000   1.0000   1.0000   1.0000   1.0000   1.0000   1.0000   1.0000
     0.0000   0.0000   0.0000   0.0000   0.0000   0.0000   0.0000   0.0000
     0.0000   0.0000   0.0000   0.0000   0.0000   0.0000   0.0000   0.0000
     0.0000   0.0000   0.0000   0.0000   0.0000   0.0000   0.0000   0.0000
     0.0000   0.0000   0.0000   0.0000   0.0000   0.0000   0.0000   0.0000
     0.0000   0.0000   0.0000   0.0000   0.0000   0.0000   0.0000   0.0000
     0.0000   0.0000   0.0000   0.0000   0.0000   0.0000   0.0000   0.0000
     0.0000   0.0000   0.0000   0.0000   0.0000   0.0000   0.0000   0.0000
     0.0000

          k = 0.0000 0.2500 0.2500 (158239 PWs)   bands (ev):

    -7.3823  -7.1236  -7.1236  -6.9220  -6.9109  -6.9109  -6.7661  -6.7660
    -6.7660  -6.7659  -6.7311  -6.7310  -6.6976  -6.6976  -6.6281  -6.6281
    -6.6135  -6.6135  -6.5641  -6.5640  -6.5640  -6.5639  -6.4898  -6.4349
    -6.4349  -6.4249  -6.4249  -6.4159  -6.4159  -6.3984  -6.3983  -6.3925
    -2.3310  -2.3274  -2.3241  -2.2965  -2.2964  -2.2707  -2.2707  -2.2642
    -2.2641  -2.2641  -2.2600  -2.2597  -2.2596  -2.2556  -2.2556  -2.2524
    -2.2524  -2.2524  -2.2523  -2.2512  -2.2512  -2.2511  -2.2511  -2.2388
    -2.2387  -2.2387  -2.2387  -2.2387  -2.2386  -2.2363  -2.2363  -2.2362
    -2.2362  -2.2318  -2.2313  -2.2312  -2.2308  -2.2307  -2.2299  -2.2289
    -2.2287  -2.2226  -2.2225  -2.2117  -2.2115  -2.2085  -2.2085  -2.2072
    -2.2072  -2.2006  -2.2005  -2.2005  -2.2005  -2.1992  -2.1992  -2.1848
    -2.1847  -2.1841  -2.1840  -2.1694  -2.1652  -2.1652  -2.1617  -2.1617
    -2.1589  -2.1589  -2.1459  -2.1459  -2.1398  -2.1107  -2.1106  -2.0958
    -2.0928  -2.0928  -2.0922  -2.0725  -2.0724  -2.0642  -2.0641  -2.0640
    -2.0640  -2.0569  -2.0568  -2.0532  -2.0531  -2.0378  -2.0377  -2.0336
    -2.0298  -2.0297  -2.0292  -2.0290  -2.0290  -2.0289  -2.0252  -2.0131
    -2.0131  -2.0119  -2.0055  -2.0024  -2.0024  -2.0023  -2.0023  -1.9988
    -1.9975  -1.9974  -1.9961  -1.9960  -1.9957  -1.9955  -1.9954  -1.9954
    -1.9950  -1.9949  -1.9864  -1.9864  -1.9858  -1.9858  -1.9836  -1.9835
    -1.9800  -1.9800  -1.9788  -1.9787  -1.9763  -1.9762  -1.9733  -1.9732
    -1.9660  -1.9660  -1.9655  -1.9532  -1.9531  -1.9472  -1.9442  -1.9441
    -1.9141  -1.9141  -1.9141  -1.9141  -1.8138  -1.8138  -1.8112  -1.8112
    -1.6964  -1.6964  -1.6963  -1.6963  -1.6861  -1.6861  -1.6768  -1.6767
    -1.6092  -1.5985  -1.5571  -1.5570  -1.5342  -1.5342  -1.5174  -1.5174
     0.4871   0.4871   0.7498   0.7498   0.8766   0.9747   0.9747   0.9786
     0.9787   1.0130   1.0130   1.0130   1.0130   1.0163   1.0164   1.0285
     1.0285   1.0548   1.4599   1.4599   1.5945   1.5945   1.5945   1.5945
     1.9866   1.9866   2.3027   2.4299   2.4299   2.4647   2.5361   2.5361
     2.6089   2.6089   2.7654   2.7655   2.9708   2.9910   2.9910   2.9910
     2.9910   3.0607   3.0607   3.2129   3.2130   3.3031   3.3031   3.3066
     3.3067   3.3607   3.3607   3.3612   3.3612   3.4285   3.4285   3.4448
     3.6668   3.6668   3.6669   3.6669   3.7585   3.7586   3.8011   3.9418
     3.9418   4.0825   4.0825   4.1297   4.2019   4.2019   4.2378   4.2378
     4.2729   4.2729   4.2729   4.2730   4.3000   4.3000   4.4656   4.4656
     4.5157   4.5157   4.5277   4.5277   4.5524   4.5524   4.6552   4.6552
     4.6552   4.6552   4.6570   4.8083   4.8083   4.9568   5.2019   5.3723
     8.2214   9.0534   9.0534   9.2832   9.2880   9.2880   9.3688   9.3688
     9.5506   9.5507   9.8728   9.8729   9.8749   9.8749   9.9316   9.9316
     9.9334   9.9805   9.9806   9.9806   9.9806  10.1175  10.1191  10.1716
    10.1716  10.3076  10.3076  10.3077  10.3077  10.3444  10.3445  10.6936
    10.6936  10.6945  10.6946  10.7570  10.7571  10.8570  10.8571  10.9734
    10.9734  11.0666  11.0666  11.4084  11.4084  11.4700  11.4700  11.5041
    11.5041  11.7598  11.8008  11.8008  11.8008  11.8008  11.9247  11.9247
    11.9248

     occupation numbers 
     1.0000   1.0000   1.0000   1.0000   1.0000   1.0000   1.0000   1.0000
     1.0000   1.0000   1.0000   1.0000   1.0000   1.0000   1.0000   1.0000
     1.0000   1.0000   1.0000   1.0000   1.0000   1.0000   1.0000   1.0000
     1.0000   1.0000   1.0000   1.0000   1.0000   1.0000   1.0000   1.0000
     1.0000   1.0000   1.0000   1.0000   1.0000   1.0000   1.0000   1.0000
     1.0000   1.0000   1.0000   1.0000   1.0000   1.0000   1.0000   1.0000
     1.0000   1.0000   1.0000   1.0000   1.0000   1.0000   1.0000   1.0000
     1.0000   1.0000   1.0000   1.0000   1.0000   1.0000   1.0000   1.0000
     1.0000   1.0000   1.0000   1.0000   1.0000   1.0000   1.0000   1.0000
     1.0000   1.0000   1.0000   1.0000   1.0000   1.0000   1.0000   1.0000
     1.0000   1.0000   1.0000   1.0000   1.0000   1.0000   1.0000   1.0000
     1.0000   1.0000   1.0000   1.0000   1.0000   1.0000   1.0000   1.0000
     1.0000   1.0000   1.0000   1.0000   1.0000   1.0000   1.0000   1.0000
     1.0000   1.0000   1.0000   1.0000   1.0000   1.0000   1.0000   1.0000
     1.0000   1.0000   1.0000   1.0000   1.0000   1.0000   1.0000   1.0000
     1.0000   1.0000   1.0000   1.0000   1.0000   1.0000   1.0000   1.0000
     1.0000   1.0000   1.0000   1.0000   1.0000   1.0000   1.0000   1.0000
     1.0000   1.0000   1.0000   1.0000   1.0000   1.0000   1.0000   1.0000
     1.0000   1.0000   1.0000   1.0000   1.0000   1.0000   1.0000   1.0000
     1.0000   1.0000   1.0000   1.0000   1.0000   1.0000   1.0000   1.0000
     1.0000   1.0000   1.0000   1.0000   1.0000   1.0000   1.0000   1.0000
     1.0000   1.0000   1.0000   1.0000   1.0000   1.0000   1.0000   1.0000
     1.0000   1.0000   1.0000   1.0000   1.0000   1.0000   1.0000   1.0000
     1.0000   1.0000   1.0000   1.0000   1.0000   1.0000   1.0000   1.0000
     1.0000   1.0000   1.0000   1.0000   1.0000   1.0000   1.0000   1.0000
     1.0000   1.0000   1.0000   1.0000   1.0000   1.0000   1.0000   1.0000
     1.0000   1.0000   1.0000   1.0000   1.0000   1.0000   1.0000   1.0000
     1.0000   1.0000   1.0000   1.0000   1.0000   1.0000   1.0000   1.0000
     1.0000   1.0000   1.0000   1.0000   1.0000   1.0000   1.0000   1.0000
     1.0000   1.0000   1.0000   1.0000   1.0000   1.0000   1.0000   1.0000
     1.0000   1.0000   1.0000   1.0000   1.0000   1.0000   1.0000   1.0000
     1.0000   1.0000   1.0000   1.0000   1.0000   1.0000   1.0000   1.0000
     1.0000   1.0000   1.0000   1.0000   1.0000   1.0000   1.0000   1.0000
     1.0000   1.0000   1.0000   1.0000   1.0000   1.0000   1.0000   1.0000
     1.0000   1.0000   1.0000   1.0000   1.0000   1.0000   1.0000   1.0000
     1.0000   1.0000   1.0000   1.0000   1.0000   1.0000   1.0000   1.0000
     0.0000   0.0000   0.0000   0.0000   0.0000   0.0000   0.0000   0.0000
     0.0000   0.0000   0.0000   0.0000   0.0000   0.0000   0.0000   0.0000
     0.0000   0.0000   0.0000   0.0000   0.0000   0.0000   0.0000   0.0000
     0.0000   0.0000   0.0000   0.0000   0.0000   0.0000   0.0000   0.0000
     0.0000   0.0000   0.0000   0.0000   0.0000   0.0000   0.0000   0.0000
     0.0000   0.0000   0.0000   0.0000   0.0000   0.0000   0.0000   0.0000
     0.0000   0.0000   0.0000   0.0000   0.0000   0.0000   0.0000   0.0000
     0.0000

          k = 0.0000 0.2500-0.5000 (158068 PWs)   bands (ev):

    -7.2805  -7.2805  -7.0435  -7.0435  -6.8527  -6.8527  -6.8527  -6.8527
    -6.7377  -6.7377  -6.7377  -6.7377  -6.6894  -6.6894  -6.5828  -6.5828
    -6.5827  -6.5827  -6.5552  -6.5552  -6.5012  -6.5011  -6.4801  -6.4801
    -6.4801  -6.4801  -6.4343  -6.4343  -6.4267  -6.4266  -6.3942  -6.3942
    -2.3190  -2.3189  -2.3054  -2.3054  -2.2981  -2.2981  -2.2840  -2.2840
    -2.2682  -2.2681  -2.2610  -2.2609  -2.2609  -2.2608  -2.2583  -2.2582
    -2.2582  -2.2581  -2.2456  -2.2456  -2.2456  -2.2455  -2.2451  -2.2451
    -2.2450  -2.2450  -2.2356  -2.2355  -2.2355  -2.2354  -2.2247  -2.2247
    -2.2238  -2.2237  -2.2229  -2.2229  -2.2221  -2.2221  -2.2221  -2.2220
    -2.2190  -2.2190  -2.2190  -2.2189  -2.2188  -2.2188  -2.2134  -2.2134
    -2.2099  -2.2099  -2.2042  -2.2042  -2.2036  -2.2036  -2.1868  -2.1868
    -2.1782  -2.1782  -2.1782  -2.1781  -2.1496  -2.1496  -2.1426  -2.1426
    -2.1393  -2.1393  -2.1308  -2.1308  -2.1307  -2.1307  -2.1215  -2.1215
    -2.1209  -2.1208  -2.1197  -2.1197  -2.0799  -2.0798  -2.0779  -2.0778
    -2.0672  -2.0671  -2.0483  -2.0483  -2.0368  -2.0368  -2.0368  -2.0367
    -2.0270  -2.0270  -2.0269  -2.0267  -2.0247  -2.0246  -2.0202  -2.0201
    -2.0126  -2.0126  -2.0125  -2.0123  -1.9985  -1.9984  -1.9975  -1.9974
    -1.9974  -1.9972  -1.9921  -1.9921  -1.9920  -1.9918  -1.9884  -1.9883
    -1.9852  -1.9851  -1.9851  -1.9849  -1.9837  -1.9837  -1.9836  -1.9835
    -1.9831  -1.9830  -1.9781  -1.9780  -1.9722  -1.9722  -1.9651  -1.9651
    -1.9650  -1.9648  -1.9615  -1.9614  -1.9581  -1.9580  -1.9503  -1.9502
    -1.8973  -1.8972  -1.8858  -1.8858  -1.8858  -1.8857  -1.8297  -1.8297
    -1.6756  -1.6756  -1.6756  -1.6755  -1.6721  -1.6720  -1.6233  -1.6233
    -1.5939  -1.5938  -1.5938  -1.5938  -1.5536  -1.5536  -1.5442  -1.5442
     0.6856   0.6856   0.6856   0.6856   0.9243   0.9243   0.9356   0.9356
     0.9356   0.9356   0.9905   0.9905   1.0256   1.0256   1.1466   1.1466
     1.1466   1.1466   1.1869   1.1869   1.4276   1.4276   1.7449   1.7449
     2.0214   2.0214   2.0214   2.0214   2.3905   2.3906   2.6910   2.6910
     2.7501   2.7501   2.7501   2.7501   2.8162   2.8162   2.8366   2.8366
     3.0485   3.0486   3.2669   3.2669   3.4438   3.4438   3.4603   3.4603
     3.4754   3.4754   3.5506   3.5506   3.5506   3.5506   3.5941   3.5941
     3.6778   3.6778   3.8136   3.8136   3.8368   3.8369   3.8369   3.8369
     4.0034   4.0034   4.0092   4.0092   4.0092   4.0092   4.0732   4.0732
     4.1592   4.1592   4.1592   4.1592   4.2083   4.2084   4.3464   4.3464
     4.3464   4.3464   4.5209   4.5209   4.5209   4.5210   4.6143   4.6143
     4.6143   4.6143   4.9135   4.9135   4.9910   4.9910   5.1850   5.1850
     8.8434   8.8434   9.4357   9.4357   9.4357   9.4357   9.5162   9.5162
     9.6581   9.6581   9.6845   9.6845   9.8860   9.8861   9.8861   9.8861
     9.9118   9.9118   9.9118   9.9118   9.9155   9.9155  10.0294  10.0294
    10.0787  10.0787  10.4029  10.4029  10.4793  10.4793  10.5247  10.5247
    10.6563  10.6564  10.6564  10.6564  10.7859  10.7859  10.9191  10.9191
    11.0711  11.0711  11.3194  11.3195  11.3195  11.3195  11.3858  11.3858
    11.3889  11.3889  11.5683  11.5684  11.5684  11.5684  11.7629  11.7629
    11.7629

     occupation numbers 
     1.0000   1.0000   1.0000   1.0000   1.0000   1.0000   1.0000   1.0000
     1.0000   1.0000   1.0000   1.0000   1.0000   1.0000   1.0000   1.0000
     1.0000   1.0000   1.0000   1.0000   1.0000   1.0000   1.0000   1.0000
     1.0000   1.0000   1.0000   1.0000   1.0000   1.0000   1.0000   1.0000
     1.0000   1.0000   1.0000   1.0000   1.0000   1.0000   1.0000   1.0000
     1.0000   1.0000   1.0000   1.0000   1.0000   1.0000   1.0000   1.0000
     1.0000   1.0000   1.0000   1.0000   1.0000   1.0000   1.0000   1.0000
     1.0000   1.0000   1.0000   1.0000   1.0000   1.0000   1.0000   1.0000
     1.0000   1.0000   1.0000   1.0000   1.0000   1.0000   1.0000   1.0000
     1.0000   1.0000   1.0000   1.0000   1.0000   1.0000   1.0000   1.0000
     1.0000   1.0000   1.0000   1.0000   1.0000   1.0000   1.0000   1.0000
     1.0000   1.0000   1.0000   1.0000   1.0000   1.0000   1.0000   1.0000
[...]
     4.9346   4.9346   4.9346   4.9346   5.0230   5.0230   5.1341   5.1341
     8.8689   8.8689   9.1377   9.1377   9.4642   9.4642   9.4642   9.4642
     9.5779   9.5779   9.7291   9.7291   9.7291   9.7291   9.8575   9.8575
     9.8575   9.8575   9.9214   9.9214  10.0704  10.0704  10.0704  10.0704
    10.1081  10.1082  10.1082  10.1082  10.3175  10.3175  10.4921  10.4921
    10.4921  10.4922  10.8241  10.8241  10.8241  10.8241  11.0633  11.0633
    11.0633  11.0633  11.4104  11.4104  11.4104  11.4105  11.5729  11.5729
    11.6878  11.6878  11.6878  11.6879  11.7229  11.7229  11.7229  11.7229
    11.7654

     occupation numbers 
     1.0000   1.0000   1.0000   1.0000   1.0000   1.0000   1.0000   1.0000
     1.0000   1.0000   1.0000   1.0000   1.0000   1.0000   1.0000   1.0000
     1.0000   1.0000   1.0000   1.0000   1.0000   1.0000   1.0000   1.0000
     1.0000   1.0000   1.0000   1.0000   1.0000   1.0000   1.0000   1.0000
     1.0000   1.0000   1.0000   1.0000   1.0000   1.0000   1.0000   1.0000
     1.0000   1.0000   1.0000   1.0000   1.0000   1.0000   1.0000   1.0000
     1.0000   1.0000   1.0000   1.0000   1.0000   1.0000   1.0000   1.0000
     1.0000   1.0000   1.0000   1.0000   1.0000   1.0000   1.0000   1.0000
     1.0000   1.0000   1.0000   1.0000   1.0000   1.0000   1.0000   1.0000
     1.0000   1.0000   1.0000   1.0000   1.0000   1.0000   1.0000   1.0000
     1.0000   1.0000   1.0000   1.0000   1.0000   1.0000   1.0000   1.0000
     1.0000   1.0000   1.0000   1.0000   1.0000   1.0000   1.0000   1.0000
     1.0000   1.0000   1.0000   1.0000   1.0000   1.0000   1.0000   1.0000
     1.0000   1.0000   1.0000   1.0000   1.0000   1.0000   1.0000   1.0000
     1.0000   1.0000   1.0000   1.0000   1.0000   1.0000   1.0000   1.0000
     1.0000   1.0000   1.0000   1.0000   1.0000   1.0000   1.0000   1.0000
     1.0000   1.0000   1.0000   1.0000   1.0000   1.0000   1.0000   1.0000
     1.0000   1.0000   1.0000   1.0000   1.0000   1.0000   1.0000   1.0000
     1.0000   1.0000   1.0000   1.0000   1.0000   1.0000   1.0000   1.0000
     1.0000   1.0000   1.0000   1.0000   1.0000   1.0000   1.0000   1.0000
     1.0000   1.0000   1.0000   1.0000   1.0000   1.0000   1.0000   1.0000
     1.0000   1.0000   1.0000   1.0000   1.0000   1.0000   1.0000   1.0000
     1.0000   1.0000   1.0000   1.0000   1.0000   1.0000   1.0000   1.0000
     1.0000   1.0000   1.0000   1.0000   1.0000   1.0000   1.0000   1.0000
     1.0000   1.0000   1.0000   1.0000   1.0000   1.0000   1.0000   1.0000
     1.0000   1.0000   1.0000   1.0000   1.0000   1.0000   1.0000   1.0000
     1.0000   1.0000   1.0000   1.0000   1.0000   1.0000   1.0000   1.0000
     1.0000   1.0000   1.0000   1.0000   1.0000   1.0000   1.0000   1.0000
     1.0000   1.0000   1.0000   1.0000   1.0000   1.0000   1.0000   1.0000
     1.0000   1.0000   1.0000   1.0000   1.0000   1.0000   1.0000   1.0000
     1.0000   1.0000   1.0000   1.0000   1.0000   1.0000   1.0000   1.0000
     1.0000   1.0000   1.0000   1.0000   1.0000   1.0000   1.0000   1.0000
     1.0000   1.0000   1.0000   1.0000   1.0000   1.0000   1.0000   1.0000
     1.0000   1.0000   1.0000   1.0000   1.0000   1.0000   1.0000   1.0000
     1.0000   1.0000   1.0000   1.0000   1.0000   1.0000   1.0000   1.0000
     1.0000   1.0000   1.0000   1.0000   1.0000   1.0000   1.0000   1.0000
     0.0000   0.0000   0.0000   0.0000   0.0000   0.0000   0.0000   0.0000
     0.0000   0.0000   0.0000   0.0000   0.0000   0.0000   0.0000   0.0000
     0.0000   0.0000   0.0000   0.0000   0.0000   0.0000   0.0000   0.0000
     0.0000   0.0000   0.0000   0.0000   0.0000   0.0000   0.0000   0.0000
     0.0000   0.0000   0.0000   0.0000   0.0000   0.0000   0.0000   0.0000
     0.0000   0.0000   0.0000   0.0000   0.0000   0.0000   0.0000   0.0000
     0.0000   0.0000   0.0000   0.0000   0.0000   0.0000   0.0000   0.0000
     0.0000

          k = 0.2500-0.5000-0.5000 (158052 PWs)   bands (ev):

    -7.1587  -7.1587  -7.1586  -7.1586  -6.9542  -6.9542  -6.9542  -6.9541
    -6.6558  -6.6558  -6.6557  -6.6557  -6.5312  -6.5312  -6.5311  -6.5311
    -6.5311  -6.5311  -6.5310  -6.5310  -6.5224  -6.5223  -6.5223  -6.5223
    -6.5223  -6.5223  -6.5222  -6.5222  -6.4401  -6.4401  -6.4400  -6.4400
    -2.3002  -2.3002  -2.3002  -2.3002  -2.2931  -2.2931  -2.2931  -2.2930
    -2.2789  -2.2789  -2.2789  -2.2788  -2.2690  -2.2690  -2.2689  -2.2689
    -2.2479  -2.2479  -2.2479  -2.2479  -2.2453  -2.2453  -2.2453  -2.2453
    -2.2346  -2.2345  -2.2345  -2.2345  -2.2345  -2.2345  -2.2345  -2.2344
    -2.2240  -2.2240  -2.2240  -2.2240  -2.2201  -2.2200  -2.2200  -2.2200
    -2.2200  -2.2200  -2.2199  -2.2199  -2.2053  -2.2053  -2.2052  -2.2052
    -2.1869  -2.1869  -2.1869  -2.1868  -2.1868  -2.1868  -2.1868  -2.1867
    -2.1618  -2.1617  -2.1617  -2.1617  -2.1616  -2.1616  -2.1616  -2.1614
    -2.1383  -2.1382  -2.1382  -2.1382  -2.1300  -2.1300  -2.1300  -2.1300
    -2.0996  -2.0996  -2.0996  -2.0995  -2.0995  -2.0995  -2.0995  -2.0994
    -2.0771  -2.0771  -2.0771  -2.0770  -2.0756  -2.0756  -2.0756  -2.0756
    -2.0460  -2.0459  -2.0459  -2.0459  -2.0459  -2.0459  -2.0458  -2.0457
    -2.0161  -2.0161  -2.0161  -2.0160  -2.0064  -2.0064  -2.0064  -2.0062
    -1.9980  -1.9980  -1.9980  -1.9979  -1.9891  -1.9891  -1.9891  -1.9889
    -1.9759  -1.9759  -1.9759  -1.9757  -1.9757  -1.9757  -1.9757  -1.9755
    -1.9688  -1.9688  -1.9688  -1.9686  -1.9662  -1.9662  -1.9662  -1.9661
    -1.9607  -1.9607  -1.9607  -1.9606  -1.9606  -1.9606  -1.9606  -1.9604
    -1.8311  -1.8310  -1.8310  -1.8310  -1.7395  -1.7394  -1.7394  -1.7394
    -1.7394  -1.7393  -1.7393  -1.7393  -1.6365  -1.6364  -1.6364  -1.6364
    -1.6364  -1.6364  -1.6363  -1.6363  -1.5788  -1.5788  -1.5788  -1.5787
     0.8201   0.8201   0.8201   0.8201   0.8201   0.8202   0.8202   0.8202
     0.9504   0.9504   0.9504   0.9505   1.2273   1.2273   1.2273   1.2274
     1.2310   1.2310   1.2311   1.2311   1.2311   1.2311   1.2311   1.2312
     2.0412   2.0412   2.0412   2.0412   2.6324   2.6324   2.6324   2.6324
     3.1263   3.1263   3.1263   3.1263   3.1368   3.1368   3.1368   3.1368
     3.1368   3.1368   3.1368   3.1368   3.1398   3.1398   3.1398   3.1398
     3.1399   3.1399   3.1399   3.1399   3.7249   3.7249   3.7249   3.7250
     3.7379   3.7379   3.7379   3.7379   3.7379   3.7379   3.7379   3.7379
     3.7765   3.7765   3.7766   3.7766   4.0218   4.0218   4.0218   4.0218
     4.0218   4.0218   4.0218   4.0218   4.1460   4.1460   4.1461   4.1461
     4.7151   4.7151   4.7152   4.7152   4.8016   4.8016   4.8016   4.8016
     4.8093   4.8093   4.8093   4.8094   5.1610   5.1610   5.1610   5.1610
     9.0540   9.0540   9.0540   9.0540   9.1632   9.1632   9.1632   9.1632
     9.7366   9.7366   9.7367   9.7367   9.8679   9.8679   9.8679   9.8680
     9.9129   9.9129   9.9129   9.9129   9.9129   9.9129   9.9129   9.9129
    10.1058  10.1058  10.1058  10.1058  10.1058  10.1058  10.1058  10.1059
    10.9239  10.9239  10.9239  10.9240  10.9240  10.9240  10.9240  10.9240
    11.4586  11.4586  11.4586  11.4586  11.5374  11.5374  11.5374  11.5374
    11.6479  11.6479  11.6479  11.6479  11.6479  11.6479  11.6479  11.6479
    11.8910

     occupation numbers 
     1.0000   1.0000   1.0000   1.0000   1.0000   1.0000   1.0000   1.0000
     1.0000   1.0000   1.0000   1.0000   1.0000   1.0000   1.0000   1.0000
     1.0000   1.0000   1.0000   1.0000   1.0000   1.0000   1.0000   1.0000
     1.0000   1.0000   1.0000   1.0000   1.0000   1.0000   1.0000   1.0000
     1.0000   1.0000   1.0000   1.0000   1.0000   1.0000   1.0000   1.0000
     1.0000   1.0000   1.0000   1.0000   1.0000   1.0000   1.0000   1.0000
     1.0000   1.0000   1.0000   1.0000   1.0000   1.0000   1.0000   1.0000
     1.0000   1.0000   1.0000   1.0000   1.0000   1.0000   1.0000   1.0000
     1.0000   1.0000   1.0000   1.0000   1.0000   1.0000   1.0000   1.0000
     1.0000   1.0000   1.0000   1.0000   1.0000   1.0000   1.0000   1.0000
     1.0000   1.0000   1.0000   1.0000   1.0000   1.0000   1.0000   1.0000
     1.0000   1.0000   1.0000   1.0000   1.0000   1.0000   1.0000   1.0000
     1.0000   1.0000   1.0000   1.0000   1.0000   1.0000   1.0000   1.0000
     1.0000   1.0000   1.0000   1.0000   1.0000   1.0000   1.0000   1.0000
     1.0000   1.0000   1.0000   1.0000   1.0000   1.0000   1.0000   1.0000
     1.0000   1.0000   1.0000   1.0000   1.0000   1.0000   1.0000   1.0000
     1.0000   1.0000   1.0000   1.0000   1.0000   1.0000   1.0000   1.0000
     1.0000   1.0000   1.0000   1.0000   1.0000   1.0000   1.0000   1.0000
     1.0000   1.0000   1.0000   1.0000   1.0000   1.0000   1.0000   1.0000
     1.0000   1.0000   1.0000   1.0000   1.0000   1.0000   1.0000   1.0000
     1.0000   1.0000   1.0000   1.0000   1.0000   1.0000   1.0000   1.0000
     1.0000   1.0000   1.0000   1.0000   1.0000   1.0000   1.0000   1.0000
     1.0000   1.0000   1.0000   1.0000   1.0000   1.0000   1.0000   1.0000
     1.0000   1.0000   1.0000   1.0000   1.0000   1.0000   1.0000   1.0000
     1.0000   1.0000   1.0000   1.0000   1.0000   1.0000   1.0000   1.0000
     1.0000   1.0000   1.0000   1.0000   1.0000   1.0000   1.0000   1.0000
     1.0000   1.0000   1.0000   1.0000   1.0000   1.0000   1.0000   1.0000
     1.0000   1.0000   1.0000   1.0000   1.0000   1.0000   1.0000   1.0000
     1.0000   1.0000   1.0000   1.0000   1.0000   1.0000   1.0000   1.0000
     1.0000   1.0000   1.0000   1.0000   1.0000   1.0000   1.0000   1.0000
     1.0000   1.0000   1.0000   1.0000   1.0000   1.0000   1.0000   1.0000
     1.0000   1.0000   1.0000   1.0000   1.0000   1.0000   1.0000   1.0000
     1.0000   1.0000   1.0000   1.0000   1.0000   1.0000   1.0000   1.0000
     1.0000   1.0000   1.0000   1.0000   1.0000   1.0000   1.0000   1.0000
     1.0000   1.0000   1.0000   1.0000   1.0000   1.0000   1.0000   1.0000
     1.0000   1.0000   1.0000   1.0000   1.0000   1.0000   1.0000   1.0000
     0.0000   0.0000   0.0000   0.0000   0.0000   0.0000   0.0000   0.0000
     0.0000   0.0000   0.0000   0.0000   0.0000   0.0000   0.0000   0.0000
     0.0000   0.0000   0.0000   0.0000   0.0000   0.0000   0.0000   0.0000
     0.0000   0.0000   0.0000   0.0000   0.0000   0.0000   0.0000   0.0000
     0.0000   0.0000   0.0000   0.0000   0.0000   0.0000   0.0000   0.0000
     0.0000   0.0000   0.0000   0.0000   0.0000   0.0000   0.0000   0.0000
     0.0000   0.0000   0.0000   0.0000   0.0000   0.0000   0.0000   0.0000
     0.0000

          k =-0.5000-0.5000-0.5000 (158408 PWs)   bands (ev):

    -7.0775  -7.0775  -7.0775  -7.0775  -7.0775  -7.0775  -7.0774  -7.0773
    -6.5268  -6.5268  -6.5268  -6.5268  -6.5268  -6.5268  -6.5268  -6.5268
    -6.5268  -6.5268  -6.5268  -6.5268  -6.5268  -6.5268  -6.5268  -6.5268
    -6.5267  -6.5266  -6.5266  -6.5266  -6.5266  -6.5265  -6.5265  -6.5265
    -2.2892  -2.2891  -2.2891  -2.2891  -2.2891  -2.2889  -2.2889  -2.2889
    -2.2887  -2.2887  -2.2887  -2.2887  -2.2887  -2.2887  -2.2887  -2.2887
    -2.2312  -2.2311  -2.2311  -2.2311  -2.2309  -2.2309  -2.2309  -2.2308
    -2.2308  -2.2308  -2.2307  -2.2307  -2.2306  -2.2306  -2.2306  -2.2306
    -2.2306  -2.2306  -2.2306  -2.2306  -2.2306  -2.2305  -2.2305  -2.2305
    -2.2010  -2.2009  -2.2009  -2.2009  -2.2006  -2.2006  -2.2006  -2.2006
    -2.1688  -2.1688  -2.1688  -2.1687  -2.1687  -2.1687  -2.1687  -2.1687
    -2.1686  -2.1685  -2.1685  -2.1685  -2.1683  -2.1683  -2.1683  -2.1683
    -2.1683  -2.1682  -2.1682  -2.1682  -2.1681  -2.1681  -2.1681  -2.1681
    -2.0794  -2.0794  -2.0794  -2.0793  -2.0793  -2.0793  -2.0793  -2.0791
    -2.0791  -2.0791  -2.0791  -2.0791  -2.0790  -2.0790  -2.0790  -2.0789
    -2.0789  -2.0789  -2.0789  -2.0789  -2.0789  -2.0789  -2.0789  -2.0789
    -2.0046  -2.0046  -2.0046  -2.0046  -2.0046  -2.0046  -2.0043  -2.0043
    -2.0042  -2.0042  -2.0041  -2.0041  -2.0041  -2.0041  -2.0041  -2.0041
    -1.9652  -1.9652  -1.9652  -1.9650  -1.9650  -1.9650  -1.9649  -1.9648
    -1.9648  -1.9647  -1.9647  -1.9647  -1.9646  -1.9646  -1.9646  -1.9646
    -1.9646  -1.9646  -1.9644  -1.9644  -1.9644  -1.9644  -1.9644  -1.9644
    -1.6896  -1.6896  -1.6896  -1.6896  -1.6896  -1.6895  -1.6895  -1.6895
    -1.6895  -1.6893  -1.6893  -1.6893  -1.6892  -1.6892  -1.6892  -1.6892
    -1.6892  -1.6892  -1.6891  -1.6891  -1.6891  -1.6891  -1.6891  -1.6891
     1.0192   1.0192   1.0192   1.0192   1.0192   1.0192   1.0193   1.0193
     1.0193   1.0193   1.0193   1.0193   1.0193   1.0193   1.0193   1.0193
     1.0193   1.0193   1.0193   1.0193   1.0193   1.0193   1.0193   1.0196
     2.5832   2.5832   2.5832   2.5832   2.5832   2.5832   2.5832   2.5832
     3.1140   3.1140   3.1140   3.1140   3.1140   3.1140   3.1140   3.1140
     3.1140   3.1140   3.1141   3.1141   3.1141   3.1141   3.1141   3.1141
     3.1141   3.1141   3.1141   3.1141   3.1141   3.1141   3.1141   3.1141
     3.9217   3.9217   3.9217   3.9217   3.9217   3.9217   3.9217   3.9217
     3.9217   3.9217   3.9217   3.9217   3.9218   3.9218   3.9218   3.9218
     3.9218   3.9218   3.9218   3.9218   3.9218   3.9219   3.9219   3.9219
     4.9772   4.9772   4.9772   4.9773   4.9773   4.9773   4.9773   4.9773
     4.9773   4.9773   4.9773   4.9773   4.9773   4.9774   4.9774   4.9774
     8.9598   8.9598   8.9598   8.9598   8.9598   8.9598   8.9598   8.9599
     9.8612   9.8612   9.8612   9.8612   9.8612   9.8612   9.8613   9.8613
     9.8613   9.8613   9.8613   9.8613   9.8613   9.8613   9.8613   9.8613
     9.8613   9.8613   9.8613   9.8613   9.8614   9.8614   9.8614   9.8614
    11.4706  11.4706  11.4706  11.4706  11.4706  11.4706  11.4706  11.4706
    11.4706  11.4706  11.4706  11.4707  11.4707  11.4707  11.4707  11.4707
    11.4707  11.4707  11.4707  11.4707  11.4707  11.4707  11.4707  11.4708
    12.4176

     occupation numbers 
     1.0000   1.0000   1.0000   1.0000   1.0000   1.0000   1.0000   1.0000
     1.0000   1.0000   1.0000   1.0000   1.0000   1.0000   1.0000   1.0000
     1.0000   1.0000   1.0000   1.0000   1.0000   1.0000   1.0000   1.0000
     1.0000   1.0000   1.0000   1.0000   1.0000   1.0000   1.0000   1.0000
     1.0000   1.0000   1.0000   1.0000   1.0000   1.0000   1.0000   1.0000
     1.0000   1.0000   1.0000   1.0000   1.0000   1.0000   1.0000   1.0000
     1.0000   1.0000   1.0000   1.0000   1.0000   1.0000   1.0000   1.0000
     1.0000   1.0000   1.0000   1.0000   1.0000   1.0000   1.0000   1.0000
     1.0000   1.0000   1.0000   1.0000   1.0000   1.0000   1.0000   1.0000
     1.0000   1.0000   1.0000   1.0000   1.0000   1.0000   1.0000   1.0000
     1.0000   1.0000   1.0000   1.0000   1.0000   1.0000   1.0000   1.0000
     1.0000   1.0000   1.0000   1.0000   1.0000   1.0000   1.0000   1.0000
     1.0000   1.0000   1.0000   1.0000   1.0000   1.0000   1.0000   1.0000
     1.0000   1.0000   1.0000   1.0000   1.0000   1.0000   1.0000   1.0000
     1.0000   1.0000   1.0000   1.0000   1.0000   1.0000   1.0000   1.0000
     1.0000   1.0000   1.0000   1.0000   1.0000   1.0000   1.0000   1.0000
     1.0000   1.0000   1.0000   1.0000   1.0000   1.0000   1.0000   1.0000
     1.0000   1.0000   1.0000   1.0000   1.0000   1.0000   1.0000   1.0000
     1.0000   1.0000   1.0000   1.0000   1.0000   1.0000   1.0000   1.0000
     1.0000   1.0000   1.0000   1.0000   1.0000   1.0000   1.0000   1.0000
     1.0000   1.0000   1.0000   1.0000   1.0000   1.0000   1.0000   1.0000
     1.0000   1.0000   1.0000   1.0000   1.0000   1.0000   1.0000   1.0000
     1.0000   1.0000   1.0000   1.0000   1.0000   1.0000   1.0000   1.0000
     1.0000   1.0000   1.0000   1.0000   1.0000   1.0000   1.0000   1.0000
     1.0000   1.0000   1.0000   1.0000   1.0000   1.0000   1.0000   1.0000
     1.0000   1.0000   1.0000   1.0000   1.0000   1.0000   1.0000   1.0000
     1.0000   1.0000   1.0000   1.0000   1.0000   1.0000   1.0000   1.0000
     1.0000   1.0000   1.0000   1.0000   1.0000   1.0000   1.0000   1.0000
     1.0000   1.0000   1.0000   1.0000   1.0000   1.0000   1.0000   1.0000
     1.0000   1.0000   1.0000   1.0000   1.0000   1.0000   1.0000   1.0000
     1.0000   1.0000   1.0000   1.0000   1.0000   1.0000   1.0000   1.0000
     1.0000   1.0000   1.0000   1.0000   1.0000   1.0000   1.0000   1.0000
     1.0000   1.0000   1.0000   1.0000   1.0000   1.0000   1.0000   1.0000
     1.0000   1.0000   1.0000   1.0000   1.0000   1.0000   1.0000   1.0000
     1.0000   1.0000   1.0000   1.0000   1.0000   1.0000   1.0000   1.0000
     1.0000   1.0000   1.0000   1.0000   1.0000   1.0000   1.0000   1.0000
     0.0000   0.0000   0.0000   0.0000   0.0000   0.0000   0.0000   0.0000
     0.0000   0.0000   0.0000   0.0000   0.0000   0.0000   0.0000   0.0000
     0.0000   0.0000   0.0000   0.0000   0.0000   0.0000   0.0000   0.0000
     0.0000   0.0000   0.0000   0.0000   0.0000   0.0000   0.0000   0.0000
     0.0000   0.0000   0.0000   0.0000   0.0000   0.0000   0.0000   0.0000
     0.0000   0.0000   0.0000   0.0000   0.0000   0.0000   0.0000   0.0000
     0.0000   0.0000   0.0000   0.0000   0.0000   0.0000   0.0000   0.0000
     0.0000

     the Fermi energy is     6.2079 ev
     (compare with:     5.4153 eV, computed in scf)

     Writing all to output data dir ./out/ZnS_hub.save/
 
     init_run     :      4.21s CPU      5.96s WALL (       1 calls)
     electrons    :     24.16s CPU     24.40s WALL (       1 calls)

     Called by init_run:
     wfcinit      :      3.18s CPU      4.23s WALL (       1 calls)
     potinit      :      0.24s CPU      0.58s WALL (       1 calls)
     hinit0       :      0.16s CPU      0.31s WALL (       1 calls)

     Called by electrons:
     c_bands      :     24.10s CPU     24.32s WALL (       1 calls)
     v_of_rho     :      0.13s CPU      0.25s WALL (       1 calls)
     v_h          :      0.01s CPU      0.02s WALL (       1 calls)
     v_xc         :      0.12s CPU      0.23s WALL (       1 calls)
     newd         :      0.04s CPU      0.05s WALL (       1 calls)
     PAW_pot      :      0.04s CPU      0.05s WALL (       1 calls)

     Called by c_bands:
     init_us_2    :      0.03s CPU      0.05s WALL (       2 calls)
     init_us_2:cp :      0.03s CPU      0.05s WALL (       2 calls)
     cegterg      :     15.88s CPU     16.06s WALL (       4 calls)

     Called by sum_band:

     Called by *egterg:
     cdiaghg      :      3.28s CPU      3.30s WALL (      70 calls)
     cegterg:over :      1.14s CPU      1.15s WALL (      70 calls)
     cegterg:upda :      0.91s CPU      0.91s WALL (      70 calls)
     cegterg:last :      1.39s CPU      1.41s WALL (      10 calls)
     cdiaghg:chol :      0.20s CPU      0.20s WALL (      70 calls)
     cdiaghg:inve :      0.27s CPU      0.27s WALL (      70 calls)
     cdiaghg:para :      0.45s CPU      0.45s WALL (     140 calls)
     h_psi        :      7.42s CPU      7.51s WALL (      74 calls)
     s_psi        :      1.49s CPU      1.50s WALL (      75 calls)
     g_psi        :      0.02s CPU      0.02s WALL (      70 calls)

     Called by h_psi:
     h_psi:calbec :      1.37s CPU      1.38s WALL (      74 calls)
     vloc_psi     :      3.43s CPU      3.47s WALL (      74 calls)
     add_vuspsi   :      1.34s CPU      1.35s WALL (      74 calls)
     vhpsi        :      1.24s CPU      1.25s WALL (      74 calls)

     General routines
     calbec       :      1.77s CPU      1.78s WALL (     149 calls)
     fft          :      0.24s CPU      0.52s WALL (      12 calls)
     fftw         :      3.22s CPU      3.26s WALL (    7704 calls)
 
     Parallel routines

     Hubbard U routines
     vhpsi        :      1.24s CPU      1.25s WALL (      74 calls)

     PAW routines
     PAW_pot      :      0.04s CPU      0.05s WALL (       1 calls)
 
     PWSCF        :     29.94s CPU     47.32s WALL

 
   This run was terminated on:  11:16: 9   1Jul2024            

=------------------------------------------------------------------------------=
   JOB DONE.
=------------------------------------------------------------------------------=
