# E (eV) pdos(E) 
 -7.454  0.449E+00
 -7.444  0.134E+01
 -7.434  0.253E+01
 -7.424  0.332E+01
 -7.414  0.367E+01
 -7.404  0.369E+01
 -7.394  0.368E+01
 -7.384  0.375E+01
 -7.374  0.386E+01
 -7.364  0.416E+01
 -7.354  0.466E+01
 -7.344  0.518E+01
 -7.334  0.577E+01
 -7.324  0.658E+01
 -7.314  0.739E+01
 -7.304  0.792E+01
 -7.294  0.822E+01
 -7.284  0.869E+01
 -7.274  0.960E+01
 -7.264  0.107E+02
 -7.254  0.110E+02
 -7.244  0.110E+02
 -7.234  0.111E+02
 -7.224  0.110E+02
 -7.214  0.109E+02
 -7.204  0.106E+02
 -7.194  0.104E+02
 -7.184  0.103E+02
 -7.174  0.105E+02
 -7.164  0.112E+02
 -7.154  0.119E+02
 -7.144  0.123E+02
 -7.134  0.148E+02
 -7.124  0.165E+02
 -7.114  0.167E+02
 -7.104  0.158E+02
 -7.094  0.144E+02
 -7.084  0.146E+02
 -7.074  0.149E+02
 -7.064  0.155E+02
 -7.054  0.161E+02
 -7.044  0.165E+02
 -7.034  0.167E+02
 -7.024  0.161E+02
 -7.014  0.163E+02
 -7.004  0.165E+02
 -6.994  0.173E+02
 -6.984  0.179E+02
 -6.974  0.182E+02
 -6.964  0.182E+02
 -6.954  0.200E+02
 -6.944  0.248E+02
 -6.934  0.304E+02
 -6.924  0.326E+02
 -6.914  0.376E+02
 -6.904  0.331E+02
 -6.894  0.312E+02
 -6.884  0.302E+02
 -6.874  0.290E+02
 -6.864  0.285E+02
 -6.854  0.323E+02
 -6.844  0.325E+02
 -6.834  0.280E+02
 -6.824  0.245E+02
 -6.814  0.219E+02
 -6.804  0.203E+02
 -6.794  0.199E+02
 -6.784  0.227E+02
 -6.774  0.321E+02
 -6.764  0.407E+02
 -6.754  0.361E+02
 -6.744  0.477E+02
 -6.734  0.616E+02
 -6.724  0.542E+02
 -6.714  0.471E+02
 -6.704  0.501E+02
 -6.694  0.616E+02
 -6.684  0.638E+02
 -6.674  0.666E+02
 -6.664  0.769E+02
 -6.654  0.757E+02
 -6.644  0.713E+02
 -6.634  0.692E+02
 -6.624  0.779E+02
 -6.614  0.784E+02
 -6.604  0.764E+02
 -6.594  0.761E+02
 -6.584  0.786E+02
 -6.574  0.857E+02
 -6.564  0.111E+03
 -6.554  0.111E+03
 -6.544  0.972E+02
 -6.534  0.824E+02
 -6.524  0.920E+02
 -6.514  0.128E+03
 -6.504  0.132E+03
 -6.494  0.864E+02
 -6.484  0.794E+02
 -6.474  0.768E+02
 -6.464  0.829E+02
 -6.454  0.885E+02
 -6.444  0.936E+02
 -6.434  0.165E+03
 -6.424  0.192E+03
 -6.414  0.145E+03
 -6.404  0.131E+03
 -6.394  0.109E+03
 -6.384  0.147E+02
 -6.374  0.000E+00
 -6.364  0.000E+00
 -6.354  0.000E+00
 -6.344  0.000E+00
 -6.334  0.000E+00
 -6.324  0.000E+00
 -6.314  0.000E+00
 -6.304  0.000E+00
 -6.294  0.000E+00
 -6.284  0.000E+00
 -6.274  0.000E+00
 -6.264  0.000E+00
 -6.254  0.000E+00
 -6.244  0.000E+00
 -6.234  0.000E+00
 -6.224  0.000E+00
 -6.214  0.000E+00
 -6.204  0.000E+00
 -6.194  0.000E+00
 -6.184  0.000E+00
 -6.174  0.000E+00
 -6.164  0.000E+00
 -6.154  0.000E+00
 -6.144  0.000E+00
 -6.134  0.000E+00
 -6.124  0.000E+00
 -6.114  0.000E+00
 -6.104  0.000E+00
 -6.094  0.000E+00
 -6.084  0.000E+00
 -6.074  0.000E+00
 -6.064  0.000E+00
 -6.054  0.000E+00
 -6.044  0.000E+00
 -6.034  0.000E+00
 -6.024  0.000E+00
 -6.014  0.000E+00
 -6.004  0.000E+00
 -5.994  0.000E+00
 -5.984  0.000E+00
 -5.974  0.000E+00
 -5.964  0.000E+00
 -5.954  0.000E+00
 -5.944  0.000E+00
 -5.934  0.000E+00
 -5.924  0.000E+00
 -5.914  0.000E+00
 -5.904  0.000E+00
 -5.894  0.000E+00
 -5.884  0.000E+00
 -5.874  0.000E+00
 -5.864  0.000E+00
 -5.854  0.000E+00
 -5.844  0.000E+00
 -5.834  0.000E+00
 -5.824  0.000E+00
 -5.814  0.000E+00
 -5.804  0.000E+00
 -5.794  0.000E+00
 -5.784  0.000E+00
 -5.774  0.000E+00
 -5.764  0.000E+00
 -5.754  0.000E+00
 -5.744  0.000E+00
 -5.734  0.000E+00
 -5.724  0.000E+00
 -5.714  0.000E+00
 -5.704  0.000E+00
 -5.694  0.000E+00
 -5.684  0.000E+00
 -5.674  0.000E+00
 -5.664  0.000E+00
 -5.654  0.000E+00
 -5.644  0.000E+00
 -5.634  0.000E+00
 -5.624  0.000E+00
 -5.614  0.000E+00
 -5.604  0.000E+00
 -5.594  0.000E+00
 -5.584  0.000E+00
 -5.574  0.000E+00
 -5.564  0.000E+00
 -5.554  0.000E+00
 -5.544  0.000E+00
 -5.534  0.000E+00
 -5.524  0.000E+00
 -5.514  0.000E+00
 -5.504  0.000E+00
 -5.494  0.000E+00
 -5.484  0.000E+00
 -5.474  0.000E+00
 -5.464  0.000E+00
 -5.454  0.000E+00
 -5.444  0.000E+00
 -5.434  0.000E+00
 -5.424  0.000E+00
 -5.414  0.000E+00
 -5.404  0.000E+00
 -5.394  0.000E+00
 -5.384  0.000E+00
 -5.374  0.000E+00
 -5.364  0.000E+00
 -5.354  0.000E+00
 -5.344  0.000E+00
 -5.334  0.000E+00
 -5.324  0.000E+00
 -5.314  0.000E+00
 -5.304  0.000E+00
 -5.294  0.000E+00
 -5.284  0.000E+00
 -5.274  0.000E+00
 -5.264  0.000E+00
 -5.254  0.000E+00
 -5.244  0.000E+00
 -5.234  0.000E+00
 -5.224  0.000E+00
 -5.214  0.000E+00
 -5.204  0.000E+00
 -5.194  0.000E+00
 -5.184  0.000E+00
 -5.174  0.000E+00
 -5.164  0.000E+00
 -5.154  0.000E+00
 -5.144  0.000E+00
 -5.134  0.000E+00
 -5.124  0.000E+00
 -5.114  0.000E+00
 -5.104  0.000E+00
 -5.094  0.000E+00
 -5.084  0.000E+00
 -5.074  0.000E+00
 -5.064  0.000E+00
 -5.054  0.000E+00
 -5.044  0.000E+00
 -5.034  0.000E+00
 -5.024  0.000E+00
 -5.014  0.000E+00
 -5.004  0.000E+00
 -4.994  0.000E+00
 -4.984  0.000E+00
 -4.974  0.000E+00
 -4.964  0.000E+00
 -4.954  0.000E+00
 -4.944  0.000E+00
 -4.934  0.000E+00
 -4.924  0.000E+00
 -4.914  0.000E+00
 -4.904  0.000E+00
 -4.894  0.000E+00
 -4.884  0.000E+00
 -4.874  0.000E+00
 -4.864  0.000E+00
 -4.854  0.000E+00
 -4.844  0.000E+00
 -4.834  0.000E+00
 -4.824  0.000E+00
 -4.814  0.000E+00
 -4.804  0.000E+00
 -4.794  0.000E+00
 -4.784  0.000E+00
 -4.774  0.000E+00
 -4.764  0.000E+00
 -4.754  0.000E+00
 -4.744  0.000E+00
 -4.734  0.000E+00
 -4.724  0.000E+00
 -4.714  0.000E+00
 -4.704  0.000E+00
 -4.694  0.000E+00
 -4.684  0.000E+00
 -4.674  0.000E+00
 -4.664  0.000E+00
 -4.654  0.000E+00
 -4.644  0.000E+00
 -4.634  0.000E+00
 -4.624  0.000E+00
 -4.614  0.000E+00
 -4.604  0.000E+00
 -4.594  0.000E+00
 -4.584  0.000E+00
 -4.574  0.000E+00
 -4.564  0.000E+00
 -4.554  0.000E+00
 -4.544  0.000E+00
 -4.534  0.000E+00
 -4.524  0.000E+00
 -4.514  0.000E+00
 -4.504  0.000E+00
 -4.494  0.000E+00
 -4.484  0.000E+00
 -4.474  0.000E+00
 -4.464  0.000E+00
 -4.454  0.000E+00
 -4.444  0.000E+00
 -4.434  0.000E+00
 -4.424  0.000E+00
 -4.414  0.000E+00
 -4.404  0.000E+00
 -4.394  0.000E+00
 -4.384  0.000E+00
 -4.374  0.000E+00
 -4.364  0.000E+00
 -4.354  0.000E+00
 -4.344  0.000E+00
 -4.334  0.000E+00
 -4.324  0.000E+00
 -4.314  0.000E+00
 -4.304  0.000E+00
 -4.294  0.000E+00
 -4.284  0.000E+00
 -4.274  0.000E+00
 -4.264  0.000E+00
 -4.254  0.000E+00
 -4.244  0.000E+00
 -4.234  0.000E+00
 -4.224  0.000E+00
 -4.214  0.000E+00
 -4.204  0.000E+00
 -4.194  0.000E+00
 -4.184  0.000E+00
 -4.174  0.000E+00
 -4.164  0.000E+00
 -4.154  0.000E+00
 -4.144  0.000E+00
 -4.134  0.000E+00
 -4.124  0.000E+00
 -4.114  0.000E+00
 -4.104  0.000E+00
 -4.094  0.000E+00
 -4.084  0.000E+00
 -4.074  0.000E+00
 -4.064  0.000E+00
 -4.054  0.000E+00
 -4.044  0.000E+00
 -4.034  0.000E+00
 -4.024  0.000E+00
 -4.014  0.000E+00
 -4.004  0.000E+00
 -3.994  0.000E+00
 -3.984  0.000E+00
 -3.974  0.000E+00
 -3.964  0.000E+00
 -3.954  0.000E+00
 -3.944  0.000E+00
 -3.934  0.000E+00
 -3.924  0.000E+00
 -3.914  0.000E+00
 -3.904  0.000E+00
 -3.894  0.000E+00
 -3.884  0.000E+00
 -3.874  0.000E+00
 -3.864  0.000E+00
 -3.854  0.000E+00
 -3.844  0.000E+00
 -3.834  0.000E+00
 -3.824  0.000E+00
 -3.814  0.000E+00
 -3.804  0.000E+00
 -3.794  0.000E+00
 -3.784  0.000E+00
 -3.774  0.000E+00
 -3.764  0.000E+00
 -3.754  0.000E+00
 -3.744  0.000E+00
 -3.734  0.000E+00
 -3.724  0.000E+00
 -3.714  0.000E+00
 -3.704  0.000E+00
 -3.694  0.000E+00
 -3.684  0.000E+00
 -3.674  0.000E+00
 -3.664  0.000E+00
 -3.654  0.000E+00
 -3.644  0.000E+00
 -3.634  0.000E+00
 -3.624  0.000E+00
 -3.614  0.000E+00
 -3.604  0.000E+00
 -3.594  0.000E+00
 -3.584  0.000E+00
 -3.574  0.000E+00
 -3.564  0.000E+00
 -3.554  0.000E+00
 -3.544  0.000E+00
 -3.534  0.000E+00
 -3.524  0.000E+00
 -3.514  0.000E+00
 -3.504  0.000E+00
 -3.494  0.000E+00
 -3.484  0.000E+00
 -3.474  0.000E+00
 -3.464  0.000E+00
 -3.454  0.000E+00
 -3.444  0.000E+00
 -3.434  0.000E+00
 -3.424  0.000E+00
 -3.414  0.000E+00
 -3.404  0.000E+00
 -3.394  0.000E+00
 -3.384  0.000E+00
 -3.374  0.000E+00
 -3.364  0.000E+00
 -3.354  0.000E+00
 -3.344  0.000E+00
 -3.334  0.000E+00
 -3.324  0.000E+00
 -3.314  0.000E+00
 -3.304  0.000E+00
 -3.294  0.000E+00
 -3.284  0.000E+00
 -3.274  0.000E+00
 -3.264  0.000E+00
 -3.254  0.000E+00
 -3.244  0.000E+00
 -3.234  0.000E+00
 -3.224  0.000E+00
 -3.214  0.000E+00
 -3.204  0.000E+00
 -3.194  0.000E+00
 -3.184  0.000E+00
 -3.174  0.000E+00
 -3.164  0.000E+00
 -3.154  0.000E+00
 -3.144  0.000E+00
 -3.134  0.000E+00
 -3.124  0.000E+00
 -3.114  0.000E+00
 -3.104  0.000E+00
 -3.094  0.000E+00
 -3.084  0.000E+00
 -3.074  0.000E+00
 -3.064  0.000E+00
 -3.054  0.000E+00
 -3.044  0.000E+00
 -3.034  0.000E+00
 -3.024  0.000E+00
 -3.014  0.000E+00
 -3.004  0.000E+00
 -2.994  0.000E+00
 -2.984  0.000E+00
 -2.974  0.000E+00
 -2.964  0.000E+00
 -2.954  0.000E+00
 -2.944  0.000E+00
 -2.934  0.000E+00
 -2.924  0.000E+00
 -2.914  0.000E+00
 -2.904  0.000E+00
 -2.894  0.000E+00
 -2.884  0.000E+00
 -2.874  0.000E+00
 -2.864  0.000E+00
 -2.854  0.000E+00
 -2.844  0.000E+00
 -2.834  0.000E+00
 -2.824  0.000E+00
 -2.814  0.000E+00
 -2.804  0.000E+00
 -2.794  0.000E+00
 -2.784  0.000E+00
 -2.774  0.000E+00
 -2.764  0.000E+00
 -2.754  0.000E+00
 -2.744  0.000E+00
 -2.734  0.000E+00
 -2.724  0.000E+00
 -2.714  0.000E+00
 -2.704  0.000E+00
 -2.694  0.000E+00
 -2.684  0.000E+00
 -2.674  0.000E+00
 -2.664  0.000E+00
 -2.654  0.000E+00
 -2.644  0.000E+00
 -2.634  0.000E+00
 -2.624  0.000E+00
 -2.614  0.000E+00
 -2.604  0.000E+00
 -2.594  0.000E+00
 -2.584  0.000E+00
 -2.574  0.000E+00
 -2.564  0.000E+00
 -2.554  0.000E+00
 -2.544  0.000E+00
 -2.534  0.000E+00
 -2.524  0.000E+00
 -2.514  0.000E+00
 -2.504  0.000E+00
 -2.494  0.000E+00
 -2.484  0.000E+00
 -2.474  0.000E+00
 -2.464  0.000E+00
 -2.454  0.000E+00
 -2.444  0.000E+00
 -2.434  0.000E+00
 -2.424  0.000E+00
 -2.414  0.000E+00
 -2.404  0.000E+00
 -2.394  0.000E+00
 -2.384  0.000E+00
 -2.374  0.000E+00
 -2.364  0.000E+00
 -2.354  0.000E+00
 -2.344  0.156E-02
 -2.334  0.524E+01
 -2.324  0.125E+02
 -2.314  0.980E+01
 -2.304  0.220E+02
 -2.294  0.190E+02
 -2.284  0.185E+02
 -2.274  0.212E+02
 -2.264  0.684E+02
 -2.254  0.312E+02
 -2.244  0.634E+02
 -2.234  0.762E+02
 -2.224  0.752E+02
 -2.214  0.477E+02
 -2.204  0.413E+02
 -2.194  0.241E+02
 -2.184  0.210E+02
 -2.174  0.132E+02
 -2.164  0.187E+02
 -2.154  0.164E+02
 -2.144  0.117E+02
 -2.134  0.159E+02
 -2.124  0.117E+02
 -2.114  0.125E+02
 -2.104  0.102E+02
 -2.094  0.631E+01
 -2.084  0.566E+01
 -2.074  0.103E+02
 -2.064  0.835E+01
 -2.054  0.405E+01
 -2.044  0.435E+01
 -2.034  0.509E+01
 -2.024  0.301E+01
 -2.014  0.306E+01
 -2.004  0.231E+01
 -1.994  0.350E+01
 -1.984  0.395E+01
 -1.974  0.187E+01
 -1.964  0.245E+01
 -1.954  0.237E+01
 -1.944  0.952E+00
 -1.934  0.139E+01
 -1.924  0.289E+01
 -1.914  0.346E+01
 -1.904  0.391E+01
 -1.894  0.426E+01
 -1.884  0.308E+01
 -1.874  0.268E+01
 -1.864  0.247E+01
 -1.854  0.235E+01
 -1.844  0.232E+01
 -1.834  0.262E+01
 -1.824  0.445E+01
 -1.814  0.731E+01
 -1.804  0.497E+01
 -1.794  0.392E+01
 -1.784  0.347E+01
 -1.774  0.332E+01
 -1.764  0.340E+01
 -1.754  0.430E+01
 -1.744  0.412E+01
 -1.734  0.445E+01
 -1.724  0.463E+01
 -1.714  0.565E+01
 -1.704  0.821E+01
 -1.694  0.764E+01
 -1.684  0.687E+01
 -1.674  0.798E+01
 -1.664  0.716E+01
 -1.654  0.618E+01
 -1.644  0.599E+01
 -1.634  0.745E+01
 -1.624  0.780E+01
 -1.614  0.935E+01
 -1.604  0.120E+02
 -1.594  0.709E+01
 -1.584  0.380E+01
 -1.574  0.621E+01
 -1.564  0.719E+01
 -1.554  0.130E+02
 -1.544  0.111E+02
 -1.534  0.647E+01
 -1.524  0.443E+01
 -1.514  0.304E+01
 -1.504  0.160E+01
 -1.494  0.360E+00
 -1.484  0.480E-02
 -1.474  0.000E+00
 -1.464  0.000E+00
 -1.454  0.000E+00
 -1.444  0.000E+00
 -1.434  0.000E+00
 -1.424  0.000E+00
 -1.414  0.000E+00
 -1.404  0.000E+00
 -1.394  0.000E+00
 -1.384  0.000E+00
 -1.374  0.000E+00
 -1.364  0.000E+00
 -1.354  0.000E+00
 -1.344  0.000E+00
 -1.334  0.000E+00
 -1.324  0.000E+00
 -1.314  0.000E+00
 -1.304  0.000E+00
 -1.294  0.000E+00
 -1.284  0.000E+00
 -1.274  0.000E+00
 -1.264  0.000E+00
 -1.254  0.000E+00
 -1.244  0.000E+00
 -1.234  0.000E+00
 -1.224  0.000E+00
 -1.214  0.000E+00
 -1.204  0.000E+00
 -1.194  0.000E+00
 -1.184  0.000E+00
 -1.174  0.000E+00
 -1.164  0.000E+00
 -1.154  0.000E+00
 -1.144  0.000E+00
 -1.134  0.000E+00
 -1.124  0.000E+00
 -1.114  0.000E+00
 -1.104  0.000E+00
 -1.094  0.000E+00
 -1.084  0.000E+00
 -1.074  0.000E+00
 -1.064  0.000E+00
 -1.054  0.000E+00
 -1.044  0.000E+00
 -1.034  0.000E+00
 -1.024  0.000E+00
 -1.014  0.000E+00
 -1.004  0.000E+00
 -0.994  0.000E+00
 -0.984  0.000E+00
 -0.974  0.000E+00
 -0.964  0.000E+00
 -0.954  0.000E+00
 -0.944  0.000E+00
 -0.934  0.000E+00
 -0.924  0.000E+00
 -0.914  0.000E+00
 -0.904  0.000E+00
 -0.894  0.000E+00
 -0.884  0.000E+00
 -0.874  0.000E+00
 -0.864  0.000E+00
 -0.854  0.000E+00
 -0.844  0.000E+00
 -0.834  0.000E+00
 -0.824  0.000E+00
 -0.814  0.000E+00
 -0.804  0.000E+00
 -0.794  0.000E+00
 -0.784  0.000E+00
 -0.774  0.000E+00
 -0.764  0.000E+00
 -0.754  0.000E+00
 -0.744  0.000E+00
 -0.734  0.000E+00
 -0.724  0.000E+00
 -0.714  0.000E+00
 -0.704  0.000E+00
 -0.694  0.000E+00
 -0.684  0.000E+00
 -0.674  0.000E+00
 -0.664  0.000E+00
 -0.654  0.000E+00
 -0.644  0.000E+00
 -0.634  0.000E+00
 -0.624  0.000E+00
 -0.614  0.000E+00
 -0.604  0.000E+00
 -0.594  0.000E+00
 -0.584  0.000E+00
 -0.574  0.000E+00
 -0.564  0.000E+00
 -0.554  0.000E+00
 -0.544  0.000E+00
 -0.534  0.000E+00
 -0.524  0.000E+00
 -0.514  0.000E+00
 -0.504  0.000E+00
 -0.494  0.000E+00
 -0.484  0.000E+00
 -0.474  0.000E+00
 -0.464  0.000E+00
 -0.454  0.000E+00
 -0.444  0.000E+00
 -0.434  0.000E+00
 -0.424  0.000E+00
 -0.414  0.000E+00
 -0.404  0.000E+00
 -0.394  0.000E+00
 -0.384  0.000E+00
 -0.374  0.000E+00
 -0.364  0.000E+00
 -0.354  0.000E+00
 -0.344  0.000E+00
 -0.334  0.000E+00
 -0.324  0.000E+00
 -0.314  0.000E+00
 -0.304  0.000E+00
 -0.294  0.000E+00
 -0.284  0.000E+00
 -0.274  0.000E+00
 -0.264  0.000E+00
 -0.254  0.000E+00
 -0.244  0.000E+00
 -0.234  0.000E+00
 -0.224  0.000E+00
 -0.214  0.000E+00
 -0.204  0.000E+00
 -0.194  0.000E+00
 -0.184  0.000E+00
 -0.174  0.000E+00
 -0.164  0.000E+00
 -0.154  0.000E+00
 -0.144  0.000E+00
 -0.134  0.000E+00
 -0.124  0.000E+00
 -0.114  0.000E+00
 -0.104  0.000E+00
 -0.094  0.000E+00
 -0.084  0.000E+00
 -0.074  0.000E+00
 -0.064  0.000E+00
 -0.054  0.000E+00
 -0.044  0.000E+00
 -0.034  0.000E+00
 -0.024  0.000E+00
 -0.014  0.000E+00
 -0.004  0.000E+00
  0.006  0.000E+00
  0.016  0.000E+00
  0.026  0.000E+00
  0.036  0.000E+00
  0.046  0.000E+00
  0.056  0.000E+00
  0.066  0.000E+00
  0.076  0.000E+00
  0.086  0.000E+00
  0.096  0.000E+00
  0.106  0.000E+00
  0.116  0.000E+00
  0.126  0.000E+00
  0.136  0.000E+00
  0.146  0.000E+00
  0.156  0.000E+00
  0.166  0.000E+00
  0.176  0.000E+00
  0.186  0.000E+00
  0.196  0.000E+00
  0.206  0.000E+00
  0.216  0.000E+00
  0.226  0.000E+00
  0.236  0.000E+00
  0.246  0.000E+00
  0.256  0.000E+00
  0.266  0.000E+00
  0.276  0.000E+00
  0.286  0.000E+00
  0.296  0.000E+00
  0.306  0.000E+00
  0.316  0.000E+00
  0.326  0.000E+00
  0.336  0.000E+00
  0.346  0.101E-03
  0.356  0.627E-02
  0.366  0.387E-01
  0.376  0.118E+00
  0.386  0.245E+00
  0.396  0.420E+00
  0.406  0.640E+00
  0.416  0.910E+00
  0.426  0.123E+01
  0.436  0.159E+01
  0.446  0.200E+01
  0.456  0.253E+01
  0.466  0.511E+01
  0.476  0.851E+01
  0.486  0.621E+01
  0.496  0.454E+01
  0.506  0.467E+01
  0.516  0.490E+01
  0.526  0.517E+01
  0.536  0.549E+01
  0.546  0.585E+01
  0.556  0.626E+01
  0.566  0.671E+01
  0.576  0.722E+01
  0.586  0.776E+01
  0.596  0.832E+01
  0.606  0.888E+01
  0.616  0.961E+01
  0.626  0.106E+02
  0.636  0.117E+02
  0.646  0.132E+02
  0.656  0.147E+02
  0.666  0.160E+02
  0.676  0.174E+02
  0.686  0.169E+02
  0.696  0.182E+02
  0.706  0.188E+02
  0.716  0.183E+02
  0.726  0.176E+02
  0.736  0.169E+02
  0.746  0.164E+02
  0.756  0.159E+02
  0.766  0.152E+02
  0.776  0.145E+02
  0.786  0.137E+02
  0.796  0.133E+02
  0.806  0.136E+02
  0.816  0.149E+02
  0.826  0.163E+02
  0.836  0.186E+02
  0.846  0.241E+02
  0.856  0.325E+02
  0.866  0.386E+02
  0.876  0.429E+02
  0.886  0.446E+02
  0.896  0.458E+02
  0.906  0.459E+02
  0.916  0.484E+02
  0.926  0.587E+02
  0.936  0.647E+02
  0.946  0.646E+02
  0.956  0.624E+02
  0.966  0.612E+02
  0.976  0.630E+02
  0.986  0.752E+02
  0.996  0.793E+02
  1.006  0.105E+03
  1.016  0.111E+03
  1.026  0.294E+02
  1.036  0.229E+02
  1.046  0.237E+02
  1.056  0.285E+02
  1.066  0.357E+02
  1.076  0.401E+02
  1.086  0.416E+02
  1.096  0.420E+02
  1.106  0.412E+02
  1.116  0.395E+02
  1.126  0.371E+02
  1.136  0.335E+02
  1.146  0.308E+02
  1.156  0.289E+02
  1.166  0.270E+02
  1.176  0.252E+02
  1.186  0.236E+02
  1.196  0.223E+02
  1.206  0.211E+02
  1.216  0.201E+02
  1.226  0.193E+02
  1.236  0.186E+02
  1.246  0.185E+02
  1.256  0.191E+02
  1.266  0.200E+02
  1.276  0.207E+02
  1.286  0.210E+02
  1.296  0.210E+02
  1.306  0.208E+02
  1.316  0.203E+02
  1.326  0.194E+02
  1.336  0.183E+02
  1.346  0.170E+02
  1.356  0.158E+02
  1.366  0.145E+02
  1.376  0.136E+02
  1.386  0.133E+02
  1.396  0.132E+02
  1.406  0.131E+02
  1.416  0.131E+02
  1.426  0.132E+02
  1.436  0.133E+02
  1.446  0.141E+02
  1.456  0.145E+02
  1.466  0.143E+02
  1.476  0.139E+02
  1.486  0.135E+02
  1.496  0.130E+02
  1.506  0.125E+02
  1.516  0.118E+02
  1.526  0.111E+02
  1.536  0.102E+02
  1.546  0.925E+01
  1.556  0.830E+01
  1.566  0.760E+01
  1.576  0.712E+01
  1.586  0.711E+01
  1.596  0.771E+01
  1.606  0.849E+01
  1.616  0.931E+01
  1.626  0.101E+02
  1.636  0.108E+02
  1.646  0.114E+02
  1.656  0.118E+02
  1.666  0.122E+02
  1.676  0.124E+02
  1.686  0.125E+02
  1.696  0.125E+02
  1.706  0.123E+02
  1.716  0.121E+02
  1.726  0.117E+02
  1.736  0.112E+02
  1.746  0.108E+02
  1.756  0.104E+02
  1.766  0.101E+02
  1.776  0.982E+01
  1.786  0.953E+01
  1.796  0.930E+01
  1.806  0.909E+01
  1.816  0.890E+01
  1.826  0.873E+01
  1.836  0.857E+01
  1.846  0.845E+01
  1.856  0.834E+01
  1.866  0.828E+01
  1.876  0.826E+01
  1.886  0.824E+01
  1.896  0.825E+01
  1.906  0.831E+01
  1.916  0.838E+01
  1.926  0.846E+01
  1.936  0.851E+01
  1.946  0.858E+01
  1.956  0.863E+01
  1.966  0.867E+01
  1.976  0.868E+01
  1.986  0.868E+01
  1.996  0.870E+01
  2.006  0.867E+01
  2.016  0.877E+01
  2.026  0.102E+02
  2.036  0.129E+02
  2.046  0.107E+02
  2.056  0.927E+01
  2.066  0.846E+01
  2.076  0.768E+01
  2.086  0.724E+01
  2.096  0.715E+01
  2.106  0.710E+01
  2.116  0.704E+01
  2.126  0.697E+01
  2.136  0.692E+01
  2.146  0.686E+01
  2.156  0.678E+01
  2.166  0.672E+01
  2.176  0.665E+01
  2.186  0.658E+01
  2.196  0.651E+01
  2.206  0.643E+01
  2.216  0.636E+01
  2.226  0.630E+01
  2.236  0.624E+01
  2.246  0.621E+01
  2.256  0.620E+01
  2.266  0.620E+01
  2.276  0.623E+01
  2.286  0.626E+01
  2.296  0.635E+01
  2.306  0.648E+01
  2.316  0.661E+01
  2.326  0.676E+01
  2.336  0.693E+01
  2.346  0.713E+01
  2.356  0.734E+01
  2.366  0.756E+01
  2.376  0.805E+01
  2.386  0.879E+01
  2.396  0.971E+01
  2.406  0.112E+02
  2.416  0.127E+02
  2.426  0.136E+02
  2.436  0.143E+02
  2.446  0.146E+02
  2.456  0.148E+02
  2.466  0.148E+02
  2.476  0.149E+02
  2.486  0.148E+02
  2.496  0.148E+02
  2.506  0.148E+02
  2.516  0.147E+02
  2.526  0.154E+02
  2.536  0.172E+02
  2.546  0.198E+02
  2.556  0.223E+02
  2.566  0.252E+02
  2.576  0.284E+02
  2.586  0.320E+02
  2.596  0.425E+02
  2.606  0.564E+02
  2.616  0.553E+02
  2.626  0.667E+02
  2.636  0.577E+02
  2.646  0.471E+02
  2.656  0.375E+02
  2.666  0.300E+02
  2.676  0.245E+02
  2.686  0.204E+02
  2.696  0.177E+02
  2.706  0.176E+02
  2.716  0.199E+02
  2.726  0.233E+02
  2.736  0.256E+02
  2.746  0.317E+02
  2.756  0.369E+02
  2.766  0.267E+02
  2.776  0.223E+02
  2.786  0.190E+02
  2.796  0.177E+02
  2.806  0.167E+02
  2.816  0.177E+02
  2.826  0.179E+02
  2.836  0.190E+02
  2.846  0.216E+02
  2.856  0.232E+02
  2.866  0.243E+02
  2.876  0.253E+02
  2.886  0.263E+02
  2.896  0.272E+02
  2.906  0.281E+02
  2.916  0.289E+02
  2.926  0.302E+02
  2.936  0.319E+02
  2.946  0.336E+02
  2.956  0.352E+02
  2.966  0.368E+02
  2.976  0.382E+02
  2.986  0.395E+02
  2.996  0.406E+02
  3.006  0.413E+02
  3.016  0.415E+02
  3.026  0.411E+02
  3.036  0.411E+02
  3.046  0.424E+02
  3.056  0.370E+02
  3.066  0.317E+02
  3.076  0.274E+02
  3.086  0.264E+02
  3.096  0.267E+02
  3.106  0.269E+02
  3.116  0.275E+02
  3.126  0.267E+02
  3.136  0.255E+02
  3.146  0.242E+02
  3.156  0.232E+02
  3.166  0.229E+02
  3.176  0.235E+02
  3.186  0.254E+02
  3.196  0.282E+02
  3.206  0.338E+02
  3.216  0.387E+02
  3.226  0.415E+02
  3.236  0.421E+02
  3.246  0.448E+02
  3.256  0.474E+02
  3.266  0.523E+02
  3.276  0.618E+02
  3.286  0.489E+02
  3.296  0.477E+02
  3.306  0.462E+02
  3.316  0.450E+02
  3.326  0.434E+02
  3.336  0.421E+02
  3.346  0.413E+02
  3.356  0.419E+02
  3.366  0.422E+02
  3.376  0.430E+02
  3.386  0.463E+02
  3.396  0.462E+02
  3.406  0.455E+02
  3.416  0.452E+02
  3.426  0.458E+02
  3.436  0.463E+02
  3.446  0.470E+02
  3.456  0.474E+02
  3.466  0.479E+02
  3.476  0.487E+02
  3.486  0.498E+02
  3.496  0.506E+02
  3.506  0.495E+02
  3.516  0.477E+02
  3.526  0.465E+02
  3.536  0.456E+02
  3.546  0.445E+02
  3.556  0.438E+02
  3.566  0.459E+02
  3.576  0.449E+02
  3.586  0.401E+02
  3.596  0.374E+02
  3.606  0.374E+02
  3.616  0.394E+02
  3.626  0.388E+02
  3.636  0.386E+02
  3.646  0.388E+02
  3.656  0.392E+02
  3.666  0.399E+02
  3.676  0.476E+02
  3.686  0.453E+02
  3.696  0.539E+02
  3.706  0.531E+02
  3.716  0.612E+02
  3.726  0.630E+02
  3.736  0.625E+02
  3.746  0.638E+02
  3.756  0.539E+02
  3.766  0.536E+02
  3.776  0.535E+02
  3.786  0.530E+02
  3.796  0.533E+02
  3.806  0.551E+02
  3.816  0.543E+02
  3.826  0.510E+02
  3.836  0.458E+02
  3.846  0.403E+02
  3.856  0.362E+02
  3.866  0.340E+02
  3.876  0.328E+02
  3.886  0.322E+02
  3.896  0.323E+02
  3.906  0.327E+02
  3.916  0.335E+02
  3.926  0.346E+02
  3.936  0.361E+02
  3.946  0.378E+02
  3.956  0.405E+02
  3.966  0.439E+02
  3.976  0.472E+02
  3.986  0.496E+02
  3.996  0.504E+02
  4.006  0.499E+02
  4.016  0.511E+02
  4.026  0.528E+02
  4.036  0.541E+02
  4.046  0.552E+02
  4.056  0.607E+02
  4.066  0.573E+02
  4.076  0.519E+02
  4.086  0.504E+02
  4.096  0.482E+02
  4.106  0.467E+02
  4.116  0.466E+02
  4.126  0.476E+02
  4.136  0.433E+02
  4.146  0.424E+02
  4.156  0.429E+02
  4.166  0.437E+02
  4.176  0.455E+02
  4.186  0.475E+02
  4.196  0.509E+02
  4.206  0.552E+02
  4.216  0.628E+02
  4.226  0.699E+02
  4.236  0.736E+02
  4.246  0.759E+02
  4.256  0.738E+02
  4.266  0.750E+02
  4.276  0.534E+02
  4.286  0.444E+02
  4.296  0.407E+02
  4.306  0.396E+02
  4.316  0.400E+02
  4.326  0.391E+02
  4.336  0.339E+02
  4.346  0.315E+02
  4.356  0.314E+02
  4.366  0.317E+02
  4.376  0.326E+02
  4.386  0.340E+02
  4.396  0.354E+02
  4.406  0.358E+02
  4.416  0.353E+02
  4.426  0.361E+02
  4.436  0.373E+02
  4.446  0.385E+02
  4.456  0.396E+02
  4.466  0.408E+02
  4.476  0.419E+02
  4.486  0.443E+02
  4.496  0.502E+02
  4.506  0.530E+02
  4.516  0.567E+02
  4.526  0.556E+02
  4.536  0.583E+02
  4.546  0.594E+02
  4.556  0.594E+02
  4.566  0.569E+02
  4.576  0.540E+02
  4.586  0.485E+02
  4.596  0.492E+02
  4.606  0.517E+02
  4.616  0.544E+02
  4.626  0.670E+02
  4.636  0.782E+02
  4.646  0.748E+02
  4.656  0.591E+02
  4.666  0.487E+02
  4.676  0.412E+02
  4.686  0.367E+02
  4.696  0.338E+02
  4.706  0.319E+02
  4.716  0.307E+02
  4.726  0.298E+02
  4.736  0.292E+02
  4.746  0.287E+02
  4.756  0.282E+02
  4.766  0.276E+02
  4.776  0.270E+02
  4.786  0.265E+02
  4.796  0.260E+02
  4.806  0.257E+02
  4.816  0.259E+02
  4.826  0.279E+02
  4.836  0.302E+02
  4.846  0.308E+02
  4.856  0.296E+02
  4.866  0.268E+02
  4.876  0.259E+02
  4.886  0.256E+02
  4.896  0.253E+02
  4.906  0.248E+02
  4.916  0.242E+02
  4.926  0.239E+02
  4.936  0.234E+02
  4.946  0.220E+02
  4.956  0.186E+02
  4.966  0.208E+02
  4.976  0.257E+02
  4.986  0.248E+02
  4.996  0.230E+02
  5.006  0.208E+02
  5.016  0.185E+02
  5.026  0.155E+02
  5.036  0.123E+02
  5.046  0.109E+02
  5.056  0.105E+02
  5.066  0.105E+02
  5.076  0.106E+02
  5.086  0.106E+02
  5.096  0.107E+02
  5.106  0.110E+02
  5.116  0.127E+02
  5.126  0.156E+02
  5.136  0.200E+02
  5.146  0.224E+02
  5.156  0.233E+02
  5.166  0.257E+02
  5.176  0.282E+02
  5.186  0.272E+02
  5.196  0.227E+02
  5.206  0.218E+02
  5.216  0.192E+02
  5.226  0.168E+02
  5.236  0.144E+02
  5.246  0.123E+02
  5.256  0.105E+02
  5.266  0.914E+01
  5.276  0.808E+01
  5.286  0.720E+01
  5.296  0.637E+01
  5.306  0.567E+01
  5.316  0.517E+01
  5.326  0.518E+01
  5.336  0.568E+01
  5.346  0.584E+01
  5.356  0.569E+01
  5.366  0.522E+01
  5.376  0.438E+01
  5.386  0.323E+01
  5.396  0.176E+01
  5.406  0.728E+00
  5.416  0.364E+00
  5.426  0.142E+00
  5.436  0.264E-01
  5.446  0.133E-02
  5.456  0.295E-03
  5.466  0.000E+00
  5.476  0.000E+00
  5.486  0.000E+00
  5.496  0.000E+00
  5.506  0.000E+00
  5.516  0.000E+00
  5.526  0.000E+00
  5.536  0.000E+00
  5.546  0.000E+00
  5.556  0.000E+00
  5.566  0.000E+00
  5.576  0.000E+00
  5.586  0.000E+00
  5.596  0.000E+00
  5.606  0.000E+00
  5.616  0.000E+00
  5.626  0.000E+00
  5.636  0.000E+00
  5.646  0.000E+00
  5.656  0.000E+00
  5.666  0.000E+00
  5.676  0.000E+00
  5.686  0.000E+00
  5.696  0.000E+00
  5.706  0.000E+00
  5.716  0.000E+00
  5.726  0.000E+00
  5.736  0.000E+00
  5.746  0.000E+00
  5.756  0.000E+00
  5.766  0.000E+00
  5.776  0.000E+00
  5.786  0.000E+00
  5.796  0.000E+00
  5.806  0.000E+00
  5.816  0.000E+00
  5.826  0.000E+00
  5.836  0.000E+00
  5.846  0.000E+00
  5.856  0.000E+00
  5.866  0.000E+00
  5.876  0.000E+00
  5.886  0.000E+00
  5.896  0.000E+00
  5.906  0.000E+00
  5.916  0.000E+00
  5.926  0.000E+00
  5.936  0.000E+00
  5.946  0.000E+00
  5.956  0.000E+00
  5.966  0.000E+00
  5.976  0.000E+00
  5.986  0.000E+00
  5.996  0.000E+00
  6.006  0.000E+00
  6.016  0.000E+00
  6.026  0.000E+00
  6.036  0.000E+00
  6.046  0.000E+00
  6.056  0.000E+00
  6.066  0.000E+00
  6.076  0.000E+00
  6.086  0.000E+00
  6.096  0.000E+00
  6.106  0.000E+00
  6.116  0.000E+00
  6.126  0.000E+00
  6.136  0.000E+00
  6.146  0.000E+00
  6.156  0.000E+00
  6.166  0.000E+00
  6.176  0.000E+00
  6.186  0.000E+00
  6.196  0.000E+00
  6.206  0.000E+00
  6.216  0.000E+00
  6.226  0.000E+00
  6.236  0.000E+00
  6.246  0.000E+00
  6.256  0.000E+00
  6.266  0.000E+00
  6.276  0.000E+00
  6.286  0.000E+00
  6.296  0.000E+00
  6.306  0.000E+00
  6.316  0.000E+00
  6.326  0.000E+00
  6.336  0.000E+00
  6.346  0.000E+00
  6.356  0.000E+00
  6.366  0.000E+00
  6.376  0.000E+00
  6.386  0.000E+00
  6.396  0.000E+00
  6.406  0.000E+00
  6.416  0.000E+00
  6.426  0.000E+00
  6.436  0.000E+00
  6.446  0.000E+00
  6.456  0.000E+00
  6.466  0.000E+00
  6.476  0.000E+00
  6.486  0.000E+00
  6.496  0.000E+00
  6.506  0.000E+00
  6.516  0.000E+00
  6.526  0.000E+00
  6.536  0.000E+00
  6.546  0.000E+00
  6.556  0.000E+00
  6.566  0.000E+00
  6.576  0.000E+00
  6.586  0.000E+00
  6.596  0.000E+00
  6.606  0.000E+00
  6.616  0.000E+00
  6.626  0.000E+00
  6.636  0.000E+00
  6.646  0.000E+00
  6.656  0.000E+00
  6.666  0.000E+00
  6.676  0.000E+00
  6.686  0.000E+00
  6.696  0.000E+00
  6.706  0.000E+00
  6.716  0.000E+00
  6.726  0.000E+00
  6.736  0.000E+00
  6.746  0.000E+00
  6.756  0.000E+00
  6.766  0.000E+00
  6.776  0.000E+00
  6.786  0.000E+00
  6.796  0.000E+00
  6.806  0.000E+00
  6.816  0.000E+00
  6.826  0.000E+00
  6.836  0.000E+00
  6.846  0.000E+00
  6.856  0.000E+00
  6.866  0.000E+00
  6.876  0.000E+00
  6.886  0.000E+00
  6.896  0.000E+00
  6.906  0.000E+00
  6.916  0.000E+00
  6.926  0.000E+00
  6.936  0.000E+00
  6.946  0.000E+00
  6.956  0.000E+00
  6.966  0.000E+00
  6.976  0.000E+00
  6.986  0.000E+00
  6.996  0.000E+00
  7.006  0.000E+00
  7.016  0.000E+00
  7.026  0.000E+00
  7.036  0.000E+00
  7.046  0.000E+00
  7.056  0.000E+00
  7.066  0.000E+00
  7.076  0.000E+00
  7.086  0.000E+00
  7.096  0.000E+00
  7.106  0.000E+00
  7.116  0.000E+00
  7.126  0.000E+00
  7.136  0.000E+00
  7.146  0.000E+00
  7.156  0.000E+00
  7.166  0.000E+00
  7.176  0.000E+00
  7.186  0.000E+00
  7.196  0.000E+00
  7.206  0.000E+00
  7.216  0.000E+00
  7.226  0.000E+00
  7.236  0.000E+00
  7.246  0.000E+00
  7.256  0.000E+00
  7.266  0.000E+00
  7.276  0.000E+00
  7.286  0.000E+00
  7.296  0.000E+00
  7.306  0.000E+00
  7.316  0.000E+00
  7.326  0.000E+00
  7.336  0.000E+00
  7.346  0.000E+00
  7.356  0.000E+00
  7.366  0.000E+00
  7.376  0.000E+00
  7.386  0.000E+00
  7.396  0.000E+00
  7.406  0.000E+00
  7.416  0.000E+00
  7.426  0.000E+00
  7.436  0.000E+00
  7.446  0.130E-04
  7.456  0.675E-04
  7.466  0.165E-03
  7.476  0.330E-03
  7.486  0.657E-03
  7.496  0.115E-02
  7.506  0.183E-02
  7.516  0.268E-02
  7.526  0.372E-02
  7.536  0.492E-02
  7.546  0.632E-02
  7.556  0.791E-02
  7.566  0.969E-02
  7.576  0.117E-01
  7.586  0.138E-01
  7.596  0.162E-01
  7.606  0.188E-01
  7.616  0.215E-01
  7.626  0.245E-01
  7.636  0.277E-01
  7.646  0.311E-01
  7.656  0.347E-01
  7.666  0.385E-01
  7.676  0.426E-01
  7.686  0.469E-01
  7.696  0.513E-01
  7.706  0.560E-01
  7.716  0.611E-01
  7.726  0.662E-01
  7.736  0.717E-01
  7.746  0.773E-01
  7.756  0.832E-01
  7.766  0.894E-01
  7.776  0.958E-01
  7.786  0.102E+00
  7.796  0.109E+00
  7.806  0.116E+00
  7.816  0.124E+00
  7.826  0.131E+00
  7.836  0.139E+00
  7.846  0.147E+00
  7.856  0.155E+00
  7.866  0.163E+00
  7.876  0.173E+00
  7.886  0.184E+00
  7.896  0.196E+00
  7.906  0.206E+00
  7.916  0.217E+00
  7.926  0.226E+00
  7.936  0.236E+00
  7.946  0.245E+00
  7.956  0.254E+00
  7.966  0.262E+00
  7.976  0.271E+00
  7.986  0.279E+00
  7.996  0.287E+00
  8.006  0.295E+00
  8.016  0.303E+00
  8.026  0.310E+00
  8.036  0.317E+00
  8.046  0.324E+00
  8.056  0.331E+00
  8.066  0.338E+00
  8.076  0.345E+00
  8.086  0.351E+00
  8.096  0.358E+00
  8.106  0.364E+00
  8.116  0.370E+00
  8.126  0.375E+00
  8.136  0.378E+00
  8.146  0.379E+00
  8.156  0.379E+00
  8.166  0.379E+00
  8.176  0.381E+00
  8.186  0.383E+00
  8.196  0.386E+00
  8.206  0.389E+00
  8.216  0.391E+00
  8.226  0.394E+00
  8.236  0.397E+00
  8.246  0.400E+00
  8.256  0.403E+00
  8.266  0.407E+00
  8.276  0.412E+00
  8.286  0.418E+00
  8.296  0.424E+00
  8.306  0.431E+00
  8.316  0.439E+00