
     Program PWSCF v.7.2 starts on 29Jun2024 at  3:40: 1 

     This program is part of the open-source Quantum ESPRESSO suite
     for quantum simulation of materials; please cite
         "P. Giannozzi et al., J. Phys.:Condens. Matter 21 395502 (2009);
         "P. Giannozzi et al., J. Phys.:Condens. Matter 29 465901 (2017);
         "P. Giannozzi et al., J. Chem. Phys. 152 154105 (2020);
          URL http://www.quantum-espresso.org", 
     in publications or presentations arising from this work. More details at
     http://www.quantum-espresso.org/quote

     Parallel version (MPI), running on   560 processors

     MPI processes distributed on     5 nodes
     225914 MiB available memory on the printing compute node when the environment starts
 
     Reading input from 1.Cu_vac_in_ZnS.relax.qp1.in.part2

     Current dimensions of program PWSCF are:
     Max number of different atomic species (ntypx) = 10
     Max number of k-points (npk) =  40000
     Max angular momentum in pseudopotentials (lmaxx) =  4

     File ./out/Cu_vac_qp1.update deleted, as requested

     File ./out/Cu_vac_qp1.bfgs deleted, as requested
     file S.pbe-n-kjpaw_psl.1.0.0.UPF: wavefunction(s)  3S 3P renormalized
     file Zn.pbe-dnl-kjpaw_psl.1.0.0.UPF: wavefunction(s)  4S 3D renormalized
     file Cu.pbe-spn-kjpaw_psl.1.0.0.UPF: wavefunction(s)  4S 3P 3D renormalized
 
     K-points division:     npool     =       5
     R & G space division:  proc/nbgrp/npool/nimage =     112
     Subspace diagonalization in iterative solution of the eigenvalue problem:
     one sub-group per band group will be used
     scalapack distributed-memory algorithm (size of sub-group:  3*  3 procs)

 
     Parallelization info
     --------------------
     sticks:   dense  smooth     PW     G-vecs:    dense   smooth      PW
     Min         180     180     46                19282    19282    2562
     Max         181     181     47                19291    19291    2573
     Sum       20217   20217   5249              2160009  2160009  287777
 
     Using Slab Decomposition
 


     bravais-lattice index     =            1
     lattice parameter (alat)  =      20.5686  a.u.
     unit-cell volume          =    8701.8437 (a.u.)^3
     number of atoms/cell      =           63
     number of atomic types    =            3
     number of electrons       =       576.00
     number of Kohn-Sham states=          346
     kinetic-energy cutoff     =     150.0000  Ry
     charge density cutoff     =     600.0000  Ry
     scf convergence threshold =      1.0E-08
     mixing beta               =       0.7000
     number of iterations used =            8  plain     mixing
     energy convergence thresh.=      1.0E-05
     force convergence thresh. =      1.0E-04
     Exchange-correlation= SLA  PW   PBX  PBC
                           (   1   4   3   4   0   0   0)
     nstep                     =           50


     celldm(1)=  20.568554  celldm(2)=   0.000000  celldm(3)=   0.000000
     celldm(4)=   0.000000  celldm(5)=   0.000000  celldm(6)=   0.000000

     crystal axes: (cart. coord. in units of alat)
               a(1) = (   1.000000   0.000000   0.000000 )  
               a(2) = (   0.000000   1.000000   0.000000 )  
               a(3) = (   0.000000   0.000000   1.000000 )  

     reciprocal axes: (cart. coord. in units 2 pi/alat)
               b(1) = (  1.000000  0.000000  0.000000 )  
               b(2) = (  0.000000  1.000000  0.000000 )  
               b(3) = (  0.000000  0.000000  1.000000 )  


     PseudoPot. # 1 for S  read from file:
     /arf/home/amuhaymin/pseudo/S.pbe-n-kjpaw_psl.1.0.0.UPF
     MD5 check sum: fb45dfebcf3e72a4e1bd4a866ec2e262
     Pseudo is Projector augmented-wave + core cor, Zval =  6.0
     Generated using &quot;atomic&quot; code by A. Dal Corso  v.6.3
     Shape of augmentation charge: PSQ
     Using radial grid of 1151 points,  6 beta functions with: 
                l(1) =   0
                l(2) =   0
                l(3) =   1
                l(4) =   1
                l(5) =   2
                l(6) =   2
     Q(r) pseudized with 0 coefficients 


     PseudoPot. # 2 for Zn read from file:
     /arf/home/amuhaymin/pseudo/Zn.pbe-dnl-kjpaw_psl.1.0.0.UPF
     MD5 check sum: c608214d9520ac179f507641260889e3
     Pseudo is Projector augmented-wave + core cor, Zval = 12.0
     Generated using &quot;atomic&quot; code by A. Dal Corso  v.6.2.2
     Shape of augmentation charge: PSQ
     Using radial grid of 1201 points,  6 beta functions with: 
                l(1) =   0
                l(2) =   0
                l(3) =   1
                l(4) =   1
                l(5) =   2
                l(6) =   2
     Q(r) pseudized with 0 coefficients 


     PseudoPot. # 3 for Cu read from file:
     /arf/home/amuhaymin/pseudo/Cu.pbe-spn-kjpaw_psl.1.0.0.UPF
     MD5 check sum: e7cbaad2f97193e5fe23251a619a52b0
     Pseudo is Projector augmented-wave + core cor, Zval = 19.0
     Generated using &quot;atomic&quot; code by A. Dal Corso  v.6.3
     Shape of augmentation charge: PSQ
     Using radial grid of 1199 points,  6 beta functions with: 
                l(1) =   0
                l(2) =   0
                l(3) =   1
                l(4) =   1
                l(5) =   2
                l(6) =   2
     Q(r) pseudized with 0 coefficients 


     atomic species   valence    mass     pseudopotential
        S              6.00    32.06500     S ( 1.00)
        Zn            12.00    65.38000     Zn( 1.00)
        Cu            19.00    63.54600     Cu( 1.00)

     Starting magnetic structure 
     atomic species   magnetization
        S            0.000
        Zn           0.000
        Cu           0.105

      6 Sym. Ops. (no inversion) found


                                    s                        frac. trans.

      isym =  1     identity                                     

 cryst.   s( 1) = (     1          0          0      )
                  (     0          1          0      )
                  (     0          0          1      )

 cart.    s( 1) = (  1.0000000  0.0000000  0.0000000 )
                  (  0.0000000  1.0000000  0.0000000 )
                  (  0.0000000  0.0000000  1.0000000 )


      isym =  2     120 deg rotation - cart. axis [-1,-1,-1]     

 cryst.   s( 2) = (     0          0          1      )
                  (     1          0          0      )
                  (     0          1          0      )

 cart.    s( 2) = (  0.0000000  1.0000000  0.0000000 )
                  (  0.0000000  0.0000000  1.0000000 )
                  (  1.0000000  0.0000000  0.0000000 )


      isym =  3     120 deg rotation - cart. axis [1,1,1]        

 cryst.   s( 3) = (     0          1          0      )
                  (     0          0          1      )
                  (     1          0          0      )

 cart.    s( 3) = (  0.0000000  0.0000000  1.0000000 )
                  (  1.0000000  0.0000000  0.0000000 )
                  (  0.0000000  1.0000000  0.0000000 )


      isym =  4     inv. 180 deg rotation - cart. axis [1,-1,0]  

 cryst.   s( 4) = (     0          1          0      )
                  (     1          0          0      )
                  (     0          0          1      )

 cart.    s( 4) = (  0.0000000  1.0000000  0.0000000 )
                  (  1.0000000  0.0000000  0.0000000 )
                  (  0.0000000  0.0000000  1.0000000 )


      isym =  5     inv. 180 deg rotation - cart. axis [-1,0,1]  

 cryst.   s( 5) = (     0          0          1      )
                  (     0          1          0      )
                  (     1          0          0      )

 cart.    s( 5) = (  0.0000000  0.0000000  1.0000000 )
                  (  0.0000000  1.0000000  0.0000000 )
                  (  1.0000000  0.0000000  0.0000000 )


      isym =  6     inv. 180 deg rotation - cart. axis [0,1,-1]  

 cryst.   s( 6) = (     1          0          0      )
                  (     0          0          1      )
                  (     0          1          0      )

 cart.    s( 6) = (  1.0000000  0.0000000  0.0000000 )
                  (  0.0000000  0.0000000  1.0000000 )
                  (  0.0000000  1.0000000  0.0000000 )


     point group C_3v (3m)  
     there are  3 classes
     the character table:

       E     2C3   3s_v 
A_1    1.00  1.00  1.00
A_2    1.00  1.00 -1.00
E      2.00 -1.00  0.00

     the symmetry operations in each class and the name of the first element:

     E        1
          identity                                               
     2C3      2    3
          120 deg rotation - cart. axis [-1,-1,-1]               
     3s_v     4    5    6
          inv. 180 deg rotation - cart. axis [1,-1,0]            

   Cartesian axes

     site n.     atom                  positions (alat units)
         1           Zn  tau(   1) = (   0.0003359   0.0003359   0.0003359  )
         2           Zn  tau(   2) = (   0.0007924   0.2499957   0.2499957  )
         3           Zn  tau(   3) = (   0.2499957   0.0007924   0.2499957  )
         4           Zn  tau(   4) = (   0.2499957   0.2499957   0.0007924  )
         5           S   tau(   5) = (   0.1253288   0.3748354   0.3748354  )
         6           S   tau(   6) = (   0.1248580   0.1248580   0.1248580  )
         7           S   tau(   7) = (   0.3748354   0.3748354   0.1253288  )
         8           S   tau(   8) = (   0.3748354   0.1253288   0.3748354  )
         9           Zn  tau(   9) = (   0.0025035   0.0025035   0.4988741  )
        10           Zn  tau(  10) = (   0.0026522   0.2474780   0.7504670  )
        11           Zn  tau(  11) = (   0.2474780   0.0026522   0.7504670  )
        12           Zn  tau(  12) = (   0.2524861   0.2524861   0.5013026  )
        13           S   tau(  13) = (   0.1245827   0.3746701   0.8753520  )
        14           S   tau(  14) = (   0.1255960   0.1255960   0.6240385  )
        15           S   tau(  15) = (   0.3761935   0.3761935   0.6259080  )
        16           S   tau(  16) = (   0.3746701   0.1245827   0.8753520  )
        17           Zn  tau(  17) = (   0.0025035   0.4988741   0.0025035  )
        18           Zn  tau(  18) = (   0.0026522   0.7504670   0.2474780  )
        19           Zn  tau(  19) = (   0.2524861   0.5013026   0.2524861  )
        20           Zn  tau(  20) = (   0.2474780   0.7504670   0.0026522  )
        21           S   tau(  21) = (   0.1245827   0.8753520   0.3746701  )
        22           S   tau(  22) = (   0.1255960   0.6240385   0.1255960  )
        23           S   tau(  23) = (   0.3746701   0.8753520   0.1245827  )
        24           S   tau(  24) = (   0.3761935   0.6259080   0.3761935  )
        25           Zn  tau(  25) = (   0.0039331   0.5003141   0.5003141  )
        26           Zn  tau(  26) = (   0.0033416   0.7487308   0.7487308  )
        27           Zn  tau(  27) = (   0.2492191   0.4964154   0.7470607  )
        28           Zn  tau(  28) = (   0.2492191   0.7470607   0.4964154  )
        29           S   tau(  29) = (   0.1245381   0.8747573   0.8747573  )
        30           S   tau(  30) = (   0.1259908   0.6249128   0.6249128  )
        31           S   tau(  31) = (   0.3726561   0.8768241   0.6222656  )
        32           S   tau(  32) = (   0.3726561   0.6222656   0.8768241  )
        33           Zn  tau(  33) = (   0.4988741   0.0025035   0.0025035  )
        34           Zn  tau(  34) = (   0.5013026   0.2524861   0.2524861  )
        35           Zn  tau(  35) = (   0.7504670   0.0026522   0.2474780  )
        36           Zn  tau(  36) = (   0.7504670   0.2474780   0.0026522  )
        37           S   tau(  37) = (   0.6259080   0.3761935   0.3761935  )
        38           S   tau(  38) = (   0.6240385   0.1255960   0.1255960  )
        39           S   tau(  39) = (   0.8753520   0.3746701   0.1245827  )
        40           S   tau(  40) = (   0.8753520   0.1245827   0.3746701  )
        41           Zn  tau(  41) = (   0.5003141   0.0039331   0.5003141  )
        42           Zn  tau(  42) = (   0.4964154   0.2492191   0.7470607  )
        43           Zn  tau(  43) = (   0.7487308   0.0033416   0.7487308  )
        44           Zn  tau(  44) = (   0.7470607   0.2492191   0.4964154  )
        45           S   tau(  45) = (   0.6222656   0.3726561   0.8768241  )
        46           S   tau(  46) = (   0.6249128   0.1259908   0.6249128  )
        47           S   tau(  47) = (   0.8768241   0.3726561   0.6222656  )
        48           S   tau(  48) = (   0.8747573   0.1245381   0.8747573  )
        49           Zn  tau(  49) = (   0.5003141   0.5003141   0.0039331  )
        50           Zn  tau(  50) = (   0.4964154   0.7470607   0.2492191  )
        51           Zn  tau(  51) = (   0.7470607   0.4964154   0.2492191  )
        52           Zn  tau(  52) = (   0.7487308   0.7487308   0.0033416  )
        53           S   tau(  53) = (   0.6222656   0.8768241   0.3726561  )
        54           S   tau(  54) = (   0.6249128   0.6249128   0.1259908  )
        55           S   tau(  55) = (   0.8747573   0.8747573   0.1245381  )
        56           S   tau(  56) = (   0.8768241   0.6222656   0.3726561  )
        57           Cu  tau(  57) = (   0.4700209   0.4700209   0.4700209  )
        58           Zn  tau(  58) = (   0.4685465   0.7793025   0.7793025  )
        59           Zn  tau(  59) = (   0.7793025   0.4685465   0.7793025  )
        60           Zn  tau(  60) = (   0.7793025   0.7793025   0.4685465  )
        61           S   tau(  61) = (   0.6267302   0.8759595   0.8759595  )
        62           S   tau(  62) = (   0.8759595   0.8759595   0.6267302  )
        63           S   tau(  63) = (   0.8759595   0.6267302   0.8759595  )

   Crystallographic axes

     site n.     atom                  positions (cryst. coord.)
         1           Zn  tau(   1) = (  0.0003359  0.0003359  0.0003359  )
         2           Zn  tau(   2) = (  0.0007924  0.2499957  0.2499957  )
         3           Zn  tau(   3) = (  0.2499957  0.0007924  0.2499957  )
         4           Zn  tau(   4) = (  0.2499957  0.2499957  0.0007924  )
         5           S   tau(   5) = (  0.1253288  0.3748354  0.3748354  )
         6           S   tau(   6) = (  0.1248580  0.1248580  0.1248580  )
         7           S   tau(   7) = (  0.3748354  0.3748354  0.1253288  )
         8           S   tau(   8) = (  0.3748354  0.1253288  0.3748354  )
         9           Zn  tau(   9) = (  0.0025035  0.0025035  0.4988741  )
        10           Zn  tau(  10) = (  0.0026522  0.2474780  0.7504670  )
        11           Zn  tau(  11) = (  0.2474780  0.0026522  0.7504670  )
        12           Zn  tau(  12) = (  0.2524861  0.2524861  0.5013026  )
        13           S   tau(  13) = (  0.1245827  0.3746701  0.8753520  )
        14           S   tau(  14) = (  0.1255960  0.1255960  0.6240385  )
        15           S   tau(  15) = (  0.3761935  0.3761935  0.6259080  )
        16           S   tau(  16) = (  0.3746701  0.1245827  0.8753520  )
        17           Zn  tau(  17) = (  0.0025035  0.4988741  0.0025035  )
        18           Zn  tau(  18) = (  0.0026522  0.7504670  0.2474780  )
        19           Zn  tau(  19) = (  0.2524861  0.5013026  0.2524861  )
        20           Zn  tau(  20) = (  0.2474780  0.7504670  0.0026522  )
        21           S   tau(  21) = (  0.1245827  0.8753520  0.3746701  )
        22           S   tau(  22) = (  0.1255960  0.6240385  0.1255960  )
        23           S   tau(  23) = (  0.3746701  0.8753520  0.1245827  )
        24           S   tau(  24) = (  0.3761935  0.6259080  0.3761935  )
        25           Zn  tau(  25) = (  0.0039331  0.5003141  0.5003141  )
        26           Zn  tau(  26) = (  0.0033416  0.7487308  0.7487308  )
        27           Zn  tau(  27) = (  0.2492191  0.4964154  0.7470607  )
        28           Zn  tau(  28) = (  0.2492191  0.7470607  0.4964154  )
        29           S   tau(  29) = (  0.1245381  0.8747573  0.8747573  )
        30           S   tau(  30) = (  0.1259908  0.6249128  0.6249128  )
        31           S   tau(  31) = (  0.3726561  0.8768241  0.6222656  )
        32           S   tau(  32) = (  0.3726561  0.6222656  0.8768241  )
        33           Zn  tau(  33) = (  0.4988741  0.0025035  0.0025035  )
        34           Zn  tau(  34) = (  0.5013026  0.2524861  0.2524861  )
        35           Zn  tau(  35) = (  0.7504670  0.0026522  0.2474780  )
        36           Zn  tau(  36) = (  0.7504670  0.2474780  0.0026522  )
        37           S   tau(  37) = (  0.6259080  0.3761935  0.3761935  )
        38           S   tau(  38) = (  0.6240385  0.1255960  0.1255960  )
        39           S   tau(  39) = (  0.8753520  0.3746701  0.1245827  )
        40           S   tau(  40) = (  0.8753520  0.1245827  0.3746701  )
        41           Zn  tau(  41) = (  0.5003141  0.0039331  0.5003141  )
        42           Zn  tau(  42) = (  0.4964154  0.2492191  0.7470607  )
        43           Zn  tau(  43) = (  0.7487308  0.0033416  0.7487308  )
        44           Zn  tau(  44) = (  0.7470607  0.2492191  0.4964154  )
        45           S   tau(  45) = (  0.6222656  0.3726561  0.8768241  )
        46           S   tau(  46) = (  0.6249128  0.1259908  0.6249128  )
        47           S   tau(  47) = (  0.8768241  0.3726561  0.6222656  )
        48           S   tau(  48) = (  0.8747573  0.1245381  0.8747573  )
        49           Zn  tau(  49) = (  0.5003141  0.5003141  0.0039331  )
        50           Zn  tau(  50) = (  0.4964154  0.7470607  0.2492191  )
        51           Zn  tau(  51) = (  0.7470607  0.4964154  0.2492191  )
        52           Zn  tau(  52) = (  0.7487308  0.7487308  0.0033416  )
        53           S   tau(  53) = (  0.6222656  0.8768241  0.3726561  )
        54           S   tau(  54) = (  0.6249128  0.6249128  0.1259908  )
        55           S   tau(  55) = (  0.8747573  0.8747573  0.1245381  )
        56           S   tau(  56) = (  0.8768241  0.6222656  0.3726561  )
        57           Cu  tau(  57) = (  0.4700209  0.4700209  0.4700209  )
        58           Zn  tau(  58) = (  0.4685465  0.7793025  0.7793025  )
        59           Zn  tau(  59) = (  0.7793025  0.4685465  0.7793025  )
        60           Zn  tau(  60) = (  0.7793025  0.7793025  0.4685465  )
        61           S   tau(  61) = (  0.6267302  0.8759595  0.8759595  )
        62           S   tau(  62) = (  0.8759595  0.8759595  0.6267302  )
        63           S   tau(  63) = (  0.8759595  0.6267302  0.8759595  )

     number of k points=    13  Gaussian smearing, width (Ry)=  0.0010
                       cart. coord. in units 2pi/alat
        k(    1) = (   0.0000000   0.0000000   0.0000000), wk =   0.0156250
        k(    2) = (   0.0000000   0.0000000   0.2500000), wk =   0.0937500
        k(    3) = (   0.0000000   0.0000000  -0.5000000), wk =   0.0468750
        k(    4) = (   0.0000000   0.2500000   0.2500000), wk =   0.0937500
        k(    5) = (   0.0000000   0.2500000  -0.5000000), wk =   0.1875000
        k(    6) = (   0.0000000  -0.5000000  -0.5000000), wk =   0.0468750
        k(    7) = (   0.2500000   0.2500000   0.2500000), wk =   0.0312500
        k(    8) = (   0.2500000   0.2500000  -0.5000000), wk =   0.0937500
        k(    9) = (   0.2500000  -0.5000000  -0.5000000), wk =   0.0937500
        k(   10) = (  -0.5000000  -0.5000000  -0.5000000), wk =   0.0156250
        k(   11) = (  -0.2500000   0.0000000   0.2500000), wk =   0.0937500
        k(   12) = (   0.2500000  -0.2500000   0.2500000), wk =   0.0937500
        k(   13) = (   0.2500000  -0.2500000  -0.5000000), wk =   0.0937500

                       cryst. coord.
        k(    1) = (   0.0000000   0.0000000   0.0000000), wk =   0.0156250
        k(    2) = (   0.0000000   0.0000000   0.2500000), wk =   0.0937500
        k(    3) = (   0.0000000   0.0000000  -0.5000000), wk =   0.0468750
        k(    4) = (   0.0000000   0.2500000   0.2500000), wk =   0.0937500
        k(    5) = (   0.0000000   0.2500000  -0.5000000), wk =   0.1875000
        k(    6) = (   0.0000000  -0.5000000  -0.5000000), wk =   0.0468750
        k(    7) = (   0.2500000   0.2500000   0.2500000), wk =   0.0312500
        k(    8) = (   0.2500000   0.2500000  -0.5000000), wk =   0.0937500
        k(    9) = (   0.2500000  -0.5000000  -0.5000000), wk =   0.0937500
        k(   10) = (  -0.5000000  -0.5000000  -0.5000000), wk =   0.0156250
        k(   11) = (  -0.2500000   0.0000000   0.2500000), wk =   0.0937500
        k(   12) = (   0.2500000  -0.2500000   0.2500000), wk =   0.0937500
        k(   13) = (   0.2500000  -0.2500000  -0.5000000), wk =   0.0937500

     Dense  grid:  2160009 G-vectors     FFT dimensions: ( 162, 162, 162)

     Dynamical RAM for                 wfc:      12.72 MB

     Dynamical RAM for     wfc (w. buffer):      89.07 MB

     Dynamical RAM for           str. fact:       0.88 MB

     Dynamical RAM for           local pot:       0.00 MB

     Dynamical RAM for          nlocal pot:      41.70 MB

     Dynamical RAM for                qrad:       5.90 MB

     Dynamical RAM for          rho,v,vnew:       4.17 MB

     Dynamical RAM for               rhoin:       1.39 MB

     Dynamical RAM for            rho*nmix:       9.42 MB

     Dynamical RAM for           G-vectors:       1.25 MB

     Dynamical RAM for          h,s,v(r/c):       2.42 MB

     Dynamical RAM for          <psi|beta>:       5.99 MB

     Dynamical RAM for                 psi:      25.45 MB

     Dynamical RAM for                hpsi:      25.45 MB

     Dynamical RAM for                spsi:      25.45 MB

     Dynamical RAM for      wfcinit/wfcrot:      34.28 MB

     Dynamical RAM for           addusdens:      13.30 MB

     Dynamical RAM for          addusforce:      16.84 MB

     Dynamical RAM for         addusstress:      12.15 MB

     Estimated static dynamical RAM per process >     147.93 MB

     Estimated max dynamical RAM per process >     242.10 MB

     Estimated total dynamical RAM >     128.28 GB
     Generating pointlists ...
     new r_m :   0.0844 (alat units)  1.7369 (a.u.) for type    1
     new r_m :   0.0859 (alat units)  1.7669 (a.u.) for type    2
     new r_m :   0.0844 (alat units)  1.7369 (a.u.) for type    3

     Initial potential from superposition of free atoms

     starting charge     576.8832, renormalised to     576.0000
     Starting wfcs are  413 randomized atomic wfcs
     Checking if some PAW data can be deallocated... 
       PAW data deallocated on  284 nodes for type:  1
       PAW data deallocated on  284 nodes for type:  2
       PAW data deallocated on  552 nodes for type:  3

     total cpu time spent up to now is       14.5 secs

     Self-consistent Calculation

     iteration #  1     ecut=   150.00 Ry     beta= 0.70
     Davidson diagonalization with overlap

---- Real-time Memory Report at c_bands before calling an iterative solver
          1359 MiB given to the printing process from OS
             0 MiB allocation reported by mallinfo(arena+hblkhd)
        195560 MiB available memory on the node where the printing process lives
------------------
     ethr =  1.00E-02,  avg # of iterations =  4.6

     Threshold (ethr) on eigenvalues was too large:
     Diagonalizing with lowered threshold

     Davidson diagonalization with overlap

---- Real-time Memory Report at c_bands before calling an iterative solver
          1471 MiB given to the printing process from OS
             0 MiB allocation reported by mallinfo(arena+hblkhd)
        192373 MiB available memory on the node where the printing process lives
------------------
     ethr =  4.45E-04,  avg # of iterations =  2.5

     total cpu time spent up to now is       66.2 secs

     total energy              =  -10100.53776232 Ry
     estimated scf accuracy    <       2.52644448 Ry

     total magnetization       =     0.03 Bohr mag/cell
     absolute magnetization    =     0.73 Bohr mag/cell

     iteration #  2     ecut=   150.00 Ry     beta= 0.70
     Davidson diagonalization with overlap

---- Real-time Memory Report at c_bands before calling an iterative solver
          1484 MiB given to the printing process from OS
             0 MiB allocation reported by mallinfo(arena+hblkhd)
        192371 MiB available memory on the node where the printing process lives
------------------
     ethr =  4.39E-04,  avg # of iterations =  3.6

     total cpu time spent up to now is       98.0 secs

     total energy              =  -10100.82617155 Ry
     estimated scf accuracy    <       2.54556890 Ry

     total magnetization       =     0.00 Bohr mag/cell
     absolute magnetization    =     0.13 Bohr mag/cell

     iteration #  3     ecut=   150.00 Ry     beta= 0.70
     Davidson diagonalization with overlap

---- Real-time Memory Report at c_bands before calling an iterative solver
          1501 MiB given to the printing process from OS
             0 MiB allocation reported by mallinfo(arena+hblkhd)
        191910 MiB available memory on the node where the printing process lives
------------------
     ethr =  4.39E-04,  avg # of iterations =  4.8

     total cpu time spent up to now is      122.3 secs

     total energy              =  -10100.43827630 Ry
     estimated scf accuracy    <       5.56996912 Ry

     total magnetization       =     1.06 Bohr mag/cell
     absolute magnetization    =     1.44 Bohr mag/cell

     iteration #  4     ecut=   150.00 Ry     beta= 0.70
     Davidson diagonalization with overlap

---- Real-time Memory Report at c_bands before calling an iterative solver
          1515 MiB given to the printing process from OS
             0 MiB allocation reported by mallinfo(arena+hblkhd)
        191700 MiB available memory on the node where the printing process lives
------------------
     ethr =  4.39E-04,  avg # of iterations =  3.0

     total cpu time spent up to now is      144.9 secs

     total energy              =  -10101.47747682 Ry
     estimated scf accuracy    <       0.48934936 Ry

     total magnetization       =    -0.00 Bohr mag/cell
     absolute magnetization    =     0.12 Bohr mag/cell

     iteration #  5     ecut=   150.00 Ry     beta= 0.70
     Davidson diagonalization with overlap

---- Real-time Memory Report at c_bands before calling an iterative solver
          1526 MiB given to the printing process from OS
             0 MiB allocation reported by mallinfo(arena+hblkhd)
        191508 MiB available memory on the node where the printing process lives
------------------
     c_bands:  1 eigenvalues not converged
     ethr =  8.50E-05,  avg # of iterations =  7.6

     total cpu time spent up to now is      173.6 secs

     total energy              =  -10101.47435939 Ry
     estimated scf accuracy    <       0.28280718 Ry

     total magnetization       =    -0.00 Bohr mag/cell
     absolute magnetization    =     0.09 Bohr mag/cell

     iteration #  6     ecut=   150.00 Ry     beta= 0.70
     Davidson diagonalization with overlap

---- Real-time Memory Report at c_bands before calling an iterative solver
          1541 MiB given to the printing process from OS
             0 MiB allocation reported by mallinfo(arena+hblkhd)
        191312 MiB available memory on the node where the printing process lives
------------------
     ethr =  4.91E-05,  avg # of iterations =  3.0

     total cpu time spent up to now is      196.8 secs

     total energy              =  -10101.47129708 Ry
     estimated scf accuracy    <       0.12482821 Ry

     total magnetization       =     0.00 Bohr mag/cell
     absolute magnetization    =     0.06 Bohr mag/cell

     iteration #  7     ecut=   150.00 Ry     beta= 0.70
     Davidson diagonalization with overlap

---- Real-time Memory Report at c_bands before calling an iterative solver
          1551 MiB given to the printing process from OS
             0 MiB allocation reported by mallinfo(arena+hblkhd)
        191083 MiB available memory on the node where the printing process lives
------------------
     c_bands:  1 eigenvalues not converged
     c_bands:  2 eigenvalues not converged
     c_bands:  4 eigenvalues not converged
     ethr =  2.17E-05,  avg # of iterations = 14.5

     total cpu time spent up to now is      231.2 secs

     total energy              =  -10101.46413645 Ry
     estimated scf accuracy    <       0.05138428 Ry

     total magnetization       =    -0.00 Bohr mag/cell
     absolute magnetization    =     0.05 Bohr mag/cell

     iteration #  8     ecut=   150.00 Ry     beta= 0.70
     Davidson diagonalization with overlap

---- Real-time Memory Report at c_bands before calling an iterative solver
          1569 MiB given to the printing process from OS
             0 MiB allocation reported by mallinfo(arena+hblkhd)
        190901 MiB available memory on the node where the printing process lives
------------------
     c_bands:  1 eigenvalues not converged
     c_bands:  2 eigenvalues not converged
     ethr =  8.92E-06,  avg # of iterations = 16.0

     total cpu time spent up to now is      265.2 secs

     total energy              =  -10101.46795920 Ry
     estimated scf accuracy    <       0.00368752 Ry

     total magnetization       =     0.00 Bohr mag/cell
     absolute magnetization    =     0.03 Bohr mag/cell

     iteration #  9     ecut=   150.00 Ry     beta= 0.70
     Davidson diagonalization with overlap

---- Real-time Memory Report at c_bands before calling an iterative solver
          1585 MiB given to the printing process from OS
             0 MiB allocation reported by mallinfo(arena+hblkhd)
        190659 MiB available memory on the node where the printing process lives
------------------
     c_bands:  1 eigenvalues not converged
     c_bands:  1 eigenvalues not converged
     ethr =  6.40E-07,  avg # of iterations = 13.1

     total cpu time spent up to now is      307.3 secs

     total energy              =  -10101.46918032 Ry
     estimated scf accuracy    <       0.00108595 Ry

     total magnetization       =     0.00 Bohr mag/cell
     absolute magnetization    =     0.01 Bohr mag/cell

     iteration # 10     ecut=   150.00 Ry     beta= 0.70
     Davidson diagonalization with overlap

---- Real-time Memory Report at c_bands before calling an iterative solver
          1607 MiB given to the printing process from OS
             0 MiB allocation reported by mallinfo(arena+hblkhd)
        190417 MiB available memory on the node where the printing process lives
------------------
     ethr =  1.89E-07,  avg # of iterations =  2.7

     total cpu time spent up to now is      330.6 secs

     total energy              =  -10101.46897835 Ry
     estimated scf accuracy    <       0.00186081 Ry

     total magnetization       =    -0.00 Bohr mag/cell
     absolute magnetization    =     0.00 Bohr mag/cell

     iteration # 11     ecut=   150.00 Ry     beta= 0.70
     Davidson diagonalization with overlap

---- Real-time Memory Report at c_bands before calling an iterative solver
          1614 MiB given to the printing process from OS
             0 MiB allocation reported by mallinfo(arena+hblkhd)
        190222 MiB available memory on the node where the printing process lives
------------------
     ethr =  1.89E-07,  avg # of iterations =  2.9

     total cpu time spent up to now is      353.4 secs

     total energy              =  -10101.46892190 Ry
     estimated scf accuracy    <       0.00052768 Ry

     total magnetization       =     0.00 Bohr mag/cell
     absolute magnetization    =     0.00 Bohr mag/cell

     iteration # 12     ecut=   150.00 Ry     beta= 0.70
     Davidson diagonalization with overlap

---- Real-time Memory Report at c_bands before calling an iterative solver
          1619 MiB given to the printing process from OS
             0 MiB allocation reported by mallinfo(arena+hblkhd)
        190251 MiB available memory on the node where the printing process lives
------------------
     ethr =  9.16E-08,  avg # of iterations =  5.4

     total cpu time spent up to now is      377.1 secs

     total energy              =  -10101.46897376 Ry
     estimated scf accuracy    <       0.00002154 Ry

     total magnetization       =    -0.00 Bohr mag/cell
     absolute magnetization    =     0.00 Bohr mag/cell

     iteration # 13     ecut=   150.00 Ry     beta= 0.70
     Davidson diagonalization with overlap

---- Real-time Memory Report at c_bands before calling an iterative solver
          1627 MiB given to the printing process from OS
             0 MiB allocation reported by mallinfo(arena+hblkhd)
        190212 MiB available memory on the node where the printing process lives
------------------
     ethr =  3.74E-09,  avg # of iterations =  6.0

     total cpu time spent up to now is      404.6 secs

     total energy              =  -10101.46897988 Ry
     estimated scf accuracy    <       0.00000143 Ry

     total magnetization       =    -0.00 Bohr mag/cell
     absolute magnetization    =     0.00 Bohr mag/cell

     iteration # 14     ecut=   150.00 Ry     beta= 0.70
     Davidson diagonalization with overlap

---- Real-time Memory Report at c_bands before calling an iterative solver
          1633 MiB given to the printing process from OS
             0 MiB allocation reported by mallinfo(arena+hblkhd)
        190236 MiB available memory on the node where the printing process lives
------------------
     ethr =  2.48E-10,  avg # of iterations =  4.3

     total cpu time spent up to now is      431.9 secs

     total energy              =  -10101.46898028 Ry
     estimated scf accuracy    <       0.00000015 Ry

     total magnetization       =    -0.00 Bohr mag/cell
     absolute magnetization    =     0.00 Bohr mag/cell

     iteration # 15     ecut=   150.00 Ry     beta= 0.70
     Davidson diagonalization with overlap

---- Real-time Memory Report at c_bands before calling an iterative solver
          1638 MiB given to the printing process from OS
             0 MiB allocation reported by mallinfo(arena+hblkhd)
        190181 MiB available memory on the node where the printing process lives
------------------
     ethr =  2.66E-11,  avg # of iterations =  3.6

     total cpu time spent up to now is      458.9 secs

     total energy              =  -10101.46898032 Ry
     estimated scf accuracy    <       0.00000001 Ry

     total magnetization       =    -0.00 Bohr mag/cell
     absolute magnetization    =     0.00 Bohr mag/cell

     iteration # 16     ecut=   150.00 Ry     beta= 0.70
     Davidson diagonalization with overlap

---- Real-time Memory Report at c_bands before calling an iterative solver
          1645 MiB given to the printing process from OS
             0 MiB allocation reported by mallinfo(arena+hblkhd)
        190186 MiB available memory on the node where the printing process lives
------------------
     ethr =  2.31E-12,  avg # of iterations =  4.3
 
     Magnetic moment per site  (integrated on atomic sphere of radius R)
     atom   1 (R=0.086)  charge=  9.9936  magn=  0.0000
     atom   2 (R=0.086)  charge=  9.9935  magn= -0.0000
     atom   3 (R=0.086)  charge=  9.9935  magn= -0.0000
     atom   4 (R=0.086)  charge=  9.9935  magn= -0.0000
     atom   5 (R=0.084)  charge=  3.6055  magn=  0.0000
     atom   6 (R=0.084)  charge=  3.6071  magn= -0.0000
     atom   7 (R=0.084)  charge=  3.6055  magn=  0.0000
     atom   8 (R=0.084)  charge=  3.6055  magn=  0.0000
     atom   9 (R=0.086)  charge=  9.9957  magn= -0.0000
     atom  10 (R=0.086)  charge=  9.9951  magn= -0.0000
     atom  11 (R=0.086)  charge=  9.9951  magn= -0.0000
     atom  12 (R=0.086)  charge=  9.9934  magn= -0.0000
     atom  13 (R=0.084)  charge=  3.6067  magn=  0.0000
     atom  14 (R=0.084)  charge=  3.6121  magn=  0.0000
     atom  15 (R=0.084)  charge=  3.6202  magn=  0.0000
     atom  16 (R=0.084)  charge=  3.6067  magn=  0.0000
     atom  17 (R=0.086)  charge=  9.9957  magn= -0.0000
     atom  18 (R=0.086)  charge=  9.9951  magn= -0.0000
     atom  19 (R=0.086)  charge=  9.9934  magn= -0.0000
     atom  20 (R=0.086)  charge=  9.9951  magn= -0.0000
     atom  21 (R=0.084)  charge=  3.6067  magn=  0.0000
     atom  22 (R=0.084)  charge=  3.6121  magn=  0.0000
     atom  23 (R=0.084)  charge=  3.6067  magn=  0.0000
     atom  24 (R=0.084)  charge=  3.6202  magn=  0.0000
     atom  25 (R=0.086)  charge=  9.9951  magn= -0.0000
     atom  26 (R=0.086)  charge=  9.9954  magn= -0.0000
     atom  27 (R=0.086)  charge=  9.9978  magn= -0.0000
     atom  28 (R=0.086)  charge=  9.9978  magn= -0.0000
     atom  29 (R=0.084)  charge=  3.6055  magn=  0.0000
     atom  30 (R=0.084)  charge=  3.6132  magn= -0.0000
     atom  31 (R=0.084)  charge=  3.6072  magn= -0.0000
     atom  32 (R=0.084)  charge=  3.6072  magn= -0.0000
     atom  33 (R=0.086)  charge=  9.9957  magn= -0.0000
     atom  34 (R=0.086)  charge=  9.9934  magn= -0.0000
     atom  35 (R=0.086)  charge=  9.9951  magn= -0.0000
     atom  36 (R=0.086)  charge=  9.9951  magn= -0.0000
     atom  37 (R=0.084)  charge=  3.6202  magn=  0.0000
     atom  38 (R=0.084)  charge=  3.6121  magn=  0.0000
     atom  39 (R=0.084)  charge=  3.6067  magn=  0.0000
     atom  40 (R=0.084)  charge=  3.6067  magn=  0.0000
     atom  41 (R=0.086)  charge=  9.9951  magn= -0.0000
     atom  42 (R=0.086)  charge=  9.9978  magn= -0.0000
     atom  43 (R=0.086)  charge=  9.9954  magn= -0.0000
     atom  44 (R=0.086)  charge=  9.9978  magn= -0.0000
     atom  45 (R=0.084)  charge=  3.6072  magn= -0.0000
     atom  46 (R=0.084)  charge=  3.6132  magn= -0.0000
     atom  47 (R=0.084)  charge=  3.6072  magn= -0.0000
     atom  48 (R=0.084)  charge=  3.6055  magn=  0.0000
     atom  49 (R=0.086)  charge=  9.9951  magn= -0.0000
     atom  50 (R=0.086)  charge=  9.9978  magn= -0.0000
     atom  51 (R=0.086)  charge=  9.9978  magn= -0.0000
     atom  52 (R=0.086)  charge=  9.9954  magn= -0.0000
     atom  53 (R=0.084)  charge=  3.6072  magn= -0.0000
     atom  54 (R=0.084)  charge=  3.6132  magn= -0.0000
     atom  55 (R=0.084)  charge=  3.6055  magn=  0.0000
     atom  56 (R=0.084)  charge=  3.6072  magn= -0.0000
     atom  57 (R=0.084)  charge= 17.1755  magn=  0.0000
     atom  58 (R=0.086)  charge= 10.0108  magn= -0.0000
     atom  59 (R=0.086)  charge= 10.0108  magn= -0.0000
     atom  60 (R=0.086)  charge= 10.0108  magn= -0.0000
     atom  61 (R=0.084)  charge=  3.6068  magn= -0.0000
     atom  62 (R=0.084)  charge=  3.6068  magn= -0.0000
     atom  63 (R=0.084)  charge=  3.6068  magn= -0.0000

     total cpu time spent up to now is      491.3 secs

     End of self-consistent calculation

 ------ SPIN UP ------------


          k = 0.0000 0.0000 0.0000 (269825 PWs)   bands (ev):

  -104.9029 -62.3301 -62.2905 -62.2905  -7.6383  -7.1767  -7.1767  -7.1176
    -7.1176  -7.1079  -7.0146  -6.9093  -6.9093  -6.8430  -6.8424  -6.7919
    -6.7919  -6.7857  -6.7857  -6.7367  -6.7265  -6.7265  -6.7061  -6.6734
    -6.6734  -6.6687  -6.5248  -6.5104  -6.5104  -6.4510  -6.4059  -6.4059
    -6.3893  -6.3266  -6.3266  -1.1456  -1.1448  -1.1448  -1.1277  -1.1233
    -1.1233  -1.1167  -1.1167  -1.1035  -1.0325  -1.0160  -1.0160  -0.9954
    -0.9954  -0.9852  -0.8532  -0.8532  -0.8433  -0.7985  -0.7985  -0.7974
    -0.7780  -0.7780  -0.7596  -0.7536  -0.7536  -0.7415  -0.7390  -0.7390
    -0.7337  -0.7277  -0.7277  -0.7273  -0.7094  -0.7094  -0.6983  -0.6983
    -0.6937  -0.6872  -0.6831  -0.6831  -0.6773  -0.6716  -0.6716  -0.6661
    -0.6612  -0.6559  -0.6559  -0.6498  -0.6479  -0.6479  -0.6471  -0.6446
    -0.6402  -0.6402  -0.6298  -0.6298  -0.6233  -0.6119  -0.6119  -0.6117
    -0.6023  -0.6023  -0.5951  -0.5897  -0.5897  -0.5582  -0.5568  -0.5568
    -0.5541  -0.5475  -0.5475  -0.5398  -0.5345  -0.5219  -0.5219  -0.5170
    -0.5170  -0.4994  -0.4969  -0.4969  -0.4880  -0.4880  -0.4785  -0.4785
    -0.4740  -0.4684  -0.4684  -0.4566  -0.4268  -0.4069  -0.4069  -0.4066
    -0.4011  -0.4011  -0.3875  -0.3841  -0.3841  -0.3740  -0.3740  -0.3656
    -0.3630  -0.3563  -0.3563  -0.3536  -0.3491  -0.3491  -0.3330  -0.3308
    -0.3308  -0.3278  -0.3278  -0.3275  -0.3198  -0.3182  -0.3174  -0.3174
    -0.3006  -0.3006  -0.2877  -0.2877  -0.2750  -0.2715  -0.2715  -0.2710
    -0.2603  -0.2603  -0.2574  -0.2574  -0.2481  -0.2467  -0.2467  -0.2464
    -0.2321  -0.2300  -0.2300  -0.2117  -0.1966  -0.1966  -0.1924  -0.1861
    -0.1861  -0.1760  -0.1465  -0.1465  -0.1307  -0.1292  -0.1292  -0.0989
     0.0039   0.0282   0.0282   0.0328   0.0606   0.0606   0.0813   0.3113
     0.3230   0.3230   0.8606   0.8606   0.9039   0.9087   0.9587   0.9587
     1.0054   1.0054   1.1235   1.3585   1.3585   1.3828   1.4729   1.4729
     1.5031   1.5187   1.5559   1.5559   1.6713   1.6713   1.9493   2.5454
     2.5454   2.6169   2.6272   2.6272   2.6364   2.6865   2.6865   2.7303
     2.7750   2.7750   2.7828   2.8193   2.8193   2.8216   2.8726   2.8726
     2.9037   2.9097   2.9097   2.9310   2.9425   2.9425   2.9717   3.0213
     3.0213   3.0269   3.1412   3.1412   3.1554   3.2778   3.2778   3.2921
     3.6319   3.6319   3.7289   3.8105   3.8105   4.0869   4.1199   4.1199
     4.1622   4.2107   4.2107   4.2272   4.2690   4.2690   4.3365   4.3823
     4.3823   4.4052   4.4052   4.4389   4.4389   4.4421   4.4913   4.5349
     4.5349   4.5506   4.5506   4.5520   4.5607   4.5979   4.5979   4.6303
     5.0632   5.1669   5.1669   5.2918   5.2918   5.3277   5.9916   5.9916
     7.3245   8.0240   8.6202   8.6412   8.6412   8.7400   8.9983   8.9983
     9.3094   9.3094   9.3442   9.5316   9.5612   9.5612   9.6475   9.6475
     9.7930   9.8839   9.8839   9.9666   9.9666   9.9832  10.0174  10.0174
    10.0244  10.0659  10.1269  10.1269  10.1402  10.1763  10.1763  10.1890
    10.3280  10.3280  10.4591  10.6603  10.6603  10.8175  11.1093  11.1236
    11.1236  11.2858  11.2858  11.3266  11.3266  11.3287  11.4638  11.7610
    11.7610  11.7890  11.7981  11.7981  11.8793  11.9461  11.9802  11.9802
    12.0084  12.0253

     occupation numbers 
     1.0000   1.0000   1.0000   1.0000   1.0000   1.0000   1.0000   1.0000
     1.0000   1.0000   1.0000   1.0000   1.0000   1.0000   1.0000   1.0000
     1.0000   1.0000   1.0000   1.0000   1.0000   1.0000   1.0000   1.0000
     1.0000   1.0000   1.0000   1.0000   1.0000   1.0000   1.0000   1.0000
     1.0000   1.0000   1.0000   1.0000   1.0000   1.0000   1.0000   1.0000
     1.0000   1.0000   1.0000   1.0000   1.0000   1.0000   1.0000   1.0000
     1.0000   1.0000   1.0000   1.0000   1.0000   1.0000   1.0000   1.0000
     1.0000   1.0000   1.0000   1.0000   1.0000   1.0000   1.0000   1.0000
     1.0000   1.0000   1.0000   1.0000   1.0000   1.0000   1.0000   1.0000
     1.0000   1.0000   1.0000   1.0000   1.0000   1.0000   1.0000   1.0000
     1.0000   1.0000   1.0000   1.0000   1.0000   1.0000   1.0000   1.0000
     1.0000   1.0000   1.0000   1.0000   1.0000   1.0000   1.0000   1.0000
     1.0000   1.0000   1.0000   1.0000   1.0000   1.0000   1.0000   1.0000
     1.0000   1.0000   1.0000   1.0000   1.0000   1.0000   1.0000   1.0000
     1.0000   1.0000   1.0000   1.0000   1.0000   1.0000   1.0000   1.0000
     1.0000   1.0000   1.0000   1.0000   1.0000   1.0000   1.0000   1.0000
     1.0000   1.0000   1.0000   1.0000   1.0000   1.0000   1.0000   1.0000
     1.0000   1.0000   1.0000   1.0000   1.0000   1.0000   1.0000   1.0000
     1.0000   1.0000   1.0000   1.0000   1.0000   1.0000   1.0000   1.0000
     1.0000   1.0000   1.0000   1.0000   1.0000   1.0000   1.0000   1.0000
     1.0000   1.0000   1.0000   1.0000   1.0000   1.0000   1.0000   1.0000
     1.0000   1.0000   1.0000   1.0000   1.0000   1.0000   1.0000   1.0000
     1.0000   1.0000   1.0000   1.0000   1.0000   1.0000   1.0000   1.0000
     1.0000   1.0000   1.0000   1.0000   1.0000   1.0000   1.0000   1.0000
     1.0000   1.0000   1.0000   1.0000   1.0000   1.0000   1.0000   1.0000
     1.0000   1.0000   1.0000   1.0000   1.0000   1.0000   1.0000   1.0000
     1.0000   1.0000   1.0000   1.0000   1.0000   1.0000   1.0000   1.0000
     1.0000   1.0000   1.0000   1.0000   1.0000   1.0000   1.0000   1.0000
     1.0000   1.0000   1.0000   1.0000   1.0000   1.0000   1.0000   1.0000
     1.0000   1.0000   1.0000   1.0000   1.0000   1.0000   1.0000   1.0000
     1.0000   1.0000   1.0000   1.0000   1.0000   1.0000   1.0000   1.0000
     1.0000   1.0000   1.0000   1.0000   1.0000   1.0000   1.0000   1.0000
     1.0000   1.0000   1.0000   1.0000   1.0000   1.0000   1.0000   1.0000
     1.0000   1.0000   1.0000   1.0000   1.0000   1.0000   1.0000   1.0000
     1.0000   1.0000   1.0000   1.0000   1.0000   1.0000   1.0000   1.0000
     1.0000   1.0000   1.0000   1.0000   1.0000   1.0000   1.0000   1.0000
     0.0000   0.0000   0.0000   0.0000   0.0000   0.0000   0.0000   0.0000
     0.0000   0.0000   0.0000   0.0000   0.0000   0.0000   0.0000   0.0000
     0.0000   0.0000   0.0000   0.0000   0.0000   0.0000   0.0000   0.0000
     0.0000   0.0000   0.0000   0.0000   0.0000   0.0000   0.0000   0.0000
     0.0000   0.0000   0.0000   0.0000   0.0000   0.0000   0.0000   0.0000
     0.0000   0.0000   0.0000   0.0000   0.0000   0.0000   0.0000   0.0000
     0.0000   0.0000   0.0000   0.0000   0.0000   0.0000   0.0000   0.0000
     0.0000   0.0000

          k = 0.0000 0.0000 0.2500 (269876 PWs)   bands (ev):

  -104.9029 -62.3301 -62.2905 -62.2905  -7.6027  -7.3295  -7.1592  -7.1049
    -7.0970  -7.0390  -6.9664  -6.9656  -6.9136  -6.9042  -6.8455  -6.8255
    -6.8192  -6.7789  -6.7471  -6.7435  -6.7149  -6.6924  -6.6716  -6.6555
    -6.6464  -6.6061  -6.5400  -6.5109  -6.5031  -6.4627  -6.4274  -6.4237
    -6.3959  -6.3493  -6.3295  -1.1457  -1.1438  -1.1430  -1.1274  -1.1228
    -1.1217  -1.1165  -1.1157  -1.1053  -1.0288  -1.0161  -1.0128  -0.9984
    -0.9949  -0.9879  -0.8468  -0.8412  -0.8320  -0.8031  -0.7980  -0.7917
    -0.7776  -0.7740  -0.7598  -0.7561  -0.7513  -0.7413  -0.7410  -0.7379
    -0.7328  -0.7317  -0.7296  -0.7259  -0.7142  -0.7126  -0.7077  -0.7035
    -0.6992  -0.6969  -0.6869  -0.6858  -0.6787  -0.6766  -0.6724  -0.6723
    -0.6663  -0.6661  -0.6581  -0.6575  -0.6493  -0.6490  -0.6460  -0.6454
    -0.6412  -0.6398  -0.6348  -0.6320  -0.6250  -0.6179  -0.6170  -0.6088
    -0.6052  -0.5959  -0.5938  -0.5932  -0.5878  -0.5873  -0.5762  -0.5755
    -0.5681  -0.5538  -0.5467  -0.5386  -0.5384  -0.5292  -0.5275  -0.5141
    -0.5059  -0.5021  -0.4932  -0.4860  -0.4858  -0.4786  -0.4763  -0.4604
    -0.4586  -0.4473  -0.4347  -0.4276  -0.4162  -0.4087  -0.4061  -0.3983
    -0.3968  -0.3922  -0.3919  -0.3843  -0.3708  -0.3708  -0.3608  -0.3603
    -0.3587  -0.3567  -0.3546  -0.3537  -0.3493  -0.3405  -0.3401  -0.3359
    -0.3357  -0.3313  -0.3274  -0.3227  -0.3191  -0.3186  -0.3138  -0.3095
    -0.3058  -0.2901  -0.2892  -0.2839  -0.2814  -0.2763  -0.2731  -0.2671
    -0.2668  -0.2609  -0.2582  -0.2550  -0.2511  -0.2444  -0.2422  -0.2385
    -0.2383  -0.2342  -0.2288  -0.2142  -0.2125  -0.2018  -0.1991  -0.1918
    -0.1893  -0.1868  -0.1775  -0.1719  -0.1613  -0.1562  -0.1298  -0.1219
    -0.0040  -0.0001   0.0009   0.0069   0.0309   0.0326   0.2846   0.4832
     0.4881   0.4987   0.8551   0.8655   0.9108   0.9148   0.9500   0.9583
     0.9765   1.0510   1.1071   1.1566   1.1804   1.2181   1.2264   1.2742
     1.3771   1.3955   1.5553   1.8374   1.8837   1.8907   1.9814   2.1952
     2.3971   2.4352   2.4735   2.5316   2.5555   2.5861   2.5892   2.6482
     2.6553   2.6855   2.7359   2.7654   2.8498   2.8850   2.8853   2.8968
     3.0703   3.1072   3.1123   3.1415   3.1474   3.1976   3.2068   3.2191
     3.2528   3.2580   3.2612   3.3059   3.3128   3.3274   3.3385   3.4356
     3.5798   3.6437   3.7802   3.8164   3.8665   3.8994   3.9008   4.0389
     4.0781   4.1240   4.1314   4.2028   4.2268   4.2478   4.2675   4.2801
     4.2980   4.3234   4.3420   4.3562   4.3996   4.4153   4.4798   4.4913
     4.5270   4.5498   4.5596   4.5671   4.5897   4.6259   4.6323   4.6517
     4.9183   5.0712   5.1011   5.1824   5.2809   5.2843   5.9113   5.9707
     7.6971   8.1833   8.7947   8.8222   8.8248   8.9418   9.0948   9.1383
     9.2141   9.3035   9.3689   9.4744   9.5352   9.6590   9.6782   9.7182
     9.7431   9.8005   9.8912   9.9238   9.9556   9.9659  10.0018  10.0566
    10.0938  10.1047  10.1457  10.1820  10.1994  10.2030  10.2413  10.2498
    10.3187  10.3993  10.4195  10.6270  10.6776  10.7167  10.8070  10.8680
    10.8719  10.9969  11.0688  11.1878  11.2704  11.3703  11.4637  11.5599
    11.5719  11.6225  11.6484  11.7591  11.7887  11.7984  11.8204  11.8368
    11.8730  11.9194

     occupation numbers 
     1.0000   1.0000   1.0000   1.0000   1.0000   1.0000   1.0000   1.0000
     1.0000   1.0000   1.0000   1.0000   1.0000   1.0000   1.0000   1.0000
     1.0000   1.0000   1.0000   1.0000   1.0000   1.0000   1.0000   1.0000
     1.0000   1.0000   1.0000   1.0000   1.0000   1.0000   1.0000   1.0000
     1.0000   1.0000   1.0000   1.0000   1.0000   1.0000   1.0000   1.0000
     1.0000   1.0000   1.0000   1.0000   1.0000   1.0000   1.0000   1.0000
     1.0000   1.0000   1.0000   1.0000   1.0000   1.0000   1.0000   1.0000
     1.0000   1.0000   1.0000   1.0000   1.0000   1.0000   1.0000   1.0000
     1.0000   1.0000   1.0000   1.0000   1.0000   1.0000   1.0000   1.0000
     1.0000   1.0000   1.0000   1.0000   1.0000   1.0000   1.0000   1.0000
     1.0000   1.0000   1.0000   1.0000   1.0000   1.0000   1.0000   1.0000
     1.0000   1.0000   1.0000   1.0000   1.0000   1.0000   1.0000   1.0000
     1.0000   1.0000   1.0000   1.0000   1.0000   1.0000   1.0000   1.0000
     1.0000   1.0000   1.0000   1.0000   1.0000   1.0000   1.0000   1.0000
     1.0000   1.0000   1.0000   1.0000   1.0000   1.0000   1.0000   1.0000
     1.0000   1.0000   1.0000   1.0000   1.0000   1.0000   1.0000   1.0000
     1.0000   1.0000   1.0000   1.0000   1.0000   1.0000   1.0000   1.0000
     1.0000   1.0000   1.0000   1.0000   1.0000   1.0000   1.0000   1.0000
     1.0000   1.0000   1.0000   1.0000   1.0000   1.0000   1.0000   1.0000
     1.0000   1.0000   1.0000   1.0000   1.0000   1.0000   1.0000   1.0000
     1.0000   1.0000   1.0000   1.0000   1.0000   1.0000   1.0000   1.0000
     1.0000   1.0000   1.0000   1.0000   1.0000   1.0000   1.0000   1.0000
     1.0000   1.0000   1.0000   1.0000   1.0000   1.0000   1.0000   1.0000
     1.0000   1.0000   1.0000   1.0000   1.0000   1.0000   1.0000   1.0000
     1.0000   1.0000   1.0000   1.0000   1.0000   1.0000   1.0000   1.0000
     1.0000   1.0000   1.0000   1.0000   1.0000   1.0000   1.0000   1.0000
     1.0000   1.0000   1.0000   1.0000   1.0000   1.0000   1.0000   1.0000
     1.0000   1.0000   1.0000   1.0000   1.0000   1.0000   1.0000   1.0000
     1.0000   1.0000   1.0000   1.0000   1.0000   1.0000   1.0000   1.0000
     1.0000   1.0000   1.0000   1.0000   1.0000   1.0000   1.0000   1.0000
     1.0000   1.0000   1.0000   1.0000   1.0000   1.0000   1.0000   1.0000
     1.0000   1.0000   1.0000   1.0000   1.0000   1.0000   1.0000   1.0000
     1.0000   1.0000   1.0000   1.0000   1.0000   1.0000   1.0000   1.0000
     1.0000   1.0000   1.0000   1.0000   1.0000   1.0000   1.0000   1.0000
     1.0000   1.0000   1.0000   1.0000   1.0000   1.0000   1.0000   1.0000
     1.0000   1.0000   1.0000   1.0000   1.0000   1.0000   1.0000   1.0000
     0.0000   0.0000   0.0000   0.0000   0.0000   0.0000   0.0000   0.0000
     0.0000   0.0000   0.0000   0.0000   0.0000   0.0000   0.0000   0.0000
     0.0000   0.0000   0.0000   0.0000   0.0000   0.0000   0.0000   0.0000
     0.0000   0.0000   0.0000   0.0000   0.0000   0.0000   0.0000   0.0000
     0.0000   0.0000   0.0000   0.0000   0.0000   0.0000   0.0000   0.0000
     0.0000   0.0000   0.0000   0.0000   0.0000   0.0000   0.0000   0.0000
     0.0000   0.0000   0.0000   0.0000   0.0000   0.0000   0.0000   0.0000
     0.0000   0.0000

          k = 0.0000 0.0000-0.5000 (270152 PWs)   bands (ev):

  -104.9029 -62.3301 -62.2905 -62.2905  -7.5224  -7.4649  -7.1338  -7.0712
    -7.0536  -7.0316  -7.0174  -6.9996  -6.9614  -6.9313  -6.8352  -6.8223
    -6.7927  -6.7618  -6.7453  -6.7302  -6.7138  -6.6932  -6.6466  -6.6183
    -6.5959  -6.5927  -6.5263  -6.5183  -6.4836  -6.4784  -6.4684  -6.4544
    -6.3968  -6.3781  -6.3321  -1.1453  -1.1431  -1.1410  -1.1275  -1.1219
    -1.1201  -1.1162  -1.1143  -1.1075  -1.0243  -1.0161  -1.0085  -1.0024
    -0.9944  -0.9917  -0.8406  -0.8213  -0.8095  -0.8026  -0.7959  -0.7856
    -0.7839  -0.7770  -0.7710  -0.7587  -0.7552  -0.7528  -0.7437  -0.7420
    -0.7342  -0.7324  -0.7321  -0.7259  -0.7194  -0.7175  -0.7125  -0.7084
    -0.7031  -0.7013  -0.6892  -0.6875  -0.6812  -0.6767  -0.6766  -0.6753
    -0.6716  -0.6699  -0.6653  -0.6598  -0.6541  -0.6522  -0.6502  -0.6484
    -0.6434  -0.6410  -0.6375  -0.6357  -0.6289  -0.6233  -0.6135  -0.6104
    -0.6045  -0.5960  -0.5942  -0.5925  -0.5886  -0.5795  -0.5781  -0.5696
    -0.5620  -0.5620  -0.5503  -0.5458  -0.5385  -0.5345  -0.5310  -0.5210
    -0.5000  -0.4952  -0.4880  -0.4872  -0.4813  -0.4671  -0.4564  -0.4540
    -0.4512  -0.4317  -0.4292  -0.4259  -0.4094  -0.4080  -0.4038  -0.3971
    -0.3945  -0.3936  -0.3904  -0.3808  -0.3779  -0.3731  -0.3710  -0.3696
    -0.3572  -0.3558  -0.3548  -0.3494  -0.3471  -0.3440  -0.3423  -0.3401
    -0.3343  -0.3331  -0.3295  -0.3250  -0.3221  -0.3197  -0.3182  -0.3114
    -0.3075  -0.2947  -0.2908  -0.2879  -0.2804  -0.2797  -0.2752  -0.2748
    -0.2691  -0.2679  -0.2596  -0.2567  -0.2567  -0.2484  -0.2445  -0.2386
    -0.2341  -0.2336  -0.2309  -0.2174  -0.2133  -0.2020  -0.1983  -0.1841
    -0.1815  -0.1797  -0.1759  -0.1437  -0.1215  -0.1106  -0.1008  -0.0837
    -0.0724  -0.0672  -0.0502  -0.0455  -0.0019   0.0064   0.6092   0.6970
     0.7715   0.7983   0.8046   0.8442   0.8454   0.8675   0.9055   0.9119
     0.9471   0.9619   0.9668   0.9869   0.9874   1.0337   1.0556   1.2645
     1.2650   1.4000   1.5623   1.7188   2.1390   2.1738   2.1829   2.2234
     2.2888   2.2897   2.3253   2.3789   2.4318   2.4373   2.4638   2.4660
     2.4885   2.6111   2.7060   2.7448   2.9553   2.9577   2.9725   2.9945
     3.0699   3.0760   3.1024   3.1370   3.2874   3.3206   3.4501   3.5405
     3.5555   3.5605   3.5725   3.6159   3.6161   3.6543   3.6746   3.7000
     3.7101   3.7250   3.7403   3.7405   3.7515   3.7596   3.7975   3.8091
     3.8137   3.8564   3.8678   3.8887   3.9146   4.0317   4.1936   4.2082
     4.2489   4.3100   4.3607   4.3776   4.3932   4.4110   4.4456   4.4783
     4.5092   4.5243   4.5343   4.5504   4.5649   4.5804   4.5961   4.8168
     4.8749   4.9725   4.9736   5.0941   5.2578   5.2780   5.8517   5.9494
     8.2831   8.4582   8.5228   8.9616   9.0900   9.1405   9.1603   9.3428
     9.4052   9.4218   9.4341   9.4648   9.5376   9.5907   9.5950   9.6781
     9.7309   9.7368   9.7969   9.8966   9.9240   9.9708  10.0298  10.0573
    10.0616  10.1005  10.1145  10.1157  10.1958  10.2340  10.2778  10.3066
    10.4925  10.5293  10.5527  10.6069  10.6385  10.6406  10.7196  10.7237
    10.7582  10.8429  10.8958  10.9880  11.0495  11.0664  11.1710  11.2650
    11.3829  11.4658  11.4986  11.5361  11.6095  11.6763  11.7169  11.7223
    11.7566  11.8032

     occupation numbers 
     1.0000   1.0000   1.0000   1.0000   1.0000   1.0000   1.0000   1.0000
     1.0000   1.0000   1.0000   1.0000   1.0000   1.0000   1.0000   1.0000
     1.0000   1.0000   1.0000   1.0000   1.0000   1.0000   1.0000   1.0000
     1.0000   1.0000   1.0000   1.0000   1.0000   1.0000   1.0000   1.0000
     1.0000   1.0000   1.0000   1.0000   1.0000   1.0000   1.0000   1.0000
     1.0000   1.0000   1.0000   1.0000   1.0000   1.0000   1.0000   1.0000
     1.0000   1.0000   1.0000   1.0000   1.0000   1.0000   1.0000   1.0000
     1.0000   1.0000   1.0000   1.0000   1.0000   1.0000   1.0000   1.0000
     1.0000   1.0000   1.0000   1.0000   1.0000   1.0000   1.0000   1.0000
     1.0000   1.0000   1.0000   1.0000   1.0000   1.0000   1.0000   1.0000
     1.0000   1.0000   1.0000   1.0000   1.0000   1.0000   1.0000   1.0000
     1.0000   1.0000   1.0000   1.0000   1.0000   1.0000   1.0000   1.0000
     1.0000   1.0000   1.0000   1.0000   1.0000   1.0000   1.0000   1.0000
     1.0000   1.0000   1.0000   1.0000   1.0000   1.0000   1.0000   1.0000
     1.0000   1.0000   1.0000   1.0000   1.0000   1.0000   1.0000   1.0000
     1.0000   1.0000   1.0000   1.0000   1.0000   1.0000   1.0000   1.0000
     1.0000   1.0000   1.0000   1.0000   1.0000   1.0000   1.0000   1.0000
     1.0000   1.0000   1.0000   1.0000   1.0000   1.0000   1.0000   1.0000
     1.0000   1.0000   1.0000   1.0000   1.0000   1.0000   1.0000   1.0000
     1.0000   1.0000   1.0000   1.0000   1.0000   1.0000   1.0000   1.0000
     1.0000   1.0000   1.0000   1.0000   1.0000   1.0000   1.0000   1.0000
     1.0000   1.0000   1.0000   1.0000   1.0000   1.0000   1.0000   1.0000
     1.0000   1.0000   1.0000   1.0000   1.0000   1.0000   1.0000   1.0000
     1.0000   1.0000   1.0000   1.0000   1.0000   1.0000   1.0000   1.0000
     1.0000   1.0000   1.0000   1.0000   1.0000   1.0000   1.0000   1.0000
     1.0000   1.0000   1.0000   1.0000   1.0000   1.0000   1.0000   1.0000
     1.0000   1.0000   1.0000   1.0000   1.0000   1.0000   1.0000   1.0000
     1.0000   1.0000   1.0000   1.0000   1.0000   1.0000   1.0000   1.0000
     1.0000   1.0000   1.0000   1.0000   1.0000   1.0000   1.0000   1.0000
     1.0000   1.0000   1.0000   1.0000   1.0000   1.0000   1.0000   1.0000
     1.0000   1.0000   1.0000   1.0000   1.0000   1.0000   1.0000   1.0000
     1.0000   1.0000   1.0000   1.0000   1.0000   1.0000   1.0000   1.0000
     1.0000   1.0000   1.0000   1.0000   1.0000   1.0000   1.0000   1.0000
     1.0000   1.0000   1.0000   1.0000   1.0000   1.0000   1.0000   1.0000
     1.0000   1.0000   1.0000   1.0000   1.0000   1.0000   1.0000   1.0000
     1.0000   1.0000   1.0000   1.0000   1.0000   1.0000   1.0000   1.0000
     0.0000   0.0000   0.0000   0.0000   0.0000   0.0000   0.0000   0.0000
     0.0000   0.0000   0.0000   0.0000   0.0000   0.0000   0.0000   0.0000
     0.0000   0.0000   0.0000   0.0000   0.0000   0.0000   0.0000   0.0000
     0.0000   0.0000   0.0000   0.0000   0.0000   0.0000   0.0000   0.0000
     0.0000   0.0000   0.0000   0.0000   0.0000   0.0000   0.0000   0.0000
     0.0000   0.0000   0.0000   0.0000   0.0000   0.0000   0.0000   0.0000
     0.0000   0.0000   0.0000   0.0000   0.0000   0.0000   0.0000   0.0000
     0.0000   0.0000

          k = 0.0000 0.2500 0.2500 (269929 PWs)   bands (ev):

  -104.9029 -62.3301 -62.2905 -62.2905  -7.5675  -7.3287  -7.2720  -7.1212
    -7.0694  -7.0471  -6.9596  -6.9375  -6.9154  -6.8930  -6.8833  -6.8200
    -6.7872  -6.7814  -6.7717  -6.7020  -6.6968  -6.6810  -6.6598  -6.6357
    -6.6281  -6.5913  -6.5317  -6.5265  -6.4918  -6.4784  -6.4453  -6.4320
    -6.4117  -6.3624  -6.3419  -1.1458  -1.1426  -1.1425  -1.1258  -1.1222
    -1.1208  -1.1162  -1.1149  -1.1064  -1.0253  -1.0139  -1.0130  -0.9992
    -0.9963  -0.9894  -0.8363  -0.8308  -0.8239  -0.8055  -0.7947  -0.7912
    -0.7741  -0.7715  -0.7636  -0.7527  -0.7497  -0.7430  -0.7395  -0.7374
    -0.7367  -0.7349  -0.7320  -0.7236  -0.7230  -0.7173  -0.7077  -0.7072
    -0.7065  -0.7038  -0.6905  -0.6874  -0.6838  -0.6813  -0.6755  -0.6751
    -0.6689  -0.6678  -0.6630  -0.6596  -0.6558  -0.6516  -0.6492  -0.6467
    -0.6419  -0.6377  -0.6333  -0.6314  -0.6263  -0.6186  -0.6137  -0.6108
    -0.6019  -0.5968  -0.5956  -0.5947  -0.5819  -0.5809  -0.5720  -0.5701
    -0.5670  -0.5556  -0.5522  -0.5510  -0.5434  -0.5365  -0.5274  -0.5267
    -0.5170  -0.5104  -0.4978  -0.4971  -0.4882  -0.4872  -0.4778  -0.4731
    -0.4492  -0.4384  -0.4318  -0.4189  -0.4184  -0.4091  -0.4081  -0.3995
    -0.3985  -0.3937  -0.3893  -0.3840  -0.3784  -0.3700  -0.3652  -0.3608
    -0.3587  -0.3560  -0.3533  -0.3498  -0.3493  -0.3460  -0.3421  -0.3343
    -0.3315  -0.3288  -0.3277  -0.3212  -0.3200  -0.3193  -0.3143  -0.3059
    -0.3031  -0.2977  -0.2959  -0.2880  -0.2819  -0.2771  -0.2694  -0.2684
    -0.2615  -0.2599  -0.2526  -0.2482  -0.2476  -0.2431  -0.2418  -0.2391
    -0.2369  -0.2206  -0.2167  -0.2098  -0.2085  -0.1988  -0.1939  -0.1822
    -0.1795  -0.1756  -0.1698  -0.1682  -0.1391  -0.1226  -0.1092  -0.0837
    -0.0455  -0.0203  -0.0146  -0.0028   0.0174   0.0254   0.2777   0.4336
     0.7036   0.7600   0.7967   0.8415   0.8796   0.9108   0.9361   0.9493
     0.9528   0.9971   0.9983   1.0375   1.0739   1.1469   1.1955   1.3905
     1.5095   1.5099   1.5635   1.6004   1.7905   1.7963   2.0177   2.0715
     2.3162   2.3727   2.4110   2.4433   2.4854   2.5203   2.5985   2.6360
     2.7035   2.7656   2.7743   2.8611   2.9109   2.9595   2.9953   3.0458
     3.0552   3.0803   3.1320   3.1722   3.1877   3.2408   3.2880   3.2886
     3.3298   3.3453   3.3672   3.3851   3.4458   3.5037   3.5444   3.5452
     3.6102   3.6459   3.6791   3.7957   3.8848   3.9198   3.9206   3.9861
     3.9917   4.0019   4.0685   4.0780   4.1233   4.1448   4.1746   4.2033
     4.2170   4.2560   4.3025   4.3408   4.3606   4.3941   4.4548   4.4635
     4.4807   4.5011   4.5674   4.5739   4.6042   4.6108   4.7046   4.7268
     4.8348   5.0218   5.1027   5.1430   5.2655   5.2694   5.9183   5.9826
     7.9325   8.2973   8.8485   8.8776   9.0447   9.0620   9.2240   9.2610
     9.2860   9.3110   9.3855   9.4357   9.4570   9.6634   9.6698   9.7166
     9.7615   9.7891   9.8028   9.8181   9.8685   9.9024   9.9387   9.9857
     9.9893   9.9902  10.0989  10.1414  10.1755  10.1951  10.2480  10.4366
    10.4762  10.4966  10.5490  10.5597  10.6387  10.7423  10.7771  10.8277
    10.8284  10.9170  10.9737  11.1013  11.1120  11.2687  11.3269  11.3660
    11.4295  11.4877  11.5435  11.6303  11.6504  11.7027  11.7189  11.7555
    11.8398  11.8411

     occupation numbers 
     1.0000   1.0000   1.0000   1.0000   1.0000   1.0000   1.0000   1.0000
     1.0000   1.0000   1.0000   1.0000   1.0000   1.0000   1.0000   1.0000
     1.0000   1.0000   1.0000   1.0000   1.0000   1.0000   1.0000   1.0000
     1.0000   1.0000   1.0000   1.0000   1.0000   1.0000   1.0000   1.0000
     1.0000   1.0000   1.0000   1.0000   1.0000   1.0000   1.0000   1.0000
     1.0000   1.0000   1.0000   1.0000   1.0000   1.0000   1.0000   1.0000
     1.0000   1.0000   1.0000   1.0000   1.0000   1.0000   1.0000   1.0000
     1.0000   1.0000   1.0000   1.0000   1.0000   1.0000   1.0000   1.0000
     1.0000   1.0000   1.0000   1.0000   1.0000   1.0000   1.0000   1.0000
     1.0000   1.0000   1.0000   1.0000   1.0000   1.0000   1.0000   1.0000
     1.0000   1.0000   1.0000   1.0000   1.0000   1.0000   1.0000   1.0000
     1.0000   1.0000   1.0000   1.0000   1.0000   1.0000   1.0000   1.0000
     1.0000   1.0000   1.0000   1.0000   1.0000   1.0000   1.0000   1.0000
     1.0000   1.0000   1.0000   1.0000   1.0000   1.0000   1.0000   1.0000
     1.0000   1.0000   1.0000   1.0000   1.0000   1.0000   1.0000   1.0000
     1.0000   1.0000   1.0000   1.0000   1.0000   1.0000   1.0000   1.0000
     1.0000   1.0000   1.0000   1.0000   1.0000   1.0000   1.0000   1.0000
     1.0000   1.0000   1.0000   1.0000   1.0000   1.0000   1.0000   1.0000
     1.0000   1.0000   1.0000   1.0000   1.0000   1.0000   1.0000   1.0000
     1.0000   1.0000   1.0000   1.0000   1.0000   1.0000   1.0000   1.0000
     1.0000   1.0000   1.0000   1.0000   1.0000   1.0000   1.0000   1.0000
     1.0000   1.0000   1.0000   1.0000   1.0000   1.0000   1.0000   1.0000
     1.0000   1.0000   1.0000   1.0000   1.0000   1.0000   1.0000   1.0000
     1.0000   1.0000   1.0000   1.0000   1.0000   1.0000   1.0000   1.0000
     1.0000   1.0000   1.0000   1.0000   1.0000   1.0000   1.0000   1.0000
     1.0000   1.0000   1.0000   1.0000   1.0000   1.0000   1.0000   1.0000
     1.0000   1.0000   1.0000   1.0000   1.0000   1.0000   1.0000   1.0000
     1.0000   1.0000   1.0000   1.0000   1.0000   1.0000   1.0000   1.0000
     1.0000   1.0000   1.0000   1.0000   1.0000   1.0000   1.0000   1.0000
     1.0000   1.0000   1.0000   1.0000   1.0000   1.0000   1.0000   1.0000
     1.0000   1.0000   1.0000   1.0000   1.0000   1.0000   1.0000   1.0000
     1.0000   1.0000   1.0000   1.0000   1.0000   1.0000   1.0000   1.0000
     1.0000   1.0000   1.0000   1.0000   1.0000   1.0000   1.0000   1.0000
     1.0000   1.0000   1.0000   1.0000   1.0000   1.0000   1.0000   1.0000
     1.0000   1.0000   1.0000   1.0000   1.0000   1.0000   1.0000   1.0000
     1.0000   1.0000   1.0000   1.0000   1.0000   1.0000   1.0000   1.0000
     0.0000   0.0000   0.0000   0.0000   0.0000   0.0000   0.0000   0.0000
     0.0000   0.0000   0.0000   0.0000   0.0000   0.0000   0.0000   0.0000
     0.0000   0.0000   0.0000   0.0000   0.0000   0.0000   0.0000   0.0000
     0.0000   0.0000   0.0000   0.0000   0.0000   0.0000   0.0000   0.0000
     0.0000   0.0000   0.0000   0.0000   0.0000   0.0000   0.0000   0.0000
     0.0000   0.0000   0.0000   0.0000   0.0000   0.0000   0.0000   0.0000
     0.0000   0.0000   0.0000   0.0000   0.0000   0.0000   0.0000   0.0000
     0.0000   0.0000

          k = 0.0000 0.2500-0.5000 (269962 PWs)   bands (ev):

  -104.9029 -62.3301 -62.2905 -62.2905  -7.4903  -7.4351  -7.2446  -7.1752
    -7.0839  -7.0129  -6.9874  -6.9648  -6.9169  -6.8876  -6.8437  -6.8157
    -6.8017  -6.7942  -6.7191  -6.7012  -6.6806  -6.6518  -6.6433  -6.6276
    -6.5942  -6.5745  -6.5355  -6.5238  -6.4998  -6.4869  -6.4739  -6.4553
    -6.4131  -6.3899  -6.3470  -1.1454  -1.1421  -1.1408  -1.1255  -1.1214
    -1.1202  -1.1156  -1.1135  -1.1086  -1.0210  -1.0139  -1.0085  -1.0019
    -0.9967  -0.9931  -0.8308  -0.8195  -0.8069  -0.7973  -0.7911  -0.7842
    -0.7796  -0.7729  -0.7695  -0.7597  -0.7523  -0.7495  -0.7475  -0.7396
    -0.7365  -0.7335  -0.7302  -0.7265  -0.7241  -0.7174  -0.7125  -0.7095
    -0.7056  -0.7022  -0.6995  -0.6901  -0.6883  -0.6823  -0.6792  -0.6751
    -0.6720  -0.6698  -0.6668  -0.6618  -0.6560  -0.6536  -0.6503  -0.6469
    -0.6427  -0.6385  -0.6356  -0.6310  -0.6268  -0.6210  -0.6141  -0.6097
    -0.6041  -0.5981  -0.5917  -0.5870  -0.5832  -0.5813  -0.5755  -0.5677
    -0.5617  -0.5589  -0.5528  -0.5475  -0.5450  -0.5399  -0.5342  -0.5272
    -0.5235  -0.5162  -0.5106  -0.5029  -0.4980  -0.4924  -0.4779  -0.4740
    -0.4670  -0.4572  -0.4473  -0.4332  -0.4154  -0.4107  -0.4036  -0.4009
    -0.3976  -0.3902  -0.3867  -0.3808  -0.3773  -0.3711  -0.3654  -0.3625
    -0.3566  -0.3538  -0.3501  -0.3494  -0.3449  -0.3421  -0.3364  -0.3351
    -0.3331  -0.3283  -0.3266  -0.3244  -0.3205  -0.3154  -0.3113  -0.3023
    -0.3005  -0.2931  -0.2891  -0.2846  -0.2769  -0.2738  -0.2706  -0.2636
    -0.2605  -0.2548  -0.2494  -0.2459  -0.2439  -0.2393  -0.2384  -0.2335
    -0.2286  -0.2255  -0.2169  -0.2099  -0.1970  -0.1931  -0.1857  -0.1826
    -0.1709  -0.1619  -0.1445  -0.1350  -0.1248  -0.1098  -0.0972  -0.0804
    -0.0710  -0.0518  -0.0438  -0.0204  -0.0121   0.0171   0.4820   0.5655
     0.6416   0.6685   0.7511   0.7806   0.8631   0.8826   0.9151   0.9377
     0.9623   1.0408   1.0681   1.0942   1.1379   1.1691   1.2037   1.2883
     1.3154   1.4045   1.5252   1.6325   1.8107   1.8671   1.9860   2.0046
     2.1002   2.2136   2.3436   2.4040   2.5782   2.6037   2.6214   2.6684
     2.7101   2.7314   2.7682   2.8277   2.8723   2.9426   2.9814   3.0675
     3.1424   3.1773   3.2576   3.2794   3.3171   3.3525   3.3761   3.4068
     3.4375   3.4642   3.5151   3.5602   3.5687   3.5851   3.5950   3.6246
     3.6661   3.6916   3.7175   3.7798   3.8231   3.8468   3.8730   3.9152
     3.9315   3.9765   3.9817   4.0080   4.0267   4.0511   4.0888   4.1199
     4.1435   4.1660   4.2195   4.2481   4.2843   4.3263   4.3680   4.3866
     4.4057   4.4637   4.4986   4.5335   4.5743   4.7320   4.7947   4.8453
     4.8789   5.0026   5.0470   5.1025   5.2564   5.3005   5.8878   5.9377
     8.3232   8.5597   8.6241   8.9817   9.0780   9.1484   9.2625   9.3152
     9.3520   9.4126   9.4739   9.5209   9.5484   9.5693   9.6044   9.6750
     9.7284   9.7413   9.7648   9.7747   9.7848   9.8351   9.8634   9.8757
     9.9464  10.0014  10.0722  10.1847  10.2506  10.2862  10.3622  10.4013
    10.4182  10.4429  10.5316  10.5638  10.6219  10.6597  10.7079  10.8283
    10.8926  10.9326  10.9798  11.1135  11.1481  11.2236  11.2541  11.2932
    11.3253  11.3483  11.3634  11.3833  11.4588  11.5317  11.5459  11.6084
    11.6562  11.7178

     occupation numbers 
     1.0000   1.0000   1.0000   1.0000   1.0000   1.0000   1.0000   1.0000
     1.0000   1.0000   1.0000   1.0000   1.0000   1.0000   1.0000   1.0000
     1.0000   1.0000   1.0000   1.0000   1.0000   1.0000   1.0000   1.0000
     1.0000   1.0000   1.0000   1.0000   1.0000   1.0000   1.0000   1.0000
     1.0000   1.0000   1.0000   1.0000   1.0000   1.0000   1.0000   1.0000
     1.0000   1.0000   1.0000   1.0000   1.0000   1.0000   1.0000   1.0000
     1.0000   1.0000   1.0000   1.0000   1.0000   1.0000   1.0000   1.0000
     1.0000   1.0000   1.0000   1.0000   1.0000   1.0000   1.0000   1.0000
     1.0000   1.0000   1.0000   1.0000   1.0000   1.0000   1.0000   1.0000
     1.0000   1.0000   1.0000   1.0000   1.0000   1.0000   1.0000   1.0000
     1.0000   1.0000   1.0000   1.0000   1.0000   1.0000   1.0000   1.0000
     1.0000   1.0000   1.0000   1.0000   1.0000   1.0000   1.0000   1.0000
     1.0000   1.0000   1.0000   1.0000   1.0000   1.0000   1.0000   1.0000
     1.0000   1.0000   1.0000   1.0000   1.0000   1.0000   1.0000   1.0000
     1.0000   1.0000   1.0000   1.0000   1.0000   1.0000   1.0000   1.0000
     1.0000   1.0000   1.0000   1.0000   1.0000   1.0000   1.0000   1.0000
     1.0000   1.0000   1.0000   1.0000   1.0000   1.0000   1.0000   1.0000
     1.0000   1.0000   1.0000   1.0000   1.0000   1.0000   1.0000   1.0000
     1.0000   1.0000   1.0000   1.0000   1.0000   1.0000   1.0000   1.0000
     1.0000   1.0000   1.0000   1.0000   1.0000   1.0000   1.0000   1.0000
     1.0000   1.0000   1.0000   1.0000   1.0000   1.0000   1.0000   1.0000
     1.0000   1.0000   1.0000   1.0000   1.0000   1.0000   1.0000   1.0000
     1.0000   1.0000   1.0000   1.0000   1.0000   1.0000   1.0000   1.0000
     1.0000   1.0000   1.0000   1.0000   1.0000   1.0000   1.0000   1.0000
     1.0000   1.0000   1.0000   1.0000   1.0000   1.0000   1.0000   1.0000
     1.0000   1.0000   1.0000   1.0000   1.0000   1.0000   1.0000   1.0000
     1.0000   1.0000   1.0000   1.0000   1.0000   1.0000   1.0000   1.0000
     1.0000   1.0000   1.0000   1.0000   1.0000   1.0000   1.0000   1.0000
     1.0000   1.0000   1.0000   1.0000   1.0000   1.0000   1.0000   1.0000
     1.0000   1.0000   1.0000   1.0000   1.0000   1.0000   1.0000   1.0000
     1.0000   1.0000   1.0000   1.0000   1.0000   1.0000   1.0000   1.0000
     1.0000   1.0000   1.0000   1.0000   1.0000   1.0000   1.0000   1.0000
     1.0000   1.0000   1.0000   1.0000   1.0000   1.0000   1.0000   1.0000
     1.0000   1.0000   1.0000   1.0000   1.0000   1.0000   1.0000   1.0000
     1.0000   1.0000   1.0000   1.0000   1.0000   1.0000   1.0000   1.0000
     1.0000   1.0000   1.0000   1.0000   1.0000   1.0000   1.0000   1.0000
     0.0000   0.0000   0.0000   0.0000   0.0000   0.0000   0.0000   0.0000
     0.0000   0.0000   0.0000   0.0000   0.0000   0.0000   0.0000   0.0000
     0.0000   0.0000   0.0000   0.0000   0.0000   0.0000   0.0000   0.0000
     0.0000   0.0000   0.0000   0.0000   0.0000   0.0000   0.0000   0.0000
     0.0000   0.0000   0.0000   0.0000   0.0000   0.0000   0.0000   0.0000
     0.0000   0.0000   0.0000   0.0000   0.0000   0.0000   0.0000   0.0000
     0.0000   0.0000   0.0000   0.0000   0.0000   0.0000   0.0000   0.0000
     0.0000   0.0000

          k = 0.0000-0.5000-0.5000 (269920 PWs)   bands (ev):

  -104.9029 -62.3301 -62.2905 -62.2905  -7.4164  -7.3950  -7.3465  -7.2824
    -7.0701  -6.9829  -6.9809  -6.9631  -6.9290  -6.9016  -6.8595  -6.8370
    -6.7803  -6.7057  -6.6966  -6.6942  -6.6693  -6.6411  -6.6210  -6.5976
    -6.5743  -6.5688  -6.5613  -6.5326  -6.5188  -6.5065  -6.4852  -6.4645
    -6.4263  -6.4062  -6.3570  -1.1455  -1.1414  -1.1403  -1.1237  -1.1210
    -1.1198  -1.1153  -1.1123  -1.1100  -1.0169  -1.0097  -1.0094  -1.0031
    -0.9985  -0.9951  -0.8250  -0.8128  -0.7999  -0.7885  -0.7838  -0.7788
    -0.7763  -0.7712  -0.7680  -0.7606  -0.7561  -0.7527  -0.7460  -0.7436
    -0.7402  -0.7338  -0.7332  -0.7281  -0.7188  -0.7170  -0.7149  -0.7074
    -0.7049  -0.7028  -0.7004  -0.6989  -0.6899  -0.6865  -0.6838  -0.6808
    -0.6767  -0.6727  -0.6697  -0.6646  -0.6638  -0.6572  -0.6457  -0.6432
    -0.6384  -0.6329  -0.6291  -0.6278  -0.6277  -0.6217  -0.6159  -0.6146
    -0.6085  -0.5998  -0.5911  -0.5878  -0.5836  -0.5804  -0.5773  -0.5715
    -0.5659  -0.5580  -0.5577  -0.5552  -0.5504  -0.5434  -0.5433  -0.5394
    -0.5346  -0.5186  -0.5138  -0.5108  -0.5076  -0.4971  -0.4966  -0.4843
    -0.4799  -0.4640  -0.4459  -0.4397  -0.4259  -0.4117  -0.4061  -0.4044
    -0.3977  -0.3957  -0.3890  -0.3836  -0.3742  -0.3707  -0.3661  -0.3564
    -0.3528  -0.3518  -0.3489  -0.3461  -0.3427  -0.3412  -0.3359  -0.3318
    -0.3310  -0.3275  -0.3238  -0.3201  -0.3186  -0.3124  -0.3047  -0.2962
    -0.2960  -0.2903  -0.2861  -0.2834  -0.2748  -0.2714  -0.2569  -0.2564
    -0.2546  -0.2520  -0.2443  -0.2426  -0.2415  -0.2357  -0.2353  -0.2277
    -0.2238  -0.2237  -0.2115  -0.2088  -0.2014  -0.1970  -0.1920  -0.1869
    -0.1824  -0.1768  -0.1341  -0.1308  -0.0885  -0.0825  -0.0587  -0.0560
    -0.0496  -0.0335  -0.0263  -0.0018   0.0021   0.0362   0.4609   0.5248
     0.5824   0.6080   0.6337   0.6721   0.7456   0.7578   0.9075   0.9393
     0.9406   1.0920   1.3052   1.3193   1.3329   1.3520   1.3877   1.4015
     1.4664   1.4780   1.5297   1.5342   1.5738   1.6002   1.6596   1.7302
     1.8019   2.0714   2.3798   2.4259   2.4566   2.4576   2.8534   2.9038
     2.9496   2.9912   2.9955   3.0249   3.0575   3.1038   3.1140   3.1416
     3.1461   3.1694   3.1925   3.2208   3.2407   3.2828   3.2972   3.3747
     3.3767   3.4318   3.4697   3.5208   3.5268   3.5507   3.5584   3.5923
     3.6169   3.6360   3.6360   3.6858   3.6925   3.8249   3.8387   3.9003
     3.9498   3.9752   4.0005   4.0278   4.0911   4.1027   4.1236   4.2016
     4.2102   4.2192   4.2587   4.3173   4.3185   4.3397   4.3446   4.3589
     4.3697   4.3745   4.4245   4.4570   4.5302   4.5737   4.5827   4.9183
     5.0078   5.0485   5.1073   5.1074   5.2407   5.3544   5.8751   5.9703
     8.3768   8.7947   8.8084   8.8629   9.0351   9.1258   9.1579   9.2490
     9.3941   9.3987   9.4405   9.4472   9.4752   9.4823   9.4839   9.5714
     9.5860   9.8244   9.8407   9.8428   9.9947  10.0410  10.0604  10.0897
    10.0909  10.1322  10.1482  10.1791  10.1807  10.2320  10.2339  10.2454
    10.2664  10.3053  10.3275  10.3525  10.3717  10.4294  10.4893  10.7474
    10.8192  10.9609  11.1213  11.2090  11.2793  11.3047  11.3587  11.3732
    11.3812  11.4075  11.4351  11.4824  11.5519  11.5818  11.5916  11.6126
    11.6350  11.6538

     occupation numbers 
     1.0000   1.0000   1.0000   1.0000   1.0000   1.0000   1.0000   1.0000
     1.0000   1.0000   1.0000   1.0000   1.0000   1.0000   1.0000   1.0000
     1.0000   1.0000   1.0000   1.0000   1.0000   1.0000   1.0000   1.0000
     1.0000   1.0000   1.0000   1.0000   1.0000   1.0000   1.0000   1.0000
     1.0000   1.0000   1.0000   1.0000   1.0000   1.0000   1.0000   1.0000
     1.0000   1.0000   1.0000   1.0000   1.0000   1.0000   1.0000   1.0000
     1.0000   1.0000   1.0000   1.0000   1.0000   1.0000   1.0000   1.0000
     1.0000   1.0000   1.0000   1.0000   1.0000   1.0000   1.0000   1.0000
     1.0000   1.0000   1.0000   1.0000   1.0000   1.0000   1.0000   1.0000
     1.0000   1.0000   1.0000   1.0000   1.0000   1.0000   1.0000   1.0000
     1.0000   1.0000   1.0000   1.0000   1.0000   1.0000   1.0000   1.0000
     1.0000   1.0000   1.0000   1.0000   1.0000   1.0000   1.0000   1.0000
     1.0000   1.0000   1.0000   1.0000   1.0000   1.0000   1.0000   1.0000
     1.0000   1.0000   1.0000   1.0000   1.0000   1.0000   1.0000   1.0000
     1.0000   1.0000   1.0000   1.0000   1.0000   1.0000   1.0000   1.0000
     1.0000   1.0000   1.0000   1.0000   1.0000   1.0000   1.0000   1.0000
     1.0000   1.0000   1.0000   1.0000   1.0000   1.0000   1.0000   1.0000
     1.0000   1.0000   1.0000   1.0000   1.0000   1.0000   1.0000   1.0000
     1.0000   1.0000   1.0000   1.0000   1.0000   1.0000   1.0000   1.0000
     1.0000   1.0000   1.0000   1.0000   1.0000   1.0000   1.0000   1.0000
     1.0000   1.0000   1.0000   1.0000   1.0000   1.0000   1.0000   1.0000
     1.0000   1.0000   1.0000   1.0000   1.0000   1.0000   1.0000   1.0000
     1.0000   1.0000   1.0000   1.0000   1.0000   1.0000   1.0000   1.0000
     1.0000   1.0000   1.0000   1.0000   1.0000   1.0000   1.0000   1.0000
     1.0000   1.0000   1.0000   1.0000   1.0000   1.0000   1.0000   1.0000
     1.0000   1.0000   1.0000   1.0000   1.0000   1.0000   1.0000   1.0000
     1.0000   1.0000   1.0000   1.0000   1.0000   1.0000   1.0000   1.0000
     1.0000   1.0000   1.0000   1.0000   1.0000   1.0000   1.0000   1.0000
     1.0000   1.0000   1.0000   1.0000   1.0000   1.0000   1.0000   1.0000
     1.0000   1.0000   1.0000   1.0000   1.0000   1.0000   1.0000   1.0000
     1.0000   1.0000   1.0000   1.0000   1.0000   1.0000   1.0000   1.0000
     1.0000   1.0000   1.0000   1.0000   1.0000   1.0000   1.0000   1.0000
     1.0000   1.0000   1.0000   1.0000   1.0000   1.0000   1.0000   1.0000
     1.0000   1.0000   1.0000   1.0000   1.0000   1.0000   1.0000   1.0000
     1.0000   1.0000   1.0000   1.0000   1.0000   1.0000   1.0000   1.0000
     1.0000   1.0000   1.0000   1.0000   1.0000   1.0000   1.0000   1.0000
     0.0000   0.0000   0.0000   0.0000   0.0000   0.0000   0.0000   0.0000
     0.0000   0.0000   0.0000   0.0000   0.0000   0.0000   0.0000   0.0000
     0.0000   0.0000   0.0000   0.0000   0.0000   0.0000   0.0000   0.0000
     0.0000   0.0000   0.0000   0.0000   0.0000   0.0000   0.0000   0.0000
     0.0000   0.0000   0.0000   0.0000   0.0000   0.0000   0.0000   0.0000
     0.0000   0.0000   0.0000   0.0000   0.0000   0.0000   0.0000   0.0000
     0.0000   0.0000   0.0000   0.0000   0.0000   0.0000   0.0000   0.0000
     0.0000   0.0000

          k = 0.2500 0.2500 0.2500 (269935 PWs)   bands (ev):

  -104.9029 -62.3301 -62.2905 -62.2905  -7.5326  -7.3031  -7.3031  -7.2073
    -7.0774  -7.0774  -7.0128  -6.9063  -6.9063  -6.8817  -6.8108  -6.8048
    -6.7998  -6.7998  -6.7010  -6.7010  -6.6770  -6.6726  -6.6726  -6.6144
    -6.6144  -6.6011  -6.5198  -6.5198  -6.5007  -6.4905  -6.4503  -6.4503
    -6.4305  -6.3660  -6.3660  -1.1459  -1.1423  -1.1423  -1.1238  -1.1205
    -1.1205  -1.1153  -1.1153  -1.1069  -1.0221  -1.0130  -1.0130  -0.9986
    -0.9986  -0.9896  -0.8213  -0.8190  -0.8190  -0.8053  -0.7929  -0.7929
    -0.7697  -0.7697  -0.7684  -0.7520  -0.7516  -0.7516  -0.7432  -0.7370
    -0.7370  -0.7288  -0.7288  -0.7259  -0.7259  -0.7213  -0.7207  -0.7095
    -0.7080  -0.7080  -0.6973  -0.6973  -0.6819  -0.6810  -0.6810  -0.6799
    -0.6706  -0.6706  -0.6609  -0.6582  -0.6582  -0.6576  -0.6513  -0.6461
    -0.6461  -0.6383  -0.6383  -0.6293  -0.6206  -0.6206  -0.6191  -0.6015
    -0.6015  -0.6008  -0.5906  -0.5891  -0.5804  -0.5804  -0.5715  -0.5715
    -0.5615  -0.5615  -0.5574  -0.5553  -0.5305  -0.5305  -0.5222  -0.5222
    -0.5187  -0.5147  -0.4949  -0.4949  -0.4900  -0.4900  -0.4769  -0.4751
    -0.4715  -0.4715  -0.4608  -0.4284  -0.4284  -0.4099  -0.4099  -0.4005
    -0.3998  -0.3922  -0.3922  -0.3809  -0.3809  -0.3723  -0.3701  -0.3551
    -0.3551  -0.3521  -0.3491  -0.3491  -0.3425  -0.3425  -0.3408  -0.3346
    -0.3281  -0.3245  -0.3245  -0.3236  -0.3236  -0.3128  -0.3073  -0.3073
    -0.3064  -0.2941  -0.2941  -0.2799  -0.2799  -0.2742  -0.2609  -0.2609
    -0.2568  -0.2565  -0.2565  -0.2431  -0.2431  -0.2418  -0.2339  -0.2284
    -0.2284  -0.2151  -0.2151  -0.2123  -0.2037  -0.1900  -0.1900  -0.1735
    -0.1683  -0.1683  -0.1524  -0.1465  -0.1465  -0.1122  -0.1077  -0.1077
[...]
     atom   15 type  1   force =     0.00000000    0.00000000    0.00000000
     atom   16 type  1   force =     0.00000000    0.00000000    0.00000000
     atom   17 type  2   force =     0.00000000    0.00000000    0.00000000
     atom   18 type  2   force =     0.00000000    0.00000000    0.00000000
     atom   19 type  2   force =     0.00000000    0.00000000    0.00000000
     atom   20 type  2   force =     0.00000000    0.00000000    0.00000000
     atom   21 type  1   force =     0.00000000    0.00000000    0.00000000
     atom   22 type  1   force =     0.00000000    0.00000000    0.00000000
     atom   23 type  1   force =     0.00000000    0.00000000    0.00000000
     atom   24 type  1   force =     0.00000000    0.00000000    0.00000000
     atom   25 type  2   force =     0.00000000    0.00000000    0.00000000
     atom   26 type  2   force =     0.00000000    0.00000000    0.00000000
     atom   27 type  2   force =     0.00000000    0.00000000    0.00000000
     atom   28 type  2   force =     0.00000000    0.00000000    0.00000000
     atom   29 type  1   force =     0.00000000    0.00000000    0.00000000
     atom   30 type  1   force =     0.00000000    0.00000000    0.00000000
     atom   31 type  1   force =     0.00000000    0.00000000    0.00000000
     atom   32 type  1   force =     0.00000000    0.00000000    0.00000000
     atom   33 type  2   force =     0.00000000    0.00000000    0.00000000
     atom   34 type  2   force =     0.00000000    0.00000000    0.00000000
     atom   35 type  2   force =     0.00000000    0.00000000    0.00000000
     atom   36 type  2   force =     0.00000000    0.00000000    0.00000000
     atom   37 type  1   force =     0.00000000    0.00000000    0.00000000
     atom   38 type  1   force =     0.00000000    0.00000000    0.00000000
     atom   39 type  1   force =     0.00000000    0.00000000    0.00000000
     atom   40 type  1   force =     0.00000000    0.00000000    0.00000000
     atom   41 type  2   force =     0.00000000    0.00000000    0.00000000
     atom   42 type  2   force =     0.00000000    0.00000000    0.00000000
     atom   43 type  2   force =     0.00000000    0.00000000    0.00000000
     atom   44 type  2   force =     0.00000000    0.00000000    0.00000000
     atom   45 type  1   force =     0.00000000    0.00000000    0.00000000
     atom   46 type  1   force =     0.00000000    0.00000000    0.00000000
     atom   47 type  1   force =     0.00000000    0.00000000    0.00000000
     atom   48 type  1   force =     0.00000000    0.00000000    0.00000000
     atom   49 type  2   force =     0.00000000    0.00000000    0.00000000
     atom   50 type  2   force =     0.00000000    0.00000000    0.00000000
     atom   51 type  2   force =     0.00000000    0.00000000    0.00000000
     atom   52 type  2   force =     0.00000000    0.00000000    0.00000000
     atom   53 type  1   force =     0.00000000    0.00000000    0.00000000
     atom   54 type  1   force =     0.00000000    0.00000000    0.00000000
     atom   55 type  1   force =     0.00000000    0.00000000    0.00000000
     atom   56 type  1   force =     0.00000000    0.00000000    0.00000000
     atom   57 type  3   force =     0.00000000    0.00000000    0.00000000
     atom   58 type  2   force =     0.00000000    0.00000000    0.00000000
     atom   59 type  2   force =     0.00000000    0.00000000    0.00000000
     atom   60 type  2   force =     0.00000000    0.00000000    0.00000000
     atom   61 type  1   force =     0.00000000    0.00000000    0.00000000
     atom   62 type  1   force =     0.00000000    0.00000000    0.00000000
     atom   63 type  1   force =     0.00000000    0.00000000    0.00000000
     The SCF correction term to forces
     atom    1 type  2   force =     0.00002447    0.00002447    0.00002447
     atom    2 type  2   force =    -0.00000836   -0.00001087   -0.00001087
     atom    3 type  2   force =    -0.00001087   -0.00000836   -0.00001087
     atom    4 type  2   force =    -0.00001087   -0.00001087   -0.00000836
     atom    5 type  1   force =     0.00000380    0.00000852    0.00000852
     atom    6 type  1   force =    -0.00000741   -0.00000741   -0.00000741
     atom    7 type  1   force =     0.00000852    0.00000852    0.00000380
     atom    8 type  1   force =     0.00000852    0.00000380    0.00000852
     atom    9 type  2   force =    -0.00001122   -0.00001122    0.00000106
     atom   10 type  2   force =    -0.00000213    0.00001703   -0.00000763
     atom   11 type  2   force =     0.00001703   -0.00000213   -0.00000763
     atom   12 type  2   force =     0.00001141    0.00001141    0.00003632
     atom   13 type  1   force =    -0.00001102    0.00000228   -0.00000699
     atom   14 type  1   force =     0.00000129    0.00000129    0.00000442
     atom   15 type  1   force =    -0.00001827   -0.00001827   -0.00000110
     atom   16 type  1   force =     0.00000228   -0.00001102   -0.00000699
     atom   17 type  2   force =    -0.00001122    0.00000106   -0.00001122
     atom   18 type  2   force =    -0.00000213   -0.00000763    0.00001703
     atom   19 type  2   force =     0.00001141    0.00003632    0.00001141
     atom   20 type  2   force =     0.00001703   -0.00000763   -0.00000213
     atom   21 type  1   force =    -0.00001102   -0.00000699    0.00000228
     atom   22 type  1   force =     0.00000129    0.00000442    0.00000129
     atom   23 type  1   force =     0.00000228   -0.00000699   -0.00001102
     atom   24 type  1   force =    -0.00001827   -0.00000110   -0.00001827
     atom   25 type  2   force =     0.00003146   -0.00001308   -0.00001308
     atom   26 type  2   force =     0.00004768    0.00000297    0.00000297
     atom   27 type  2   force =    -0.00001696   -0.00002608    0.00000088
     atom   28 type  2   force =    -0.00001696    0.00000088   -0.00002608
     atom   29 type  1   force =     0.00001694    0.00000237    0.00000237
     atom   30 type  1   force =     0.00000342   -0.00000240   -0.00000240
     atom   31 type  1   force =    -0.00002309    0.00002157    0.00000700
     atom   32 type  1   force =    -0.00002309    0.00000700    0.00002157
     atom   33 type  2   force =     0.00000106   -0.00001122   -0.00001122
     atom   34 type  2   force =     0.00003632    0.00001141    0.00001141
     atom   35 type  2   force =    -0.00000763   -0.00000213    0.00001703
     atom   36 type  2   force =    -0.00000763    0.00001703   -0.00000213
     atom   37 type  1   force =    -0.00000110   -0.00001827   -0.00001827
     atom   38 type  1   force =     0.00000442    0.00000129    0.00000129
     atom   39 type  1   force =    -0.00000699    0.00000228   -0.00001102
     atom   40 type  1   force =    -0.00000699   -0.00001102    0.00000228
     atom   41 type  2   force =    -0.00001308    0.00003146   -0.00001308
     atom   42 type  2   force =    -0.00002608   -0.00001696    0.00000088
     atom   43 type  2   force =     0.00000297    0.00004768    0.00000297
     atom   44 type  2   force =     0.00000088   -0.00001696   -0.00002608
     atom   45 type  1   force =     0.00000700   -0.00002309    0.00002157
     atom   46 type  1   force =    -0.00000240    0.00000342   -0.00000240
     atom   47 type  1   force =     0.00002157   -0.00002309    0.00000700
     atom   48 type  1   force =     0.00000237    0.00001694    0.00000237
     atom   49 type  2   force =    -0.00001308   -0.00001308    0.00003146
     atom   50 type  2   force =    -0.00002608    0.00000088   -0.00001696
     atom   51 type  2   force =     0.00000088   -0.00002608   -0.00001696
     atom   52 type  2   force =     0.00000297    0.00000297    0.00004768
     atom   53 type  1   force =     0.00000700    0.00002157   -0.00002309
     atom   54 type  1   force =    -0.00000240   -0.00000240    0.00000342
     atom   55 type  1   force =     0.00000237    0.00000237    0.00001694
     atom   56 type  1   force =     0.00002157    0.00000700   -0.00002309
     atom   57 type  3   force =    -0.00004944   -0.00004944   -0.00004944
     atom   58 type  2   force =    -0.00005580    0.00003959    0.00003959
     atom   59 type  2   force =     0.00003959   -0.00005580    0.00003959
     atom   60 type  2   force =     0.00003959    0.00003959   -0.00005580
     atom   61 type  1   force =    -0.00001739    0.00002610    0.00002610
     atom   62 type  1   force =     0.00002610    0.00002610   -0.00001739
     atom   63 type  1   force =     0.00002610   -0.00001739    0.00002610

     Total force =     0.000458     Total SCF correction =     0.000263
     SCF correction compared to forces is large: reduce conv_thr to get better values


     Computing stress (Cartesian axis) and pressure

          total   stress  (Ry/bohr**3)                   (kbar)     P=       -8.66
  -0.00005884  -0.00000408  -0.00000408           -8.66       -0.60       -0.60
  -0.00000408  -0.00005884  -0.00000408           -0.60       -8.66       -0.60
  -0.00000408  -0.00000408  -0.00005884           -0.60       -0.60       -8.66

     kinetic stress (kbar)  12220.45      3.43      3.43
                                3.43  12220.45      3.43
                                3.43      3.43  12220.45

     local   stress (kbar)  -1478.07    429.43    429.43
                              429.43  -1478.07    429.43
                              429.43    429.43  -1478.07

     nonloc. stress (kbar)  -1088.51     -4.06     -4.06
                               -4.06  -1088.51     -4.06
                               -4.06     -4.06  -1088.51

     hartree stress (kbar)  12170.81   -193.31   -193.31
                             -193.31  12170.81   -193.31
                             -193.31   -193.31  12170.81

     exc-cor stress (kbar)   8234.18      0.04      0.04
                                0.04   8234.18      0.04
                                0.04      0.04   8234.18

     corecor stress (kbar) -13511.70     -0.06     -0.06
                               -0.06 -13511.70     -0.06
                               -0.06     -0.06 -13511.70

     ewald   stress (kbar) -16555.83   -236.07   -236.07
                             -236.07 -16555.83   -236.07
                             -236.07   -236.07 -16555.83

     hubbard stress (kbar)      0.00      0.00      0.00
                                0.00      0.00      0.00
                                0.00      0.00      0.00

     DFT-D   stress (kbar)      0.00      0.00      0.00
                                0.00      0.00      0.00
                                0.00      0.00      0.00

     XDM     stress (kbar)      0.00      0.00      0.00
                                0.00      0.00      0.00
                                0.00      0.00      0.00

     dft-nl  stress (kbar)      0.00      0.00      0.00
                                0.00      0.00      0.00
                                0.00      0.00      0.00

     TS-vdW  stress (kbar)      0.00      0.00      0.00
                                0.00      0.00      0.00
                                0.00      0.00      0.00

     MDB     stress (kbar)      0.00      0.00      0.00
                                0.00      0.00      0.00
                                0.00      0.00      0.00

     3D-RISM stress (kbar)      0.00      0.00      0.00
                                0.00      0.00      0.00
                                0.00      0.00      0.00


     BFGS Geometry Optimization
     Energy error            =      0.0E+00 Ry
     Gradient error          =      8.0E-05 Ry/Bohr

     bfgs converged in   1 scf cycles and   0 bfgs steps
     (criteria: energy <  1.0E-05 Ry, force <  1.0E-04 Ry/Bohr)

     End of BFGS Geometry Optimization

     Final energy             =  -10101.4689803232 Ry
Begin final coordinates

ATOMIC_POSITIONS (crystal)
Zn            0.0003359496        0.0003359496        0.0003359496
Zn            0.0007923696        0.2499957417        0.2499957417
Zn            0.2499957417        0.0007923696        0.2499957417
Zn            0.2499957417        0.2499957417        0.0007923696
S             0.1253288266        0.3748354448        0.3748354448
S             0.1248579843        0.1248579843        0.1248579843
S             0.3748354448        0.3748354448        0.1253288266
S             0.3748354448        0.1253288266        0.3748354448
Zn            0.0025035209        0.0025035209        0.4988740594
Zn            0.0026522256        0.2474779807        0.7504669869
Zn            0.2474779807        0.0026522256        0.7504669869
Zn            0.2524861438        0.2524861438        0.5013026431
S             0.1245827217        0.3746700879        0.8753519813
S             0.1255959954        0.1255959954        0.6240384643
S             0.3761935460        0.3761935460        0.6259080068
S             0.3746700879        0.1245827217        0.8753519813
Zn            0.0025035209        0.4988740594        0.0025035209
Zn            0.0026522256        0.7504669869        0.2474779807
Zn            0.2524861438        0.5013026431        0.2524861438
Zn            0.2474779807        0.7504669869        0.0026522256
S             0.1245827217        0.8753519813        0.3746700879
S             0.1255959954        0.6240384643        0.1255959954
S             0.3746700879        0.8753519813        0.1245827217
S             0.3761935460        0.6259080068        0.3761935460
Zn            0.0039331378        0.5003141219        0.5003141219
Zn            0.0033416405        0.7487307897        0.7487307897
Zn            0.2492190849        0.4964153644        0.7470606835
Zn            0.2492190849        0.7470606835        0.4964153644
S             0.1245380579        0.8747573096        0.8747573096
S             0.1259907632        0.6249127663        0.6249127663
S             0.3726560897        0.8768240843        0.6222655846
S             0.3726560897        0.6222655846        0.8768240843
Zn            0.4988740594        0.0025035209        0.0025035209
Zn            0.5013026431        0.2524861438        0.2524861438
Zn            0.7504669869        0.0026522256        0.2474779807
Zn            0.7504669869        0.2474779807        0.0026522256
S             0.6259080068        0.3761935460        0.3761935460
S             0.6240384643        0.1255959954        0.1255959954
S             0.8753519813        0.3746700879        0.1245827217
S             0.8753519813        0.1245827217        0.3746700879
Zn            0.5003141219        0.0039331378        0.5003141219
Zn            0.4964153644        0.2492190849        0.7470606835
Zn            0.7487307897        0.0033416405        0.7487307897
Zn            0.7470606835        0.2492190849        0.4964153644
S             0.6222655846        0.3726560897        0.8768240843
S             0.6249127663        0.1259907632        0.6249127663
S             0.8768240843        0.3726560897        0.6222655846
S             0.8747573096        0.1245380579        0.8747573096
Zn            0.5003141219        0.5003141219        0.0039331378
Zn            0.4964153644        0.7470606835        0.2492190849
Zn            0.7470606835        0.4964153644        0.2492190849
Zn            0.7487307897        0.7487307897        0.0033416405
S             0.6222655846        0.8768240843        0.3726560897
S             0.6249127663        0.6249127663        0.1259907632
S             0.8747573096        0.8747573096        0.1245380579
S             0.8768240843        0.6222655846        0.3726560897
Cu            0.4700209347        0.4700209347        0.4700209347
Zn            0.4685464902        0.7793025361        0.7793025361
Zn            0.7793025361        0.4685464902        0.7793025361
Zn            0.7793025361        0.7793025361        0.4685464902
S             0.6267301858        0.8759594517        0.8759594517
S             0.8759594517        0.8759594517        0.6267301858
S             0.8759594517        0.6267301858        0.8759594517
End final coordinates


 
     init_run     :     10.93s CPU     11.66s WALL (       1 calls)
     electrons    :    469.73s CPU    476.87s WALL (       1 calls)
     forces       :      4.91s CPU      4.99s WALL (       1 calls)
     stress       :    166.48s CPU    167.72s WALL (       1 calls)

     Called by init_run:
     wfcinit      :      8.71s CPU      9.06s WALL (       1 calls)
     wfcinit:atom :      0.07s CPU      0.09s WALL (       6 calls)
     wfcinit:wfcr :      8.33s CPU      8.54s WALL (       6 calls)
     potinit      :      0.54s CPU      0.66s WALL (       1 calls)
     hinit0       :      0.43s CPU      0.52s WALL (       1 calls)

     Called by electrons:
     c_bands      :    423.48s CPU    429.38s WALL (      17 calls)
     sum_band     :     41.73s CPU     42.23s WALL (      17 calls)
     v_of_rho     :      1.29s CPU      1.37s WALL (      17 calls)
     v_h          :      0.05s CPU      0.06s WALL (      17 calls)
     v_xc         :      1.35s CPU      1.43s WALL (      19 calls)
     newd         :      0.79s CPU      0.80s WALL (      17 calls)
     PAW_pot      :      1.80s CPU      1.84s WALL (      17 calls)
     mix_rho      :      0.42s CPU      0.44s WALL (      17 calls)

     Called by c_bands:
     init_us_2    :      5.92s CPU      5.97s WALL (     222 calls)
     init_us_2:cp :      5.92s CPU      5.97s WALL (     222 calls)
     cegterg      :    375.42s CPU    380.69s WALL (     102 calls)

     Called by sum_band:
     sum_band:wei :      0.02s CPU      0.03s WALL (      17 calls)
     sum_band:loo :     39.72s CPU     40.17s WALL (      17 calls)
     sum_band:buf :      0.87s CPU      0.98s WALL (     102 calls)
     sum_band:ini :      2.78s CPU      2.80s WALL (     102 calls)
     sum_band:cal :     14.38s CPU     14.50s WALL (     102 calls)
     sum_band:bec :      0.30s CPU      0.30s WALL (     102 calls)
     addusdens    :      1.53s CPU      1.55s WALL (      17 calls)
                                        0.00s GPU  (      17 calls)
     addusd:skk   :      0.02s CPU      0.02s WALL (      51 calls)
                                        0.00s GPU  (      51 calls)

     Called by *egterg:
     cdiaghg      :     40.37s CPU     40.71s WALL (     698 calls)
     cegterg:over :     28.67s CPU     28.89s WALL (     602 calls)
     cegterg:upda :     27.70s CPU     27.93s WALL (     602 calls)
     cegterg:last :     46.56s CPU     46.86s WALL (     216 calls)
     cdiaghg:chol :      2.54s CPU      2.56s WALL (     698 calls)
     cdiaghg:inve :      3.69s CPU      3.72s WALL (     698 calls)
     cdiaghg:para :      5.96s CPU      6.00s WALL (    1396 calls)
     h_psi        :    185.90s CPU    188.54s WALL (     710 calls)
     s_psi        :     41.51s CPU     41.78s WALL (     710 calls)
     g_psi        :      0.96s CPU      0.97s WALL (     602 calls)

     Called by h_psi:
     h_psi:calbec :     40.63s CPU     40.95s WALL (     710 calls)
     vloc_psi     :    101.05s CPU    101.91s WALL (     710 calls)
     add_vuspsi   :     42.54s CPU     42.87s WALL (     710 calls)

     General routines
     calbec       :     59.41s CPU     59.88s WALL (     842 calls)
     fft          :      1.04s CPU      1.22s WALL (     401 calls)
     ffts         :      0.06s CPU      0.06s WALL (      34 calls)
     fftw         :    113.40s CPU    114.38s WALL (  209540 calls)
 
     Parallel routines

     PAW routines
     PAW_pot      :      1.80s CPU      1.84s WALL (      17 calls)
     PAW_symme    :      0.03s CPU      0.03s WALL (      34 calls)
 
     PWSCF        :  10m54.04s CPU  11m22.39s WALL

 
   This run was terminated on:   3:51:23  29Jun2024            

=------------------------------------------------------------------------------=
   JOB DONE.
=------------------------------------------------------------------------------=
