
     Program PWSCF v.7.2 starts on 27Jun2024 at 16:17:53 

     This program is part of the open-source Quantum ESPRESSO suite
     for quantum simulation of materials; please cite
         "P. Giannozzi et al., J. Phys.:Condens. Matter 21 395502 (2009);
         "P. Giannozzi et al., J. Phys.:Condens. Matter 29 465901 (2017);
         "P. Giannozzi et al., J. Chem. Phys. 152 154105 (2020);
          URL http://www.quantum-espresso.org", 
     in publications or presentations arising from this work. More details at
     http://www.quantum-espresso.org/quote

     Parallel version (MPI), running on   560 processors

     MPI processes distributed on     5 nodes
     232831 MiB available memory on the printing compute node when the environment starts
 
     Waiting for input...
     Reading input from standard input

     Current dimensions of program PWSCF are:
     Max number of different atomic species (ntypx) = 10
     Max number of k-points (npk) =  40000
     Max angular momentum in pseudopotentials (lmaxx) =  4

     File ./out/rlx.update deleted, as requested

     File ./out/rlx.bfgs deleted, as requested
     file S.pbe-n-kjpaw_psl.1.0.0.UPF: wavefunction(s)  3S 3P renormalized
     file Zn.pbe-dnl-kjpaw_psl.1.0.0.UPF: wavefunction(s)  4S 3D renormalized
     file Co.pbe-spn-kjpaw_psl.0.3.1.UPF: wavefunction(s)  3P 3D renormalized
 
     K-points division:     npool     =       5
     R & G space division:  proc/nbgrp/npool/nimage =     112
     Subspace diagonalization in iterative solution of the eigenvalue problem:
     one sub-group per band group will be used
     scalapack distributed-memory algorithm (size of sub-group:  3*  3 procs)

 
     Parallelization info
     --------------------
     sticks:   dense  smooth     PW     G-vecs:    dense   smooth      PW
     Min         180     180     46                19282    19282    2562
     Max         181     181     47                19291    19291    2573
     Sum       20217   20217   5249              2160009  2160009  287777
 
     Using Slab Decomposition
 


     bravais-lattice index     =            1
     lattice parameter (alat)  =      20.5686  a.u.
     unit-cell volume          =    8701.8437 (a.u.)^3
     number of atoms/cell      =           64
     number of atomic types    =            3
     number of electrons       =       582.00
     number of Kohn-Sham states=          349
     kinetic-energy cutoff     =     150.0000  Ry
     charge density cutoff     =     600.0000  Ry
     scf convergence threshold =      1.0E-08
     mixing beta               =       0.7000
     number of iterations used =            8  plain     mixing
     energy convergence thresh.=      1.0E-05
     force convergence thresh. =      1.0E-04
     Exchange-correlation= SLA  PW   PBX  PBC
                           (   1   4   3   4   0   0   0)
     nstep                     =           50


     celldm(1)=  20.568554  celldm(2)=   0.000000  celldm(3)=   0.000000
     celldm(4)=   0.000000  celldm(5)=   0.000000  celldm(6)=   0.000000

     crystal axes: (cart. coord. in units of alat)
               a(1) = (   1.000000   0.000000   0.000000 )  
               a(2) = (   0.000000   1.000000   0.000000 )  
               a(3) = (   0.000000   0.000000   1.000000 )  

     reciprocal axes: (cart. coord. in units 2 pi/alat)
               b(1) = (  1.000000  0.000000  0.000000 )  
               b(2) = (  0.000000  1.000000  0.000000 )  
               b(3) = (  0.000000  0.000000  1.000000 )  


     PseudoPot. # 1 for S  read from file:
     /arf/home/amuhaymin/pseudo/S.pbe-n-kjpaw_psl.1.0.0.UPF
     MD5 check sum: fb45dfebcf3e72a4e1bd4a866ec2e262
     Pseudo is Projector augmented-wave + core cor, Zval =  6.0
     Generated using &quot;atomic&quot; code by A. Dal Corso  v.6.3
     Shape of augmentation charge: PSQ
     Using radial grid of 1151 points,  6 beta functions with: 
                l(1) =   0
                l(2) =   0
                l(3) =   1
                l(4) =   1
                l(5) =   2
                l(6) =   2
     Q(r) pseudized with 0 coefficients 


     PseudoPot. # 2 for Zn read from file:
     /arf/home/amuhaymin/pseudo/Zn.pbe-dnl-kjpaw_psl.1.0.0.UPF
     MD5 check sum: c608214d9520ac179f507641260889e3
     Pseudo is Projector augmented-wave + core cor, Zval = 12.0
     Generated using &quot;atomic&quot; code by A. Dal Corso  v.6.2.2
     Shape of augmentation charge: PSQ
     Using radial grid of 1201 points,  6 beta functions with: 
                l(1) =   0
                l(2) =   0
                l(3) =   1
                l(4) =   1
                l(5) =   2
                l(6) =   2
     Q(r) pseudized with 0 coefficients 


     PseudoPot. # 3 for Co read from file:
     /arf/home/amuhaymin/pseudo/Co.pbe-spn-kjpaw_psl.0.3.1.UPF
     MD5 check sum: b0a1ad65bf214e88c1f3d33b20c7d919
     Pseudo is Projector augmented-wave + core cor, Zval = 17.0
     Generated using &quot;atomic&quot; code by A. Dal Corso  v.6.2.2
     Shape of augmentation charge: PSQ
     Using radial grid of 1193 points,  6 beta functions with: 
                l(1) =   0
                l(2) =   0
                l(3) =   1
                l(4) =   1
                l(5) =   2
                l(6) =   2
     Q(r) pseudized with 0 coefficients 


     atomic species   valence    mass     pseudopotential
        S              6.00    32.06500     S ( 1.00)
        Zn            12.00    65.38000     Zn( 1.00)
        Co            17.00    63.54600     Co( 1.00)

     Starting magnetic structure 
     atomic species   magnetization
        S            0.000
        Zn           0.000
        Co           0.118

     24 Sym. Ops. (no inversion) found


                                    s                        frac. trans.

      isym =  1     identity                                     

 cryst.   s( 1) = (     1          0          0      )
                  (     0          1          0      )
                  (     0          0          1      )

 cart.    s( 1) = (  1.0000000  0.0000000  0.0000000 )
                  (  0.0000000  1.0000000  0.0000000 )
                  (  0.0000000  0.0000000  1.0000000 )


      isym =  2     180 deg rotation - cart. axis [0,0,1]        

 cryst.   s( 2) = (    -1          0          0      )
                  (     0         -1          0      )
                  (     0          0          1      )

 cart.    s( 2) = ( -1.0000000  0.0000000  0.0000000 )
                  (  0.0000000 -1.0000000  0.0000000 )
                  (  0.0000000  0.0000000  1.0000000 )


      isym =  3     180 deg rotation - cart. axis [0,1,0]        

 cryst.   s( 3) = (    -1          0          0      )
                  (     0          1          0      )
                  (     0          0         -1      )

 cart.    s( 3) = ( -1.0000000  0.0000000  0.0000000 )
                  (  0.0000000  1.0000000  0.0000000 )
                  (  0.0000000  0.0000000 -1.0000000 )


      isym =  4     180 deg rotation - cart. axis [1,0,0]        

 cryst.   s( 4) = (     1          0          0      )
                  (     0         -1          0      )
                  (     0          0         -1      )

 cart.    s( 4) = (  1.0000000  0.0000000  0.0000000 )
                  (  0.0000000 -1.0000000  0.0000000 )
                  (  0.0000000  0.0000000 -1.0000000 )


      isym =  5     120 deg rotation - cart. axis [-1,-1,-1]     

 cryst.   s( 5) = (     0          0          1      )
                  (     1          0          0      )
                  (     0          1          0      )

 cart.    s( 5) = (  0.0000000  1.0000000  0.0000000 )
                  (  0.0000000  0.0000000  1.0000000 )
                  (  1.0000000  0.0000000  0.0000000 )


      isym =  6     120 deg rotation - cart. axis [-1,1,1]       

 cryst.   s( 6) = (     0          0         -1      )
                  (    -1          0          0      )
                  (     0          1          0      )

 cart.    s( 6) = (  0.0000000 -1.0000000  0.0000000 )
                  (  0.0000000  0.0000000  1.0000000 )
                  ( -1.0000000  0.0000000  0.0000000 )


      isym =  7     120 deg rotation - cart. axis [1,1,-1]       

 cryst.   s( 7) = (     0          0         -1      )
                  (     1          0          0      )
                  (     0         -1          0      )

 cart.    s( 7) = (  0.0000000  1.0000000  0.0000000 )
                  (  0.0000000  0.0000000 -1.0000000 )
                  ( -1.0000000  0.0000000  0.0000000 )


      isym =  8     120 deg rotation - cart. axis [1,-1,1]       

 cryst.   s( 8) = (     0          0          1      )
                  (    -1          0          0      )
                  (     0         -1          0      )

 cart.    s( 8) = (  0.0000000 -1.0000000  0.0000000 )
                  (  0.0000000  0.0000000 -1.0000000 )
                  (  1.0000000  0.0000000  0.0000000 )


      isym =  9     120 deg rotation - cart. axis [1,1,1]        

 cryst.   s( 9) = (     0          1          0      )
                  (     0          0          1      )
                  (     1          0          0      )

 cart.    s( 9) = (  0.0000000  0.0000000  1.0000000 )
                  (  1.0000000  0.0000000  0.0000000 )
                  (  0.0000000  1.0000000  0.0000000 )


      isym = 10     120 deg rotation - cart. axis [-1,1,-1]      

 cryst.   s(10) = (     0         -1          0      )
                  (     0          0         -1      )
                  (     1          0          0      )

 cart.    s(10) = (  0.0000000  0.0000000  1.0000000 )
                  ( -1.0000000  0.0000000  0.0000000 )
                  (  0.0000000 -1.0000000  0.0000000 )


      isym = 11     120 deg rotation - cart. axis [1,-1,-1]      

 cryst.   s(11) = (     0         -1          0      )
                  (     0          0          1      )
                  (    -1          0          0      )

 cart.    s(11) = (  0.0000000  0.0000000 -1.0000000 )
                  ( -1.0000000  0.0000000  0.0000000 )
                  (  0.0000000  1.0000000  0.0000000 )


      isym = 12     120 deg rotation - cart. axis [-1,-1,1]      

 cryst.   s(12) = (     0          1          0      )
                  (     0          0         -1      )
                  (    -1          0          0      )

 cart.    s(12) = (  0.0000000  0.0000000 -1.0000000 )
                  (  1.0000000  0.0000000  0.0000000 )
                  (  0.0000000 -1.0000000  0.0000000 )


      isym = 13     inv. 180 deg rotation - cart. axis [1,1,0]   

 cryst.   s(13) = (     0         -1          0      )
                  (    -1          0          0      )
                  (     0          0          1      )

 cart.    s(13) = (  0.0000000 -1.0000000  0.0000000 )
                  ( -1.0000000  0.0000000  0.0000000 )
                  (  0.0000000  0.0000000  1.0000000 )


      isym = 14     inv. 180 deg rotation - cart. axis [1,-1,0]  

 cryst.   s(14) = (     0          1          0      )
                  (     1          0          0      )
                  (     0          0          1      )

 cart.    s(14) = (  0.0000000  1.0000000  0.0000000 )
                  (  1.0000000  0.0000000  0.0000000 )
                  (  0.0000000  0.0000000  1.0000000 )


      isym = 15     inv.  90 deg rotation - cart. axis [0,0,-1]  

 cryst.   s(15) = (     0          1          0      )
                  (    -1          0          0      )
                  (     0          0         -1      )

 cart.    s(15) = (  0.0000000 -1.0000000  0.0000000 )
                  (  1.0000000  0.0000000  0.0000000 )
                  (  0.0000000  0.0000000 -1.0000000 )


      isym = 16     inv.  90 deg rotation - cart. axis [0,0,1]   

 cryst.   s(16) = (     0         -1          0      )
                  (     1          0          0      )
                  (     0          0         -1      )

 cart.    s(16) = (  0.0000000  1.0000000  0.0000000 )
                  ( -1.0000000  0.0000000  0.0000000 )
                  (  0.0000000  0.0000000 -1.0000000 )


      isym = 17     inv. 180 deg rotation - cart. axis [1,0,1]   

 cryst.   s(17) = (     0          0         -1      )
                  (     0          1          0      )
                  (    -1          0          0      )

 cart.    s(17) = (  0.0000000  0.0000000 -1.0000000 )
                  (  0.0000000  1.0000000  0.0000000 )
                  ( -1.0000000  0.0000000  0.0000000 )


      isym = 18     inv. 180 deg rotation - cart. axis [-1,0,1]  

 cryst.   s(18) = (     0          0          1      )
                  (     0          1          0      )
                  (     1          0          0      )

 cart.    s(18) = (  0.0000000  0.0000000  1.0000000 )
                  (  0.0000000  1.0000000  0.0000000 )
                  (  1.0000000  0.0000000  0.0000000 )


      isym = 19     inv.  90 deg rotation - cart. axis [0,1,0]   

 cryst.   s(19) = (     0          0          1      )
                  (     0         -1          0      )
                  (    -1          0          0      )

 cart.    s(19) = (  0.0000000  0.0000000 -1.0000000 )
                  (  0.0000000 -1.0000000  0.0000000 )
                  (  1.0000000  0.0000000  0.0000000 )


      isym = 20     inv.  90 deg rotation - cart. axis [0,-1,0]  

 cryst.   s(20) = (     0          0         -1      )
                  (     0         -1          0      )
                  (     1          0          0      )

 cart.    s(20) = (  0.0000000  0.0000000  1.0000000 )
                  (  0.0000000 -1.0000000  0.0000000 )
                  ( -1.0000000  0.0000000  0.0000000 )


      isym = 21     inv. 180 deg rotation - cart. axis [0,1,1]   

 cryst.   s(21) = (     1          0          0      )
                  (     0          0         -1      )
                  (     0         -1          0      )

 cart.    s(21) = (  1.0000000  0.0000000  0.0000000 )
                  (  0.0000000  0.0000000 -1.0000000 )
                  (  0.0000000 -1.0000000  0.0000000 )


      isym = 22     inv. 180 deg rotation - cart. axis [0,1,-1]  

 cryst.   s(22) = (     1          0          0      )
                  (     0          0          1      )
                  (     0          1          0      )

 cart.    s(22) = (  1.0000000  0.0000000  0.0000000 )
                  (  0.0000000  0.0000000  1.0000000 )
                  (  0.0000000  1.0000000  0.0000000 )


      isym = 23     inv.  90 deg rotation - cart. axis [-1,0,0]  

 cryst.   s(23) = (    -1          0          0      )
                  (     0          0          1      )
                  (     0         -1          0      )

 cart.    s(23) = ( -1.0000000  0.0000000  0.0000000 )
                  (  0.0000000  0.0000000 -1.0000000 )
                  (  0.0000000  1.0000000  0.0000000 )


      isym = 24     inv.  90 deg rotation - cart. axis [1,0,0]   

 cryst.   s(24) = (    -1          0          0      )
                  (     0          0         -1      )
                  (     0          1          0      )

 cart.    s(24) = ( -1.0000000  0.0000000  0.0000000 )
                  (  0.0000000  0.0000000  1.0000000 )
                  (  0.0000000 -1.0000000  0.0000000 )


     point group T_d (-43m) 
     there are  5 classes
     the character table:

       E     8C3   3C2   6S4   6s_d 
A_1    1.00  1.00  1.00  1.00  1.00
A_2    1.00  1.00  1.00 -1.00 -1.00
E      2.00 -1.00  2.00  0.00  0.00
T_1    3.00  0.00 -1.00  1.00 -1.00
T_2    3.00  0.00 -1.00 -1.00  1.00

     the symmetry operations in each class and the name of the first element:

     E        1
          identity                                               
     8C3      5    7    8    6   12    9   10   11
          120 deg rotation - cart. axis [-1,-1,-1]               
     3C2      2    3    4
          180 deg rotation - cart. axis [0,0,1]                  
     6S4     15   16   20   19   23   24
          inv.  90 deg rotation - cart. axis [0,0,-1]            
     6s_d    13   14   17   18   21   22
          inv. 180 deg rotation - cart. axis [1,1,0]             

   Cartesian axes

     site n.     atom                  positions (alat units)
         1           Zn  tau(   1) = (   0.0000000   0.0000000   0.0000000  )
         2           Zn  tau(   2) = (  -0.0001013   0.2501603   0.2501603  )
         3           Zn  tau(   3) = (   0.2501603  -0.0001013   0.2501603  )
         4           Zn  tau(   4) = (   0.2501603   0.2501603  -0.0001013  )
         5           S   tau(   5) = (   0.1247822   0.3748238   0.3748238  )
         6           S   tau(   6) = (   0.1249577   0.1249577   0.1249577  )
         7           S   tau(   7) = (   0.3748238   0.3748238   0.1247822  )
         8           S   tau(   8) = (   0.3748238   0.1247822   0.3748238  )
         9           Zn  tau(   9) = (   0.0000000   0.0000000   0.5000000  )
        10           Zn  tau(  10) = (   0.0001013   0.2501603   0.7498397  )
        11           Zn  tau(  11) = (   0.2501603   0.0001013   0.7498397  )
        12           Zn  tau(  12) = (   0.2509544   0.2509544   0.5010004  )
        13           S   tau(  13) = (   0.1247058   0.3749343   0.8752942  )
        14           S   tau(  14) = (   0.1247058   0.1247058   0.6250657  )
        15           S   tau(  15) = (   0.3765179   0.3765179   0.6234821  )
        16           S   tau(  16) = (   0.3749343   0.1247058   0.8752942  )
        17           Zn  tau(  17) = (   0.0000000   0.5000000   0.0000000  )
        18           Zn  tau(  18) = (   0.0001013   0.7498397   0.2501603  )
        19           Zn  tau(  19) = (   0.2509544   0.5010004   0.2509544  )
        20           Zn  tau(  20) = (   0.2501603   0.7498397   0.0001013  )
        21           S   tau(  21) = (   0.1247058   0.8752942   0.3749343  )
        22           S   tau(  22) = (   0.1247058   0.6250657   0.1247058  )
        23           S   tau(  23) = (   0.3749343   0.8752942   0.1247058  )
        24           S   tau(  24) = (   0.3765179   0.6234821   0.3765179  )
        25           Zn  tau(  25) = (   0.0000000   0.5000000   0.5000000  )
        26           Zn  tau(  26) = (  -0.0001013   0.7498397   0.7498397  )
        27           Zn  tau(  27) = (   0.2509544   0.4989996   0.7490456  )
        28           Zn  tau(  28) = (   0.2509544   0.7490456   0.4989996  )
        29           S   tau(  29) = (   0.1249577   0.8750423   0.8750423  )
        30           S   tau(  30) = (   0.1247822   0.6251762   0.6251762  )
        31           S   tau(  31) = (   0.3748238   0.8752178   0.6251762  )
        32           S   tau(  32) = (   0.3748238   0.6251762   0.8752178  )
        33           Zn  tau(  33) = (   0.5000000   0.0000000   0.0000000  )
        34           Zn  tau(  34) = (   0.5010004   0.2509544   0.2509544  )
        35           Zn  tau(  35) = (   0.7498397   0.0001013   0.2501603  )
        36           Zn  tau(  36) = (   0.7498397   0.2501603   0.0001013  )
        37           S   tau(  37) = (   0.6234821   0.3765179   0.3765179  )
        38           S   tau(  38) = (   0.6250657   0.1247058   0.1247058  )
        39           S   tau(  39) = (   0.8752942   0.3749343   0.1247058  )
        40           S   tau(  40) = (   0.8752942   0.1247058   0.3749343  )
        41           Zn  tau(  41) = (   0.5000000   0.0000000   0.5000000  )
        42           Zn  tau(  42) = (   0.4989996   0.2509544   0.7490456  )
        43           Zn  tau(  43) = (   0.7498397  -0.0001013   0.7498397  )
        44           Zn  tau(  44) = (   0.7490456   0.2509544   0.4989996  )
        45           S   tau(  45) = (   0.6251762   0.3748238   0.8752178  )
        46           S   tau(  46) = (   0.6251762   0.1247822   0.6251762  )
        47           S   tau(  47) = (   0.8752178   0.3748238   0.6251762  )
        48           S   tau(  48) = (   0.8750423   0.1249577   0.8750423  )
        49           Zn  tau(  49) = (   0.5000000   0.5000000   0.0000000  )
        50           Zn  tau(  50) = (   0.4989996   0.7490456   0.2509544  )
        51           Zn  tau(  51) = (   0.7490456   0.4989996   0.2509544  )
        52           Zn  tau(  52) = (   0.7498397   0.7498397  -0.0001013  )
        53           S   tau(  53) = (   0.6251762   0.8752178   0.3748238  )
        54           S   tau(  54) = (   0.6251762   0.6251762   0.1247822  )
        55           S   tau(  55) = (   0.8750423   0.8750423   0.1249577  )
        56           S   tau(  56) = (   0.8752178   0.6251762   0.3748238  )
        57           Co  tau(  57) = (   0.5000000   0.5000000   0.5000000  )
        58           Zn  tau(  58) = (   0.5010004   0.7490456   0.7490456  )
        59           Zn  tau(  59) = (   0.7490456   0.5010004   0.7490456  )
        60           Zn  tau(  60) = (   0.7490456   0.7490456   0.5010004  )
        61           S   tau(  61) = (   0.6250657   0.8752942   0.8752942  )
        62           S   tau(  62) = (   0.6234821   0.6234821   0.6234821  )
        63           S   tau(  63) = (   0.8752942   0.8752942   0.6250657  )
        64           S   tau(  64) = (   0.8752942   0.6250657   0.8752942  )

   Crystallographic axes

     site n.     atom                  positions (cryst. coord.)
         1           Zn  tau(   1) = (  0.0000000  0.0000000  0.0000000  )
         2           Zn  tau(   2) = ( -0.0001013  0.2501603  0.2501603  )
         3           Zn  tau(   3) = (  0.2501603 -0.0001013  0.2501603  )
         4           Zn  tau(   4) = (  0.2501603  0.2501603 -0.0001013  )
         5           S   tau(   5) = (  0.1247822  0.3748238  0.3748238  )
         6           S   tau(   6) = (  0.1249577  0.1249577  0.1249577  )
         7           S   tau(   7) = (  0.3748238  0.3748238  0.1247822  )
         8           S   tau(   8) = (  0.3748238  0.1247822  0.3748238  )
         9           Zn  tau(   9) = (  0.0000000  0.0000000  0.5000000  )
        10           Zn  tau(  10) = (  0.0001013  0.2501603  0.7498397  )
        11           Zn  tau(  11) = (  0.2501603  0.0001013  0.7498397  )
        12           Zn  tau(  12) = (  0.2509544  0.2509544  0.5010004  )
        13           S   tau(  13) = (  0.1247058  0.3749343  0.8752942  )
        14           S   tau(  14) = (  0.1247058  0.1247058  0.6250657  )
        15           S   tau(  15) = (  0.3765179  0.3765179  0.6234821  )
        16           S   tau(  16) = (  0.3749343  0.1247058  0.8752942  )
        17           Zn  tau(  17) = (  0.0000000  0.5000000  0.0000000  )
        18           Zn  tau(  18) = (  0.0001013  0.7498397  0.2501603  )
        19           Zn  tau(  19) = (  0.2509544  0.5010004  0.2509544  )
        20           Zn  tau(  20) = (  0.2501603  0.7498397  0.0001013  )
        21           S   tau(  21) = (  0.1247058  0.8752942  0.3749343  )
        22           S   tau(  22) = (  0.1247058  0.6250657  0.1247058  )
        23           S   tau(  23) = (  0.3749343  0.8752942  0.1247058  )
        24           S   tau(  24) = (  0.3765179  0.6234821  0.3765179  )
        25           Zn  tau(  25) = (  0.0000000  0.5000000  0.5000000  )
        26           Zn  tau(  26) = ( -0.0001013  0.7498397  0.7498397  )
        27           Zn  tau(  27) = (  0.2509544  0.4989996  0.7490456  )
        28           Zn  tau(  28) = (  0.2509544  0.7490456  0.4989996  )
        29           S   tau(  29) = (  0.1249577  0.8750423  0.8750423  )
        30           S   tau(  30) = (  0.1247822  0.6251762  0.6251762  )
        31           S   tau(  31) = (  0.3748238  0.8752178  0.6251762  )
        32           S   tau(  32) = (  0.3748238  0.6251762  0.8752178  )
        33           Zn  tau(  33) = (  0.5000000  0.0000000  0.0000000  )
        34           Zn  tau(  34) = (  0.5010004  0.2509544  0.2509544  )
        35           Zn  tau(  35) = (  0.7498397  0.0001013  0.2501603  )
        36           Zn  tau(  36) = (  0.7498397  0.2501603  0.0001013  )
        37           S   tau(  37) = (  0.6234821  0.3765179  0.3765179  )
        38           S   tau(  38) = (  0.6250657  0.1247058  0.1247058  )
        39           S   tau(  39) = (  0.8752942  0.3749343  0.1247058  )
        40           S   tau(  40) = (  0.8752942  0.1247058  0.3749343  )
        41           Zn  tau(  41) = (  0.5000000  0.0000000  0.5000000  )
        42           Zn  tau(  42) = (  0.4989996  0.2509544  0.7490456  )
        43           Zn  tau(  43) = (  0.7498397 -0.0001013  0.7498397  )
        44           Zn  tau(  44) = (  0.7490456  0.2509544  0.4989996  )
        45           S   tau(  45) = (  0.6251762  0.3748238  0.8752178  )
        46           S   tau(  46) = (  0.6251762  0.1247822  0.6251762  )
        47           S   tau(  47) = (  0.8752178  0.3748238  0.6251762  )
        48           S   tau(  48) = (  0.8750423  0.1249577  0.8750423  )
        49           Zn  tau(  49) = (  0.5000000  0.5000000  0.0000000  )
        50           Zn  tau(  50) = (  0.4989996  0.7490456  0.2509544  )
        51           Zn  tau(  51) = (  0.7490456  0.4989996  0.2509544  )
        52           Zn  tau(  52) = (  0.7498397  0.7498397 -0.0001013  )
        53           S   tau(  53) = (  0.6251762  0.8752178  0.3748238  )
        54           S   tau(  54) = (  0.6251762  0.6251762  0.1247822  )
        55           S   tau(  55) = (  0.8750423  0.8750423  0.1249577  )
        56           S   tau(  56) = (  0.8752178  0.6251762  0.3748238  )
        57           Co  tau(  57) = (  0.5000000  0.5000000  0.5000000  )
        58           Zn  tau(  58) = (  0.5010004  0.7490456  0.7490456  )
        59           Zn  tau(  59) = (  0.7490456  0.5010004  0.7490456  )
        60           Zn  tau(  60) = (  0.7490456  0.7490456  0.5010004  )
        61           S   tau(  61) = (  0.6250657  0.8752942  0.8752942  )
        62           S   tau(  62) = (  0.6234821  0.6234821  0.6234821  )
        63           S   tau(  63) = (  0.8752942  0.8752942  0.6250657  )
        64           S   tau(  64) = (  0.8752942  0.6250657  0.8752942  )

     number of k points=    10  Gaussian smearing, width (Ry)=  0.0010
                       cart. coord. in units 2pi/alat
        k(    1) = (   0.0000000   0.0000000   0.0000000), wk =   0.0156250
        k(    2) = (   0.0000000   0.0000000   0.2500000), wk =   0.0937500
        k(    3) = (   0.0000000   0.0000000  -0.5000000), wk =   0.0468750
        k(    4) = (   0.0000000   0.2500000   0.2500000), wk =   0.1875000
        k(    5) = (   0.0000000   0.2500000  -0.5000000), wk =   0.1875000
        k(    6) = (   0.0000000  -0.5000000  -0.5000000), wk =   0.0468750
        k(    7) = (   0.2500000   0.2500000   0.2500000), wk =   0.1250000
        k(    8) = (   0.2500000   0.2500000  -0.5000000), wk =   0.1875000
        k(    9) = (   0.2500000  -0.5000000  -0.5000000), wk =   0.0937500
        k(   10) = (  -0.5000000  -0.5000000  -0.5000000), wk =   0.0156250

                       cryst. coord.
        k(    1) = (   0.0000000   0.0000000   0.0000000), wk =   0.0156250
        k(    2) = (   0.0000000   0.0000000   0.2500000), wk =   0.0937500
        k(    3) = (   0.0000000   0.0000000  -0.5000000), wk =   0.0468750
        k(    4) = (   0.0000000   0.2500000   0.2500000), wk =   0.1875000
        k(    5) = (   0.0000000   0.2500000  -0.5000000), wk =   0.1875000
        k(    6) = (   0.0000000  -0.5000000  -0.5000000), wk =   0.0468750
        k(    7) = (   0.2500000   0.2500000   0.2500000), wk =   0.1250000
        k(    8) = (   0.2500000   0.2500000  -0.5000000), wk =   0.1875000
        k(    9) = (   0.2500000  -0.5000000  -0.5000000), wk =   0.0937500
        k(   10) = (  -0.5000000  -0.5000000  -0.5000000), wk =   0.0156250

     Dense  grid:  2160009 G-vectors     FFT dimensions: ( 162, 162, 162)

     Dynamical RAM for                 wfc:      12.83 MB

     Dynamical RAM for     wfc (w. buffer):      64.17 MB

     Dynamical RAM for           str. fact:       0.88 MB

     Dynamical RAM for           local pot:       0.00 MB

     Dynamical RAM for          nlocal pot:      42.36 MB

     Dynamical RAM for                qrad:       5.90 MB

     Dynamical RAM for          rho,v,vnew:       4.17 MB

     Dynamical RAM for               rhoin:       1.39 MB

     Dynamical RAM for            rho*nmix:       9.42 MB

     Dynamical RAM for           G-vectors:       1.25 MB

     Dynamical RAM for          h,s,v(r/c):       2.46 MB

     Dynamical RAM for          <psi|beta>:       6.13 MB

     Dynamical RAM for                 psi:      25.67 MB

     Dynamical RAM for                hpsi:      25.67 MB

     Dynamical RAM for                spsi:      25.67 MB

     Dynamical RAM for      wfcinit/wfcrot:      34.65 MB

     Dynamical RAM for           addusdens:      13.36 MB

     Dynamical RAM for          addusforce:      17.02 MB

     Dynamical RAM for         addusstress:      12.15 MB

     Estimated static dynamical RAM per process >     123.70 MB

     Estimated max dynamical RAM per process >     218.72 MB

     Estimated total dynamical RAM >     115.49 GB

     Check: negative core charge=   -0.000001
     Generating pointlists ...
     new r_m :   0.0882 (alat units)  1.8146 (a.u.) for type    1
     new r_m :   0.0890 (alat units)  1.8303 (a.u.) for type    2
     new r_m :   0.0882 (alat units)  1.8146 (a.u.) for type    3

     Initial potential from superposition of free atoms

     starting charge     580.8832, renormalised to     582.0000
     Starting wfcs are  417 randomized atomic wfcs
     Checking if some PAW data can be deallocated... 
       PAW data deallocated on  280 nodes for type:  1
       PAW data deallocated on  288 nodes for type:  2
       PAW data deallocated on  552 nodes for type:  3

     total cpu time spent up to now is      225.1 secs

     Self-consistent Calculation

     iteration #  1     ecut=   150.00 Ry     beta= 0.70
     Davidson diagonalization with overlap

---- Real-time Memory Report at c_bands before calling an iterative solver
          1315 MiB given to the printing process from OS
             0 MiB allocation reported by mallinfo(arena+hblkhd)
        205475 MiB available memory on the node where the printing process lives
------------------
     ethr =  1.00E-02,  avg # of iterations =  4.8

     Threshold (ethr) on eigenvalues was too large:
     Diagonalizing with lowered threshold

     Davidson diagonalization with overlap

---- Real-time Memory Report at c_bands before calling an iterative solver
          1437 MiB given to the printing process from OS
             0 MiB allocation reported by mallinfo(arena+hblkhd)
        202453 MiB available memory on the node where the printing process lives
------------------
     ethr =  4.74E-04,  avg # of iterations =  2.6

     total cpu time spent up to now is      309.8 secs

     total energy              =  -10055.51079538 Ry
     estimated scf accuracy    <       2.60638931 Ry

     total magnetization       =     2.00 Bohr mag/cell
     absolute magnetization    =     2.02 Bohr mag/cell

     iteration #  2     ecut=   150.00 Ry     beta= 0.70
     Davidson diagonalization with overlap

---- Real-time Memory Report at c_bands before calling an iterative solver
          1452 MiB given to the printing process from OS
             0 MiB allocation reported by mallinfo(arena+hblkhd)
        202406 MiB available memory on the node where the printing process lives
------------------
     ethr =  4.48E-04,  avg # of iterations = 12.2

     total cpu time spent up to now is      341.1 secs

     total energy              =  -10052.72999859 Ry
     estimated scf accuracy    <      58.79297882 Ry

     total magnetization       =     0.08 Bohr mag/cell
     absolute magnetization    =     0.14 Bohr mag/cell

     iteration #  3     ecut=   150.00 Ry     beta= 0.70
     Davidson diagonalization with overlap

---- Real-time Memory Report at c_bands before calling an iterative solver
          1480 MiB given to the printing process from OS
             0 MiB allocation reported by mallinfo(arena+hblkhd)
        202234 MiB available memory on the node where the printing process lives
------------------
     ethr =  4.48E-04,  avg # of iterations =  9.5

     total cpu time spent up to now is      371.0 secs

     total energy              =  -10056.25878736 Ry
     estimated scf accuracy    <       5.61978668 Ry

     total magnetization       =     0.65 Bohr mag/cell
     absolute magnetization    =     0.76 Bohr mag/cell

     iteration #  4     ecut=   150.00 Ry     beta= 0.70
     Davidson diagonalization with overlap

---- Real-time Memory Report at c_bands before calling an iterative solver
          1499 MiB given to the printing process from OS
             0 MiB allocation reported by mallinfo(arena+hblkhd)
        201953 MiB available memory on the node where the printing process lives
------------------
     ethr =  4.48E-04,  avg # of iterations =  2.0

     total cpu time spent up to now is      386.8 secs

     total energy              =  -10056.66845432 Ry
     estimated scf accuracy    <       0.19054430 Ry

     total magnetization       =     2.00 Bohr mag/cell
     absolute magnetization    =     2.03 Bohr mag/cell

     iteration #  5     ecut=   150.00 Ry     beta= 0.70
     Davidson diagonalization with overlap

---- Real-time Memory Report at c_bands before calling an iterative solver
          1509 MiB given to the printing process from OS
             0 MiB allocation reported by mallinfo(arena+hblkhd)
        201659 MiB available memory on the node where the printing process lives
------------------
     ethr =  3.27E-05,  avg # of iterations =  8.9

     total cpu time spent up to now is      410.1 secs

     total energy              =  -10056.70217230 Ry
     estimated scf accuracy    <       0.07692716 Ry

     total magnetization       =     2.03 Bohr mag/cell
     absolute magnetization    =     2.13 Bohr mag/cell

     iteration #  6     ecut=   150.00 Ry     beta= 0.70
     Davidson diagonalization with overlap

---- Real-time Memory Report at c_bands before calling an iterative solver
          1523 MiB given to the printing process from OS
             0 MiB allocation reported by mallinfo(arena+hblkhd)
        201550 MiB available memory on the node where the printing process lives
------------------
     c_bands:  1 eigenvalues not converged
     c_bands:  1 eigenvalues not converged
     ethr =  1.32E-05,  avg # of iterations = 15.2

     total cpu time spent up to now is      436.9 secs

     total energy              =  -10056.71625222 Ry
     estimated scf accuracy    <       0.01259781 Ry

     total magnetization       =     2.03 Bohr mag/cell
     absolute magnetization    =     2.15 Bohr mag/cell

     iteration #  7     ecut=   150.00 Ry     beta= 0.70
     Davidson diagonalization with overlap

---- Real-time Memory Report at c_bands before calling an iterative solver
          1543 MiB given to the printing process from OS
             0 MiB allocation reported by mallinfo(arena+hblkhd)
        201356 MiB available memory on the node where the printing process lives
------------------
     c_bands:  1 eigenvalues not converged
     c_bands:  1 eigenvalues not converged
     ethr =  2.16E-06,  avg # of iterations = 14.7

     total cpu time spent up to now is      466.1 secs

     total energy              =  -10056.71840526 Ry
     estimated scf accuracy    <       0.01867200 Ry

     total magnetization       =     2.20 Bohr mag/cell
     absolute magnetization    =     2.29 Bohr mag/cell

     iteration #  8     ecut=   150.00 Ry     beta= 0.70
     Davidson diagonalization with overlap

---- Real-time Memory Report at c_bands before calling an iterative solver
          1561 MiB given to the printing process from OS
             0 MiB allocation reported by mallinfo(arena+hblkhd)
        201180 MiB available memory on the node where the printing process lives
------------------
     ethr =  2.16E-06,  avg # of iterations =  5.0

     total cpu time spent up to now is      482.9 secs

     total energy              =  -10056.72001344 Ry
     estimated scf accuracy    <       0.00152426 Ry

     total magnetization       =     2.12 Bohr mag/cell
     absolute magnetization    =     2.28 Bohr mag/cell

     iteration #  9     ecut=   150.00 Ry     beta= 0.70
     Davidson diagonalization with overlap

---- Real-time Memory Report at c_bands before calling an iterative solver
          1568 MiB given to the printing process from OS
             0 MiB allocation reported by mallinfo(arena+hblkhd)
        200931 MiB available memory on the node where the printing process lives
------------------
     ethr =  2.62E-07,  avg # of iterations =  5.2

     total cpu time spent up to now is      501.9 secs

     total energy              =  -10056.72025922 Ry
     estimated scf accuracy    <       0.00048634 Ry

     total magnetization       =     2.17 Bohr mag/cell
     absolute magnetization    =     2.31 Bohr mag/cell

     iteration # 10     ecut=   150.00 Ry     beta= 0.70
     Davidson diagonalization with overlap

---- Real-time Memory Report at c_bands before calling an iterative solver
          1577 MiB given to the printing process from OS
             0 MiB allocation reported by mallinfo(arena+hblkhd)
        200858 MiB available memory on the node where the printing process lives
------------------
     ethr =  8.36E-08,  avg # of iterations =  5.6

     total cpu time spent up to now is      520.3 secs

     total energy              =  -10056.72035281 Ry
     estimated scf accuracy    <       0.00005041 Ry

     total magnetization       =     2.17 Bohr mag/cell
     absolute magnetization    =     2.31 Bohr mag/cell

     iteration # 11     ecut=   150.00 Ry     beta= 0.70
     Davidson diagonalization with overlap

---- Real-time Memory Report at c_bands before calling an iterative solver
          1584 MiB given to the printing process from OS
             0 MiB allocation reported by mallinfo(arena+hblkhd)
        200664 MiB available memory on the node where the printing process lives
------------------
     ethr =  8.66E-09,  avg # of iterations =  5.5

     total cpu time spent up to now is      543.1 secs

     total energy              =  -10056.72036436 Ry
     estimated scf accuracy    <       0.00003660 Ry

     total magnetization       =     2.16 Bohr mag/cell
     absolute magnetization    =     2.31 Bohr mag/cell

     iteration # 12     ecut=   150.00 Ry     beta= 0.70
     Davidson diagonalization with overlap

---- Real-time Memory Report at c_bands before calling an iterative solver
          1590 MiB given to the printing process from OS
             0 MiB allocation reported by mallinfo(arena+hblkhd)
        200736 MiB available memory on the node where the printing process lives
------------------
     ethr =  6.29E-09,  avg # of iterations =  3.7

     total cpu time spent up to now is      565.8 secs

     total energy              =  -10056.72036649 Ry
     estimated scf accuracy    <       0.00002116 Ry

     total magnetization       =     2.18 Bohr mag/cell
     absolute magnetization    =     2.32 Bohr mag/cell

     iteration # 13     ecut=   150.00 Ry     beta= 0.70
     Davidson diagonalization with overlap

---- Real-time Memory Report at c_bands before calling an iterative solver
          1594 MiB given to the printing process from OS
             0 MiB allocation reported by mallinfo(arena+hblkhd)
        200795 MiB available memory on the node where the printing process lives
------------------
     ethr =  3.64E-09,  avg # of iterations =  2.0

     total cpu time spent up to now is      587.3 secs

     total energy              =  -10056.72036767 Ry
     estimated scf accuracy    <       0.00003449 Ry

     total magnetization       =     2.16 Bohr mag/cell
     absolute magnetization    =     2.31 Bohr mag/cell

     iteration # 14     ecut=   150.00 Ry     beta= 0.70
     Davidson diagonalization with overlap

---- Real-time Memory Report at c_bands before calling an iterative solver
          1598 MiB given to the printing process from OS
             0 MiB allocation reported by mallinfo(arena+hblkhd)
        200789 MiB available memory on the node where the printing process lives
------------------
     ethr =  3.64E-09,  avg # of iterations =  1.0

     total cpu time spent up to now is      609.3 secs

     total energy              =  -10056.72036846 Ry
     estimated scf accuracy    <       0.00000008 Ry

     total magnetization       =     2.17 Bohr mag/cell
     absolute magnetization    =     2.31 Bohr mag/cell

     iteration # 15     ecut=   150.00 Ry     beta= 0.70
     Davidson diagonalization with overlap

---- Real-time Memory Report at c_bands before calling an iterative solver
          1600 MiB given to the printing process from OS
             0 MiB allocation reported by mallinfo(arena+hblkhd)
        200785 MiB available memory on the node where the printing process lives
------------------
     ethr =  1.44E-11,  avg # of iterations =  6.0

     total cpu time spent up to now is      643.7 secs

     total energy              =  -10056.72036853 Ry
     estimated scf accuracy    <       0.00000035 Ry

     total magnetization       =     2.17 Bohr mag/cell
     absolute magnetization    =     2.31 Bohr mag/cell

     iteration # 16     ecut=   150.00 Ry     beta= 0.70
     Davidson diagonalization with overlap

---- Real-time Memory Report at c_bands before calling an iterative solver
          1606 MiB given to the printing process from OS
             0 MiB allocation reported by mallinfo(arena+hblkhd)
        200826 MiB available memory on the node where the printing process lives
------------------
     ethr =  1.44E-11,  avg # of iterations =  3.6

     total cpu time spent up to now is      668.6 secs

     total energy              =  -10056.72036854 Ry
     estimated scf accuracy    <       0.00000012 Ry

     total magnetization       =     2.17 Bohr mag/cell
     absolute magnetization    =     2.31 Bohr mag/cell

     iteration # 17     ecut=   150.00 Ry     beta= 0.70
     Davidson diagonalization with overlap

---- Real-time Memory Report at c_bands before calling an iterative solver
          1611 MiB given to the printing process from OS
             0 MiB allocation reported by mallinfo(arena+hblkhd)
        200770 MiB available memory on the node where the printing process lives
------------------
     ethr =  1.44E-11,  avg # of iterations =  3.5

     total cpu time spent up to now is      692.3 secs

     total energy              =  -10056.72036855 Ry
     estimated scf accuracy    <       0.00000001 Ry

     total magnetization       =     2.17 Bohr mag/cell
     absolute magnetization    =     2.31 Bohr mag/cell

     iteration # 18     ecut=   150.00 Ry     beta= 0.70
     Davidson diagonalization with overlap

---- Real-time Memory Report at c_bands before calling an iterative solver
          1614 MiB given to the printing process from OS
             0 MiB allocation reported by mallinfo(arena+hblkhd)
        200769 MiB available memory on the node where the printing process lives
------------------
     ethr =  1.81E-12,  avg # of iterations =  6.1
 
     Magnetic moment per site  (integrated on atomic sphere of radius R)
     atom   1 (R=0.089)  charge= 10.1487  magn=  0.0001
     atom   2 (R=0.089)  charge= 10.1488  magn= -0.0002
     atom   3 (R=0.089)  charge= 10.1488  magn= -0.0002
     atom   4 (R=0.089)  charge= 10.1488  magn= -0.0002
     atom   5 (R=0.088)  charge=  3.9128  magn= -0.0001
     atom   6 (R=0.088)  charge=  3.9141  magn= -0.0001
     atom   7 (R=0.088)  charge=  3.9128  magn= -0.0001
     atom   8 (R=0.088)  charge=  3.9128  magn= -0.0001
     atom   9 (R=0.089)  charge= 10.1513  magn= -0.0008
     atom  10 (R=0.089)  charge= 10.1488  magn= -0.0002
     atom  11 (R=0.089)  charge= 10.1488  magn= -0.0002
     atom  12 (R=0.089)  charge= 10.1467  magn=  0.0008
     atom  13 (R=0.088)  charge=  3.9144  magn=  0.0013
     atom  14 (R=0.088)  charge=  3.9144  magn=  0.0013
     atom  15 (R=0.088)  charge=  3.9099  magn=  0.0286
     atom  16 (R=0.088)  charge=  3.9144  magn=  0.0013
     atom  17 (R=0.089)  charge= 10.1513  magn= -0.0008
     atom  18 (R=0.089)  charge= 10.1488  magn= -0.0002
     atom  19 (R=0.089)  charge= 10.1467  magn=  0.0008
     atom  20 (R=0.089)  charge= 10.1488  magn= -0.0002
     atom  21 (R=0.088)  charge=  3.9144  magn=  0.0013
     atom  22 (R=0.088)  charge=  3.9144  magn=  0.0013
     atom  23 (R=0.088)  charge=  3.9144  magn=  0.0013
     atom  24 (R=0.088)  charge=  3.9099  magn=  0.0286
     atom  25 (R=0.089)  charge= 10.1472  magn=  0.0002
     atom  26 (R=0.089)  charge= 10.1488  magn= -0.0002
     atom  27 (R=0.089)  charge= 10.1467  magn=  0.0008
     atom  28 (R=0.089)  charge= 10.1467  magn=  0.0008
     atom  29 (R=0.088)  charge=  3.9141  magn= -0.0001
     atom  30 (R=0.088)  charge=  3.9128  magn= -0.0001
     atom  31 (R=0.088)  charge=  3.9128  magn= -0.0001
     atom  32 (R=0.088)  charge=  3.9128  magn= -0.0001
     atom  33 (R=0.089)  charge= 10.1513  magn= -0.0008
     atom  34 (R=0.089)  charge= 10.1467  magn=  0.0008
     atom  35 (R=0.089)  charge= 10.1488  magn= -0.0002
     atom  36 (R=0.089)  charge= 10.1488  magn= -0.0002
     atom  37 (R=0.088)  charge=  3.9099  magn=  0.0286
     atom  38 (R=0.088)  charge=  3.9144  magn=  0.0013
     atom  39 (R=0.088)  charge=  3.9144  magn=  0.0013
     atom  40 (R=0.088)  charge=  3.9144  magn=  0.0013
     atom  41 (R=0.089)  charge= 10.1472  magn=  0.0002
     atom  42 (R=0.089)  charge= 10.1467  magn=  0.0008
     atom  43 (R=0.089)  charge= 10.1488  magn= -0.0002
     atom  44 (R=0.089)  charge= 10.1467  magn=  0.0008
     atom  45 (R=0.088)  charge=  3.9128  magn= -0.0001
     atom  46 (R=0.088)  charge=  3.9128  magn= -0.0001
     atom  47 (R=0.088)  charge=  3.9128  magn= -0.0001
     atom  48 (R=0.088)  charge=  3.9141  magn= -0.0001
     atom  49 (R=0.089)  charge= 10.1472  magn=  0.0002
     atom  50 (R=0.089)  charge= 10.1467  magn=  0.0008
     atom  51 (R=0.089)  charge= 10.1467  magn=  0.0008
     atom  52 (R=0.089)  charge= 10.1488  magn= -0.0002
     atom  53 (R=0.088)  charge=  3.9128  magn= -0.0001
     atom  54 (R=0.088)  charge=  3.9128  magn= -0.0001
     atom  55 (R=0.088)  charge=  3.9141  magn= -0.0001
     atom  56 (R=0.088)  charge=  3.9128  magn= -0.0001
     atom  57 (R=0.088)  charge= 15.1600  magn=  1.8384
     atom  58 (R=0.089)  charge= 10.1467  magn=  0.0008
     atom  59 (R=0.089)  charge= 10.1467  magn=  0.0008
     atom  60 (R=0.089)  charge= 10.1467  magn=  0.0008
     atom  61 (R=0.088)  charge=  3.9144  magn=  0.0013
     atom  62 (R=0.088)  charge=  3.9099  magn=  0.0286
     atom  63 (R=0.088)  charge=  3.9144  magn=  0.0013
     atom  64 (R=0.088)  charge=  3.9144  magn=  0.0013

     total cpu time spent up to now is      717.9 secs

     End of self-consistent calculation

 ------ SPIN UP ------------


          k = 0.0000 0.0000 0.0000 (269825 PWs)   bands (ev):

   -88.1870 -51.4904 -51.4904 -51.4904  -7.4509  -6.9294  -6.9294  -6.9121
    -6.9121  -6.9121  -6.8694  -6.6119  -6.6119  -6.6119  -6.6075  -6.6050
    -6.6050  -6.6025  -6.6025  -6.6025  -6.5993  -6.5993  -6.5993  -6.4876
    -6.4876  -6.4876  -6.3686  -6.2958  -6.2958  -6.2958  -6.2723  -6.2723
    -6.2723  -6.1111  -6.1111  -6.1111  -0.7301  -0.7301  -0.7301  -0.7258
    -0.7258  -0.7236  -0.6859  -0.6859  -0.6686  -0.6679  -0.6679  -0.6679
    -0.6027  -0.6027  -0.6027  -0.6018  -0.6018  -0.5863  -0.5863  -0.5863
    -0.5839  -0.5839  -0.5839  -0.5721  -0.5721  -0.5721  -0.5687  -0.5644
    -0.5644  -0.5644  -0.5534  -0.5534  -0.5508  -0.5508  -0.5508  -0.5495
    -0.5413  -0.5413  -0.5413  -0.5405  -0.5405  -0.5405  -0.5342  -0.5342
    -0.5342  -0.5091  -0.5091  -0.5082  -0.5082  -0.5082  -0.4993  -0.4986
    -0.4986  -0.4986  -0.4660  -0.4660  -0.4660  -0.4392  -0.4392  -0.4317
    -0.4317  -0.4317  -0.4047  -0.4047  -0.4047  -0.3932  -0.3932  -0.3932
    -0.3908  -0.3908  -0.3908  -0.3860  -0.3860  -0.3651  -0.3651  -0.3651
    -0.3608  -0.3608  -0.3608  -0.3567  -0.3064  -0.3064  -0.3064  -0.2771
    -0.2771  -0.2699  -0.2699  -0.2699  -0.2683  -0.2683  -0.2683  -0.2536
    -0.2536  -0.2491  -0.2456  -0.2428  -0.2428  -0.2428  -0.2284  -0.2284
    -0.2243  -0.2243  -0.2243  -0.2152  -0.2073  -0.2073  -0.2067  -0.1974
    -0.1974  -0.1929  -0.1929  -0.1929  -0.1908  -0.1908  -0.1908  -0.1858
    -0.1718  -0.1718  -0.1718  -0.1659  -0.1659  -0.1424  -0.1424  -0.1424
    -0.1416  -0.1416  -0.1405  -0.1180  -0.1180  -0.1180  -0.1173  -0.1173
    -0.1173  -0.1076  -0.1076  -0.1076  -0.1026  -0.1026  -0.0840  -0.0840
    -0.0840  -0.0803  -0.0114  -0.0114  -0.0114   0.0130   0.0130   0.0130
     0.0265   0.1543   0.1543   0.1543   0.1919   0.1919   0.1919   0.3956
     0.3956   0.3956   0.4312   1.0172   1.0195   1.0195   1.0663   1.0663
     1.0663   1.0759   1.0759   1.2726   1.5707   1.5707   1.5707   1.6522
     1.6522   1.6784   1.6784   1.6784   1.6841   1.6841   1.6841   2.0530
     2.8310   2.8310   2.8310   2.8510   2.8510   2.8961   2.8961   2.8961
     2.8975   2.8975   2.8975   2.9081   2.9448   2.9448   2.9448   2.9861
     2.9861   3.0760   3.0783   3.0783   3.0849   3.0849   3.0849   3.1088
     3.1088   3.1088   3.1697   3.1697   3.1697   3.3261   3.4093   3.4093
     3.4093   3.4102   3.4102   3.4102   3.9816   3.9816   3.9816   4.3459
     4.3459   4.3459   4.3565   4.3565   4.3565   4.3909   4.3909   4.3909
     4.5156   4.5156   4.5156   4.5502   4.5502   4.6518   4.6518   4.6518
     4.6571   4.6571   4.6571   4.6654   4.6763   4.6763   4.6763   4.6884
     4.6884   4.7599   4.7599   4.7599   5.3990   5.3990   5.3990   6.0967
     6.0967   6.3284   6.3284   6.3284   7.5793   8.8066   8.8066   8.8066
     8.8806   9.0198   9.0198   9.0198   9.6281   9.6281   9.6491   9.9793
     9.9793   9.9807   9.9807   9.9807  10.0247  10.1117  10.1117  10.1275
    10.1275  10.1275  10.1461  10.3069  10.3069  10.3069  10.3167  10.3167
    10.3167  10.3169  10.3169  10.3388  10.3388  10.3388  10.8276  11.2184
    11.2184  11.2184  11.2981  11.2981  11.2981  11.4624  11.4624  11.4624
    11.4739  11.4739  11.9129  11.9498  11.9498  11.9498  12.1540  12.1541
    12.1542  12.1706  12.1707  12.1708  12.1896

     occupation numbers 
     1.0000   1.0000   1.0000   1.0000   1.0000   1.0000   1.0000   1.0000
     1.0000   1.0000   1.0000   1.0000   1.0000   1.0000   1.0000   1.0000
     1.0000   1.0000   1.0000   1.0000   1.0000   1.0000   1.0000   1.0000
     1.0000   1.0000   1.0000   1.0000   1.0000   1.0000   1.0000   1.0000
     1.0000   1.0000   1.0000   1.0000   1.0000   1.0000   1.0000   1.0000
     1.0000   1.0000   1.0000   1.0000   1.0000   1.0000   1.0000   1.0000
     1.0000   1.0000   1.0000   1.0000   1.0000   1.0000   1.0000   1.0000
     1.0000   1.0000   1.0000   1.0000   1.0000   1.0000   1.0000   1.0000
     1.0000   1.0000   1.0000   1.0000   1.0000   1.0000   1.0000   1.0000
     1.0000   1.0000   1.0000   1.0000   1.0000   1.0000   1.0000   1.0000
     1.0000   1.0000   1.0000   1.0000   1.0000   1.0000   1.0000   1.0000
     1.0000   1.0000   1.0000   1.0000   1.0000   1.0000   1.0000   1.0000
     1.0000   1.0000   1.0000   1.0000   1.0000   1.0000   1.0000   1.0000
     1.0000   1.0000   1.0000   1.0000   1.0000   1.0000   1.0000   1.0000
     1.0000   1.0000   1.0000   1.0000   1.0000   1.0000   1.0000   1.0000
     1.0000   1.0000   1.0000   1.0000   1.0000   1.0000   1.0000   1.0000
     1.0000   1.0000   1.0000   1.0000   1.0000   1.0000   1.0000   1.0000
     1.0000   1.0000   1.0000   1.0000   1.0000   1.0000   1.0000   1.0000
     1.0000   1.0000   1.0000   1.0000   1.0000   1.0000   1.0000   1.0000
     1.0000   1.0000   1.0000   1.0000   1.0000   1.0000   1.0000   1.0000
     1.0000   1.0000   1.0000   1.0000   1.0000   1.0000   1.0000   1.0000
     1.0000   1.0000   1.0000   1.0000   1.0000   1.0000   1.0000   1.0000
     1.0000   1.0000   1.0000   1.0000   1.0000   1.0000   1.0000   1.0000
     1.0000   1.0000   1.0000   1.0000   1.0000   1.0000   1.0000   1.0000
     1.0000   1.0000   1.0000   1.0000   1.0000   1.0000   1.0000   1.0000
     1.0000   1.0000   1.0000   1.0000   1.0000   1.0000   1.0000   1.0000
     1.0000   1.0000   1.0000   1.0000   1.0000   1.0000   1.0000   1.0000
     1.0000   1.0000   1.0000   1.0000   1.0000   1.0000   1.0000   1.0000
     1.0000   1.0000   1.0000   1.0000   1.0000   1.0000   1.0000   1.0000
     1.0000   1.0000   1.0000   1.0000   1.0000   1.0000   1.0000   1.0000
     1.0000   1.0000   1.0000   1.0000   1.0000   1.0000   1.0000   1.0000
     1.0000   1.0000   1.0000   1.0000   1.0000   1.0000   1.0000   1.0000
     1.0000   1.0000   1.0000   1.0000   1.0000   1.0000   1.0000   1.0000
     1.0000   1.0000   1.0000   1.0000   1.0000   1.0000   1.0000   1.0000
     1.0000   1.0000   1.0000   1.0000   1.0000   1.0000   1.0000   1.0000
     1.0000   1.0000   1.0000   1.0000   1.0000   1.0000   1.0000   1.0000
     1.0000   1.0000   1.0000   1.0000   1.0000   0.0000   0.0000   0.0000
     0.0000   0.0000   0.0000   0.0000   0.0000   0.0000   0.0000   0.0000
     0.0000   0.0000   0.0000   0.0000   0.0000   0.0000   0.0000   0.0000
     0.0000   0.0000   0.0000   0.0000   0.0000   0.0000   0.0000   0.0000
     0.0000   0.0000   0.0000   0.0000   0.0000   0.0000   0.0000   0.0000
     0.0000   0.0000   0.0000   0.0000   0.0000   0.0000   0.0000   0.0000
     0.0000   0.0000   0.0000   0.0000   0.0000   0.0000   0.0000   0.0000
     0.0000   0.0000   0.0000   0.0000   0.0000

          k = 0.0000 0.0000 0.2500 (269876 PWs)   bands (ev):

   -88.1870 -51.4904 -51.4904 -51.4904  -7.4137  -7.1258  -6.9053  -6.8897
    -6.8897  -6.8698  -6.7289  -6.7132  -6.7132  -6.6917  -6.6827  -6.6085
    -6.6060  -6.6043  -6.6043  -6.5539  -6.5426  -6.5426  -6.4863  -6.4776
    -6.4431  -6.4431  -6.3414  -6.3347  -6.3021  -6.3021  -6.2974  -6.2826
    -6.2826  -6.1350  -6.1150  -6.1150  -0.7270  -0.7224  -0.7154  -0.7154
    -0.7094  -0.7073  -0.6833  -0.6706  -0.6703  -0.6602  -0.6602  -0.6550
    -0.6148  -0.6148  -0.6068  -0.6019  -0.6019  -0.5966  -0.5966  -0.5932
    -0.5882  -0.5863  -0.5863  -0.5806  -0.5796  -0.5796  -0.5704  -0.5677
    -0.5677  -0.5674  -0.5611  -0.5611  -0.5609  -0.5603  -0.5540  -0.5508
    -0.5508  -0.5484  -0.5467  -0.5436  -0.5373  -0.5361  -0.5361  -0.5257
    -0.5257  -0.5201  -0.5201  -0.5196  -0.5144  -0.5105  -0.5040  -0.5034
    -0.4833  -0.4833  -0.4826  -0.4752  -0.4686  -0.4657  -0.4657  -0.4506
    -0.4506  -0.4372  -0.4339  -0.4175  -0.4175  -0.4175  -0.4100  -0.4024
    -0.4024  -0.3889  -0.3889  -0.3672  -0.3593  -0.3593  -0.3583  -0.3440
    -0.3209  -0.3209  -0.3078  -0.3061  -0.3031  -0.2963  -0.2952  -0.2952
    -0.2773  -0.2677  -0.2677  -0.2666  -0.2601  -0.2538  -0.2538  -0.2451
    -0.2421  -0.2412  -0.2412  -0.2378  -0.2358  -0.2330  -0.2269  -0.2247
    -0.2247  -0.2188  -0.2170  -0.2145  -0.2105  -0.2075  -0.2039  -0.2037
    -0.2037  -0.2016  -0.1996  -0.1929  -0.1921  -0.1838  -0.1838  -0.1817
    -0.1715  -0.1681  -0.1655  -0.1572  -0.1572  -0.1487  -0.1433  -0.1433
    -0.1431  -0.1360  -0.1301  -0.1301  -0.1205  -0.1189  -0.1185  -0.1185
    -0.1079  -0.1070  -0.1040  -0.1007  -0.1007  -0.0913  -0.0846  -0.0840
    -0.0790  -0.0790  -0.0722  -0.0645  -0.0645  -0.0511  -0.0412   0.0355
     0.0355   0.1217   0.1217   0.1237   0.1539   0.1620   0.1620   0.5837
     0.5837   0.5958   0.6112   1.0193   1.0329   1.0428   1.0619   1.0781
     1.0781   1.0867   1.1698   1.2529   1.3517   1.3517   1.3615   1.3799
     1.4055   1.4055   1.4305   1.6560   2.0124   2.0124   2.0411   2.1114
     2.3622   2.6449   2.6569   2.6602   2.6602   2.7366   2.7366   2.7847
     2.8130   2.8186   2.8186   2.8207   2.9442   2.9499   2.9785   2.9785
     2.9936   3.2770   3.2959   3.2981   3.3062   3.3062   3.3183   3.3183
     3.3558   3.3860   3.4008   3.4209   3.4209   3.4472   3.4472   3.4817
     3.4887   3.4887   3.5593   3.6718   3.9016   3.9016   4.0581   4.0680
     4.0680   4.2224   4.2513   4.3046   4.3046   4.3318   4.3352   4.4112
     4.4112   4.4483   4.4617   4.4911   4.4911   4.4948   4.5785   4.5785
     4.5818   4.6549   4.6549   4.6549   4.6763   4.6823   4.7301   4.7593
     4.7593   4.7698   4.7814   4.7814   5.1062   5.3201   5.3201   6.0878
     6.1082   6.2335   6.2990   6.2990   7.9816   9.0194   9.0256   9.0256
     9.0893   9.1002   9.2464   9.2464   9.5120   9.6452   9.7197   9.8247
     9.8364  10.0366  10.0468  10.0468  10.0605  10.0705  10.0865  10.0865
    10.0972  10.1809  10.2731  10.2831  10.2831  10.3232  10.3276  10.3530
    10.3530  10.3804  10.4421  10.4543  10.4543  10.6544  10.7145  10.7145
    10.7608  11.0405  11.0655  11.0694  11.0694  11.0726  11.3656  11.5732
    11.5809  11.5809  11.7360  11.8172  11.8297  11.8578  11.8579  11.8958
    12.0045  12.0107  12.0113  12.0407  12.0461

     occupation numbers 
     1.0000   1.0000   1.0000   1.0000   1.0000   1.0000   1.0000   1.0000
     1.0000   1.0000   1.0000   1.0000   1.0000   1.0000   1.0000   1.0000
     1.0000   1.0000   1.0000   1.0000   1.0000   1.0000   1.0000   1.0000
     1.0000   1.0000   1.0000   1.0000   1.0000   1.0000   1.0000   1.0000
     1.0000   1.0000   1.0000   1.0000   1.0000   1.0000   1.0000   1.0000
     1.0000   1.0000   1.0000   1.0000   1.0000   1.0000   1.0000   1.0000
     1.0000   1.0000   1.0000   1.0000   1.0000   1.0000   1.0000   1.0000
     1.0000   1.0000   1.0000   1.0000   1.0000   1.0000   1.0000   1.0000
     1.0000   1.0000   1.0000   1.0000   1.0000   1.0000   1.0000   1.0000
     1.0000   1.0000   1.0000   1.0000   1.0000   1.0000   1.0000   1.0000
     1.0000   1.0000   1.0000   1.0000   1.0000   1.0000   1.0000   1.0000
     1.0000   1.0000   1.0000   1.0000   1.0000   1.0000   1.0000   1.0000
     1.0000   1.0000   1.0000   1.0000   1.0000   1.0000   1.0000   1.0000
     1.0000   1.0000   1.0000   1.0000   1.0000   1.0000   1.0000   1.0000
     1.0000   1.0000   1.0000   1.0000   1.0000   1.0000   1.0000   1.0000
     1.0000   1.0000   1.0000   1.0000   1.0000   1.0000   1.0000   1.0000
     1.0000   1.0000   1.0000   1.0000   1.0000   1.0000   1.0000   1.0000
     1.0000   1.0000   1.0000   1.0000   1.0000   1.0000   1.0000   1.0000
     1.0000   1.0000   1.0000   1.0000   1.0000   1.0000   1.0000   1.0000
     1.0000   1.0000   1.0000   1.0000   1.0000   1.0000   1.0000   1.0000
     1.0000   1.0000   1.0000   1.0000   1.0000   1.0000   1.0000   1.0000
     1.0000   1.0000   1.0000   1.0000   1.0000   1.0000   1.0000   1.0000
     1.0000   1.0000   1.0000   1.0000   1.0000   1.0000   1.0000   1.0000
     1.0000   1.0000   1.0000   1.0000   1.0000   1.0000   1.0000   1.0000
     1.0000   1.0000   1.0000   1.0000   1.0000   1.0000   1.0000   1.0000
     1.0000   1.0000   1.0000   1.0000   1.0000   1.0000   1.0000   1.0000
     1.0000   1.0000   1.0000   1.0000   1.0000   1.0000   1.0000   1.0000
     1.0000   1.0000   1.0000   1.0000   1.0000   1.0000   1.0000   1.0000
     1.0000   1.0000   1.0000   1.0000   1.0000   1.0000   1.0000   1.0000
     1.0000   1.0000   1.0000   1.0000   1.0000   1.0000   1.0000   1.0000
     1.0000   1.0000   1.0000   1.0000   1.0000   1.0000   1.0000   1.0000
     1.0000   1.0000   1.0000   1.0000   1.0000   1.0000   1.0000   1.0000
     1.0000   1.0000   1.0000   1.0000   1.0000   1.0000   1.0000   1.0000
     1.0000   1.0000   1.0000   1.0000   1.0000   1.0000   1.0000   1.0000
     1.0000   1.0000   1.0000   1.0000   1.0000   1.0000   1.0000   1.0000
     1.0000   1.0000   1.0000   1.0000   1.0000   1.0000   1.0000   1.0000
     1.0000   1.0000   1.0000   1.0000   0.7310   0.0000   0.0000   0.0000
     0.0000   0.0000   0.0000   0.0000   0.0000   0.0000   0.0000   0.0000
     0.0000   0.0000   0.0000   0.0000   0.0000   0.0000   0.0000   0.0000
     0.0000   0.0000   0.0000   0.0000   0.0000   0.0000   0.0000   0.0000
     0.0000   0.0000   0.0000   0.0000   0.0000   0.0000   0.0000   0.0000
     0.0000   0.0000   0.0000   0.0000   0.0000   0.0000   0.0000   0.0000
     0.0000   0.0000   0.0000   0.0000   0.0000   0.0000   0.0000   0.0000
     0.0000   0.0000   0.0000   0.0000   0.0000

          k = 0.0000 0.0000-0.5000 (270152 PWs)   bands (ev):

   -88.1870 -51.4904 -51.4904 -51.4904  -7.3277  -7.2727  -6.8453  -6.8448
    -6.8448  -6.8372  -6.8244  -6.7906  -6.7906  -6.7502  -6.6081  -6.6058
    -6.6034  -6.6034  -6.5493  -6.5356  -6.5356  -6.5064  -6.4687  -6.4635
    -6.3782  -6.3782  -6.3778  -6.3616  -6.3332  -6.3332  -6.2928  -6.2881
    -6.2881  -6.1674  -6.1189  -6.1189  -0.7226  -0.7202  -0.6853  -0.6853
    -0.6831  -0.6773  -0.6750  -0.6718  -0.6557  -0.6557  -0.6468  -0.6457
    -0.6457  -0.6392  -0.6377  -0.6216  -0.6061  -0.6061  -0.6050  -0.6010
    -0.5916  -0.5916  -0.5879  -0.5871  -0.5860  -0.5829  -0.5824  -0.5824
    -0.5787  -0.5787  -0.5672  -0.5620  -0.5613  -0.5613  -0.5597  -0.5512
    -0.5512  -0.5512  -0.5464  -0.5421  -0.5421  -0.5414  -0.5402  -0.5363
    -0.5280  -0.5250  -0.5250  -0.5201  -0.5201  -0.5173  -0.5092  -0.5036
    -0.4796  -0.4796  -0.4746  -0.4732  -0.4729  -0.4610  -0.4610  -0.4573
    -0.4537  -0.4453  -0.4453  -0.4240  -0.4240  -0.4150  -0.4141  -0.4054
    -0.4054  -0.3893  -0.3893  -0.3517  -0.3495  -0.3374  -0.3374  -0.3126
    -0.3087  -0.3087  -0.3030  -0.3014  -0.2889  -0.2814  -0.2814  -0.2757
    -0.2757  -0.2725  -0.2706  -0.2666  -0.2617  -0.2598  -0.2598  -0.2558
    -0.2491  -0.2412  -0.2354  -0.2354  -0.2327  -0.2326  -0.2326  -0.2286
    -0.2265  -0.2265  -0.2245  -0.2212  -0.2168  -0.2151  -0.2090  -0.2084
    -0.2041  -0.2010  -0.1981  -0.1943  -0.1877  -0.1877  -0.1803  -0.1767
    -0.1753  -0.1664  -0.1621  -0.1621  -0.1590  -0.1570  -0.1540  -0.1438
    -0.1375  -0.1375  -0.1361  -0.1361  -0.1256  -0.1227  -0.1180  -0.1180
    -0.1178  -0.1137  -0.1112  -0.1062  -0.0994  -0.0984  -0.0957  -0.0957
    -0.0870  -0.0839  -0.0839   0.0185   0.0185   0.0240   0.0312   0.0312
     0.0319   0.0495   0.0506   0.0943   0.0943   0.0962   0.0962   0.9289
     0.9289   0.9315   0.9536   0.9880   0.9880   1.0061   1.0196   1.0231
     1.0546   1.0604   1.0880   1.1142   1.1490   1.1598   1.1598   1.1696
     1.1910   1.1910   1.4993   1.6801   1.8445   2.3341   2.3341   2.3730
     2.4457   2.4532   2.4599   2.4599   2.6025   2.6108   2.6343   2.6343
     2.6364   2.6725   2.6806   2.6806   2.7708   3.1050   3.1050   3.1075
     3.1158   3.1517   3.1728   3.1856   3.1856   3.5169   3.5169   3.6327
     3.6652   3.6652   3.7338   3.7338   3.7547   3.8476   3.8494   3.8596
     3.8596   3.8623   3.8626   3.8742   3.8742   3.8987   3.8987   3.8996
     3.9306   3.9550   3.9615   3.9749   3.9749   3.9884   4.0135   4.0193
     4.0193   4.2964   4.4224   4.4224   4.5002   4.5445   4.5506   4.6459
     4.6541   4.6541   4.6602   4.6621   4.6739   4.6739   4.6782   4.6855
     4.7160   4.7160   4.7460   5.0244   5.0244   5.1517   5.1517   6.0798
     6.1190   6.1706   6.2695   6.2695   8.7396   8.7743   9.2618   9.3405
     9.5130   9.5243   9.5302   9.5302   9.5582   9.5582   9.6021   9.6633
     9.8201   9.8201   9.8328   9.9101   9.9101   9.9719  10.1739  10.1805
    10.1870  10.1870  10.1870  10.2105  10.2105  10.2915  10.3366  10.3440
    10.4070  10.5383  10.7052  10.7124  10.7124  10.7291  10.7302  10.7302
    10.7451  10.9288  10.9336  10.9381  10.9381  10.9434  10.9556  11.0597
    11.0597  11.1800  11.2880  11.4035  11.7649  11.7649  11.7697  11.7724
    11.8181  11.8181  11.8543  12.0431  12.0716

     occupation numbers 
     1.0000   1.0000   1.0000   1.0000   1.0000   1.0000   1.0000   1.0000
     1.0000   1.0000   1.0000   1.0000   1.0000   1.0000   1.0000   1.0000
     1.0000   1.0000   1.0000   1.0000   1.0000   1.0000   1.0000   1.0000
     1.0000   1.0000   1.0000   1.0000   1.0000   1.0000   1.0000   1.0000
     1.0000   1.0000   1.0000   1.0000   1.0000   1.0000   1.0000   1.0000
     1.0000   1.0000   1.0000   1.0000   1.0000   1.0000   1.0000   1.0000
     1.0000   1.0000   1.0000   1.0000   1.0000   1.0000   1.0000   1.0000
     1.0000   1.0000   1.0000   1.0000   1.0000   1.0000   1.0000   1.0000
     1.0000   1.0000   1.0000   1.0000   1.0000   1.0000   1.0000   1.0000
     1.0000   1.0000   1.0000   1.0000   1.0000   1.0000   1.0000   1.0000
     1.0000   1.0000   1.0000   1.0000   1.0000   1.0000   1.0000   1.0000
     1.0000   1.0000   1.0000   1.0000   1.0000   1.0000   1.0000   1.0000
     1.0000   1.0000   1.0000   1.0000   1.0000   1.0000   1.0000   1.0000
     1.0000   1.0000   1.0000   1.0000   1.0000   1.0000   1.0000   1.0000
     1.0000   1.0000   1.0000   1.0000   1.0000   1.0000   1.0000   1.0000
     1.0000   1.0000   1.0000   1.0000   1.0000   1.0000   1.0000   1.0000
     1.0000   1.0000   1.0000   1.0000   1.0000   1.0000   1.0000   1.0000
     1.0000   1.0000   1.0000   1.0000   1.0000   1.0000   1.0000   1.0000
     1.0000   1.0000   1.0000   1.0000   1.0000   1.0000   1.0000   1.0000
     1.0000   1.0000   1.0000   1.0000   1.0000   1.0000   1.0000   1.0000
     1.0000   1.0000   1.0000   1.0000   1.0000   1.0000   1.0000   1.0000
     1.0000   1.0000   1.0000   1.0000   1.0000   1.0000   1.0000   1.0000
     1.0000   1.0000   1.0000   1.0000   1.0000   1.0000   1.0000   1.0000
     1.0000   1.0000   1.0000   1.0000   1.0000   1.0000   1.0000   1.0000
     1.0000   1.0000   1.0000   1.0000   1.0000   1.0000   1.0000   1.0000
     1.0000   1.0000   1.0000   1.0000   1.0000   1.0000   1.0000   1.0000
     1.0000   1.0000   1.0000   1.0000   1.0000   1.0000   1.0000   1.0000
     1.0000   1.0000   1.0000   1.0000   1.0000   1.0000   1.0000   1.0000
     1.0000   1.0000   1.0000   1.0000   1.0000   1.0000   1.0000   1.0000
     1.0000   1.0000   1.0000   1.0000   1.0000   1.0000   1.0000   1.0000
     1.0000   1.0000   1.0000   1.0000   1.0000   1.0000   1.0000   1.0000
     1.0000   1.0000   1.0000   1.0000   1.0000   1.0000   1.0000   1.0000
     1.0000   1.0000   1.0000   1.0000   1.0000   1.0000   1.0000   1.0000
     1.0000   1.0000   1.0000   1.0000   1.0000   1.0000   1.0000   1.0000
     1.0000   1.0000   1.0000   1.0000   1.0000   1.0000   1.0000   1.0000
     1.0000   1.0000   1.0000   1.0000   1.0000   1.0000   1.0000   1.0000
     1.0000   1.0000   1.0000   1.0000   0.0000   0.0000   0.0000   0.0000
     0.0000   0.0000   0.0000   0.0000   0.0000   0.0000   0.0000   0.0000
     0.0000   0.0000   0.0000   0.0000   0.0000   0.0000   0.0000   0.0000
     0.0000   0.0000   0.0000   0.0000   0.0000   0.0000   0.0000   0.0000
     0.0000   0.0000   0.0000   0.0000   0.0000   0.0000   0.0000   0.0000
     0.0000   0.0000   0.0000   0.0000   0.0000   0.0000   0.0000   0.0000
     0.0000   0.0000   0.0000   0.0000   0.0000   0.0000   0.0000   0.0000
     0.0000   0.0000   0.0000   0.0000   0.0000

          k = 0.0000 0.2500 0.2500 (269929 PWs)   bands (ev):

   -88.1870 -51.4904 -51.4904 -51.4904  -7.3773  -7.1065  -7.0861  -6.8832
    -6.8669  -6.8531  -6.7152  -6.7071  -6.7035  -6.6887  -6.6717  -6.6604
    -6.6065  -6.5887  -6.5634  -6.5617  -6.5162  -6.4961  -6.4826  -6.4480
    -6.4414  -6.4065  -6.3435  -6.3432  -6.3140  -6.3128  -6.3098  -6.3009
    -6.2939  -6.1385  -6.1379  -6.1189  -0.7142  -0.7122  -0.7055  -0.7043
    -0.7022  -0.6928  -0.6698  -0.6695  -0.6647  -0.6544  -0.6527  -0.6457
    -0.6184  -0.6164  -0.6160  -0.6122  -0.6082  -0.6021  -0.6007  -0.5998
    -0.5960  -0.5946  -0.5904  -0.5899  -0.5815  -0.5802  -0.5779  -0.5737
    -0.5714  -0.5689  -0.5668  -0.5643  -0.5643  -0.5625  -0.5618  -0.5589
    -0.5550  -0.5525  -0.5502  -0.5472  -0.5408  -0.5373  -0.5349  -0.5346
    -0.5273  -0.5229  -0.5185  -0.5123  -0.5108  -0.5083  -0.5052  -0.4900
    -0.4885  -0.4808  -0.4759  -0.4748  -0.4688  -0.4592  -0.4567  -0.4499
    -0.4476  -0.4446  -0.4361  -0.4321  -0.4289  -0.4198  -0.4160  -0.4133
    -0.4059  -0.4004  -0.3920  -0.3908  -0.3839  -0.3713  -0.3625  -0.3351
    -0.3238  -0.3168  -0.3145  -0.3007  -0.2950  -0.2903  -0.2879  -0.2818
    -0.2808  -0.2754  -0.2747  -0.2731  -0.2610  -0.2567  -0.2529  -0.2448
    -0.2417  -0.2386  -0.2357  -0.2351  -0.2309  -0.2303  -0.2270  -0.2246
    -0.2181  -0.2167  -0.2155  -0.2147  -0.2108  -0.2097  -0.2090  -0.2066
    -0.2037  -0.1988  -0.1974  -0.1974  -0.1956  -0.1927  -0.1872  -0.1771
    -0.1769  -0.1662  -0.1638  -0.1630  -0.1515  -0.1490  -0.1466  -0.1403
    -0.1388  -0.1385  -0.1276  -0.1248  -0.1242  -0.1198  -0.1193  -0.1168
    -0.1168  -0.1074  -0.1045  -0.1014  -0.0973  -0.0907  -0.0849  -0.0781
    -0.0667  -0.0639  -0.0560  -0.0297  -0.0265  -0.0025   0.0114   0.0290
     0.0587   0.0863   0.0913   0.1184   0.1220   0.1480   0.1563   0.5081
     0.5233   0.8902   0.8980   1.0064   1.0278   1.0293   1.0366   1.0780
     1.1005   1.1132   1.1441   1.1518   1.1525   1.1574   1.2126   1.2416
     1.4540   1.6109   1.6782   1.7412   1.7637   1.8145   1.9471   2.1971
     2.2525   2.4772   2.5651   2.5736   2.6146   2.6439   2.6791   2.6983
     2.7585   2.8445   2.8555   3.0242   3.0326   3.0819   3.0999   3.1143
     3.1318   3.1660   3.2598   3.2851   3.3352   3.3378   3.3817   3.4012
     3.4113   3.4263   3.4404   3.4884   3.5144   3.5266   3.5427   3.6439
     3.7005   3.7357   3.7646   3.7961   3.8495   3.9093   3.9458   4.0170
     4.0672   4.1311   4.1600   4.1882   4.2065   4.2523   4.2950   4.3267
     4.3472   4.3530   4.3580   4.3755   4.4253   4.4531   4.5181   4.5212
     4.5917   4.5953   4.6147   4.6410   4.6531   4.6588   4.7178   4.7294
     4.7632   4.7804   4.8801   4.9091   4.9912   5.2300   5.3707   6.0958
     6.0994   6.2108   6.2678   6.3117   8.2373   9.0500   9.0767   9.3073
     9.3187   9.3204   9.3762   9.3916   9.5397   9.5690   9.8669   9.8709
     9.9021   9.9037   9.9168   9.9310   9.9501   9.9624   9.9762   9.9858
    10.0504  10.1180  10.1655  10.1842  10.2096  10.2985  10.3023  10.3226
    10.3387  10.4029  10.5143  10.6804  10.6861  10.6940  10.7708  10.7941
    10.8377  10.8678  10.8899  10.9901  11.0110  11.0676  11.3222  11.4234
    11.4275  11.4552  11.5044  11.5075  11.7264  11.7847  11.7959  11.8076
    11.8368  11.8960  11.9213  11.9281  11.9304

     occupation numbers 
     1.0000   1.0000   1.0000   1.0000   1.0000   1.0000   1.0000   1.0000
     1.0000   1.0000   1.0000   1.0000   1.0000   1.0000   1.0000   1.0000
     1.0000   1.0000   1.0000   1.0000   1.0000   1.0000   1.0000   1.0000
     1.0000   1.0000   1.0000   1.0000   1.0000   1.0000   1.0000   1.0000
     1.0000   1.0000   1.0000   1.0000   1.0000   1.0000   1.0000   1.0000
     1.0000   1.0000   1.0000   1.0000   1.0000   1.0000   1.0000   1.0000
     1.0000   1.0000   1.0000   1.0000   1.0000   1.0000   1.0000   1.0000
     1.0000   1.0000   1.0000   1.0000   1.0000   1.0000   1.0000   1.0000
     1.0000   1.0000   1.0000   1.0000   1.0000   1.0000   1.0000   1.0000
     1.0000   1.0000   1.0000   1.0000   1.0000   1.0000   1.0000   1.0000
     1.0000   1.0000   1.0000   1.0000   1.0000   1.0000   1.0000   1.0000
     1.0000   1.0000   1.0000   1.0000   1.0000   1.0000   1.0000   1.0000
     1.0000   1.0000   1.0000   1.0000   1.0000   1.0000   1.0000   1.0000
     1.0000   1.0000   1.0000   1.0000   1.0000   1.0000   1.0000   1.0000
     1.0000   1.0000   1.0000   1.0000   1.0000   1.0000   1.0000   1.0000
     1.0000   1.0000   1.0000   1.0000   1.0000   1.0000   1.0000   1.0000
     1.0000   1.0000   1.0000   1.0000   1.0000   1.0000   1.0000   1.0000
     1.0000   1.0000   1.0000   1.0000   1.0000   1.0000   1.0000   1.0000
     1.0000   1.0000   1.0000   1.0000   1.0000   1.0000   1.0000   1.0000
     1.0000   1.0000   1.0000   1.0000   1.0000   1.0000   1.0000   1.0000
     1.0000   1.0000   1.0000   1.0000   1.0000   1.0000   1.0000   1.0000
     1.0000   1.0000   1.0000   1.0000   1.0000   1.0000   1.0000   1.0000
     1.0000   1.0000   1.0000   1.0000   1.0000   1.0000   1.0000   1.0000
     1.0000   1.0000   1.0000   1.0000   1.0000   1.0000   1.0000   1.0000
     1.0000   1.0000   1.0000   1.0000   1.0000   1.0000   1.0000   1.0000
     1.0000   1.0000   1.0000   1.0000   1.0000   1.0000   1.0000   1.0000
     1.0000   1.0000   1.0000   1.0000   1.0000   1.0000   1.0000   1.0000
     1.0000   1.0000   1.0000   1.0000   1.0000   1.0000   1.0000   1.0000
     1.0000   1.0000   1.0000   1.0000   1.0000   1.0000   1.0000   1.0000
     1.0000   1.0000   1.0000   1.0000   1.0000   1.0000   1.0000   1.0000
     1.0000   1.0000   1.0000   1.0000   1.0000   1.0000   1.0000   1.0000
     1.0000   1.0000   1.0000   1.0000   1.0000   1.0000   1.0000   1.0000
     1.0000   1.0000   1.0000   1.0000   1.0000   1.0000   1.0000   1.0000
     1.0000   1.0000   1.0000   1.0000   1.0000   1.0000   1.0000   1.0000
     1.0000   1.0000   1.0000   1.0000   1.0000   1.0000   1.0000   1.0000
     1.0000   1.0000   1.0000   1.0000   1.0000   1.0000   1.0000   1.0000
     1.0000   1.0000   1.0000   1.0000   0.0000   0.0000   0.0000   0.0000
     0.0000   0.0000   0.0000   0.0000   0.0000   0.0000   0.0000   0.0000
     0.0000   0.0000   0.0000   0.0000   0.0000   0.0000   0.0000   0.0000
     0.0000   0.0000   0.0000   0.0000   0.0000   0.0000   0.0000   0.0000
     0.0000   0.0000   0.0000   0.0000   0.0000   0.0000   0.0000   0.0000
     0.0000   0.0000   0.0000   0.0000   0.0000   0.0000   0.0000   0.0000
     0.0000   0.0000   0.0000   0.0000   0.0000   0.0000   0.0000   0.0000
     0.0000   0.0000   0.0000   0.0000   0.0000

          k = 0.0000 0.2500-0.5000 (269962 PWs)   bands (ev):

   -88.1870 -51.4904 -51.4904 -51.4904  -7.2932  -7.2404  -7.0339  -6.9784
    -6.8234  -6.8228  -6.7783  -6.7730  -6.6888  -6.6874  -6.6467  -6.6283
    -6.6169  -6.5913  -6.5067  -6.5040  -6.4852  -6.4779  -6.4590  -6.4403
    -6.4089  -6.3959  -6.3797  -6.3624  -6.3543  -6.3310  -6.3219  -6.2990
    -6.2834  -6.1680  -6.1414  -6.1226  -0.7109  -0.7010  -0.6878  -0.6766
    -0.6739  -0.6672  -0.6662  -0.6631  -0.6576  -0.6481  -0.6410  -0.6396
    -0.6382  -0.6357  -0.6312  -0.6195  -0.6177  -0.6143  -0.6082  -0.6053
    -0.6049  -0.6004  -0.5980  -0.5955  -0.5929  -0.5869  -0.5848  -0.5809
    -0.5795  -0.5776  -0.5738  -0.5692  -0.5679  -0.5641  -0.5611  -0.5596
    -0.5580  -0.5558  -0.5476  -0.5471  -0.5446  -0.5427  -0.5357  -0.5347
    -0.5266  -0.5260  -0.5196  -0.5168  -0.5086  -0.5069  -0.4993  -0.4902
    -0.4843  -0.4748  -0.4745  -0.4725  -0.4656  -0.4648  -0.4611  -0.4546
    -0.4417  -0.4378  -0.4296  -0.4289  -0.4271  -0.4222  -0.4143  -0.4058
    -0.4022  -0.3998  -0.3986  -0.3936  -0.3832  -0.3773  -0.3740  -0.3621
    -0.3521  -0.3415  -0.3313  -0.3287  -0.3119  -0.3069  -0.3033  -0.2796
    -0.2735  -0.2725  -0.2594  -0.2591  -0.2568  -0.2546  -0.2530  -0.2467
    -0.2450  -0.2326  -0.2304  -0.2271  -0.2269  -0.2244  -0.2230  -0.2222
    -0.2212  -0.2167  -0.2137  -0.2097  -0.2091  -0.2072  -0.2059  -0.2015
    -0.2010  -0.2002  -0.1972  -0.1966  -0.1947  -0.1943  -0.1784  -0.1783
    -0.1712  -0.1657  -0.1606  -0.1596  -0.1489  -0.1467  -0.1389  -0.1362
    -0.1326  -0.1303  -0.1291  -0.1269  -0.1252  -0.1214  -0.1199  -0.1168
    -0.1127  -0.1082  -0.1009  -0.0992  -0.0962  -0.0959  -0.0886  -0.0427
    -0.0424  -0.0359  -0.0187  -0.0179  -0.0020   0.0154   0.0280   0.0420
     0.0433   0.0516   0.0613   0.1038   0.1055   0.1121   0.1127   0.7490
     0.7553   0.7766   0.7778   0.9783   0.9983   1.0099   1.0174   1.0312
     1.0439   1.0452   1.1129   1.1983   1.2527   1.3123   1.3210   1.3368
     1.3379   1.3533   1.4989   1.6347   1.7682   1.9511   2.0187   2.1470
     2.1940   2.2253   2.3611   2.4894   2.5051   2.7600   2.7644   2.8310
     2.8507   2.8605   2.8675   2.9201   2.9454   2.9556   2.9859   3.1066
     3.1378   3.3142   3.3287   3.4249   3.4861   3.4891   3.5218   3.5402
     3.5570   3.5666   3.5945   3.6495   3.6613   3.6687   3.6883   3.6990
     3.7465   3.8123   3.8394   3.8541   3.8913   3.9134   3.9401   3.9771
     3.9929   4.0740   4.0847   4.1122   4.1492   4.1642   4.1746   4.1764
     4.2411   4.2470   4.2753   4.2857   4.3193   4.4035   4.4117   4.4118
     4.4422   4.5119   4.5395   4.5777   4.6142   4.6661   4.6877   4.6966
     4.7187   4.9300   4.9983   5.0187   5.0365   5.1867   5.2641   6.0845
     6.1112   6.2199   6.2427   6.2820   8.8349   8.8720   9.4215   9.4261
     9.4366   9.4660   9.5006   9.5865   9.6611   9.6623   9.6986   9.7110
     9.8608   9.8676   9.8903   9.8944   9.9018   9.9032   9.9161   9.9301
     9.9843   9.9998  10.0052  10.0973  10.1177  10.2378  10.3731  10.4154
    10.4601  10.5052  10.5512  10.5635  10.6510  10.6603  10.6977  10.7853
    10.7853  10.8803  10.9180  11.0129  11.1132  11.2068  11.2984  11.3234
    11.3465  11.3722  11.3946  11.4034  11.4357  11.5178  11.5455  11.6060
    11.6132  11.7149  11.7508  11.7830  11.8227

     occupation numbers 
     1.0000   1.0000   1.0000   1.0000   1.0000   1.0000   1.0000   1.0000
     1.0000   1.0000   1.0000   1.0000   1.0000   1.0000   1.0000   1.0000
     1.0000   1.0000   1.0000   1.0000   1.0000   1.0000   1.0000   1.0000
     1.0000   1.0000   1.0000   1.0000   1.0000   1.0000   1.0000   1.0000
     1.0000   1.0000   1.0000   1.0000   1.0000   1.0000   1.0000   1.0000
     1.0000   1.0000   1.0000   1.0000   1.0000   1.0000   1.0000   1.0000
     1.0000   1.0000   1.0000   1.0000   1.0000   1.0000   1.0000   1.0000
     1.0000   1.0000   1.0000   1.0000   1.0000   1.0000   1.0000   1.0000
     1.0000   1.0000   1.0000   1.0000   1.0000   1.0000   1.0000   1.0000
     1.0000   1.0000   1.0000   1.0000   1.0000   1.0000   1.0000   1.0000
     1.0000   1.0000   1.0000   1.0000   1.0000   1.0000   1.0000   1.0000
     1.0000   1.0000   1.0000   1.0000   1.0000   1.0000   1.0000   1.0000
     1.0000   1.0000   1.0000   1.0000   1.0000   1.0000   1.0000   1.0000
     1.0000   1.0000   1.0000   1.0000   1.0000   1.0000   1.0000   1.0000
     1.0000   1.0000   1.0000   1.0000   1.0000   1.0000   1.0000   1.0000
     1.0000   1.0000   1.0000   1.0000   1.0000   1.0000   1.0000   1.0000
     1.0000   1.0000   1.0000   1.0000   1.0000   1.0000   1.0000   1.0000
     1.0000   1.0000   1.0000   1.0000   1.0000   1.0000   1.0000   1.0000
     1.0000   1.0000   1.0000   1.0000   1.0000   1.0000   1.0000   1.0000
     1.0000   1.0000   1.0000   1.0000   1.0000   1.0000   1.0000   1.0000
     1.0000   1.0000   1.0000   1.0000   1.0000   1.0000   1.0000   1.0000
     1.0000   1.0000   1.0000   1.0000   1.0000   1.0000   1.0000   1.0000
     1.0000   1.0000   1.0000   1.0000   1.0000   1.0000   1.0000   1.0000
     1.0000   1.0000   1.0000   1.0000   1.0000   1.0000   1.0000   1.0000
     1.0000   1.0000   1.0000   1.0000   1.0000   1.0000   1.0000   1.0000
     1.0000   1.0000   1.0000   1.0000   1.0000   1.0000   1.0000   1.0000
     1.0000   1.0000   1.0000   1.0000   1.0000   1.0000   1.0000   1.0000
     1.0000   1.0000   1.0000   1.0000   1.0000   1.0000   1.0000   1.0000
     1.0000   1.0000   1.0000   1.0000   1.0000   1.0000   1.0000   1.0000
     1.0000   1.0000   1.0000   1.0000   1.0000   1.0000   1.0000   1.0000
     1.0000   1.0000   1.0000   1.0000   1.0000   1.0000   1.0000   1.0000
     1.0000   1.0000   1.0000   1.0000   1.0000   1.0000   1.0000   1.0000
     1.0000   1.0000   1.0000   1.0000   1.0000   1.0000   1.0000   1.0000
     1.0000   1.0000   1.0000   1.0000   1.0000   1.0000   1.0000   1.0000
     1.0000   1.0000   1.0000   1.0000   1.0000   1.0000   1.0000   1.0000
     1.0000   1.0000   1.0000   1.0000   1.0000   1.0000   1.0000   1.0000
     1.0000   1.0000   1.0000   1.0000   0.0000   0.0000   0.0000   0.0000
[...]
     atom   18 type  2   force =     0.00000000    0.00000000    0.00000000
     atom   19 type  2   force =     0.00000000    0.00000000    0.00000000
     atom   20 type  2   force =     0.00000000    0.00000000    0.00000000
     atom   21 type  1   force =     0.00000000    0.00000000    0.00000000
     atom   22 type  1   force =     0.00000000    0.00000000    0.00000000
     atom   23 type  1   force =     0.00000000    0.00000000    0.00000000
     atom   24 type  1   force =     0.00000000    0.00000000    0.00000000
     atom   25 type  2   force =     0.00000000    0.00000000    0.00000000
     atom   26 type  2   force =     0.00000000    0.00000000    0.00000000
     atom   27 type  2   force =     0.00000000    0.00000000    0.00000000
     atom   28 type  2   force =     0.00000000    0.00000000    0.00000000
     atom   29 type  1   force =     0.00000000    0.00000000    0.00000000
     atom   30 type  1   force =     0.00000000    0.00000000    0.00000000
     atom   31 type  1   force =     0.00000000    0.00000000    0.00000000
     atom   32 type  1   force =     0.00000000    0.00000000    0.00000000
     atom   33 type  2   force =     0.00000000    0.00000000    0.00000000
     atom   34 type  2   force =     0.00000000    0.00000000    0.00000000
     atom   35 type  2   force =     0.00000000    0.00000000    0.00000000
     atom   36 type  2   force =     0.00000000    0.00000000    0.00000000
     atom   37 type  1   force =     0.00000000    0.00000000    0.00000000
     atom   38 type  1   force =     0.00000000    0.00000000    0.00000000
     atom   39 type  1   force =     0.00000000    0.00000000    0.00000000
     atom   40 type  1   force =     0.00000000    0.00000000    0.00000000
     atom   41 type  2   force =     0.00000000    0.00000000    0.00000000
     atom   42 type  2   force =     0.00000000    0.00000000    0.00000000
     atom   43 type  2   force =     0.00000000    0.00000000    0.00000000
     atom   44 type  2   force =     0.00000000    0.00000000    0.00000000
     atom   45 type  1   force =     0.00000000    0.00000000    0.00000000
     atom   46 type  1   force =     0.00000000    0.00000000    0.00000000
     atom   47 type  1   force =     0.00000000    0.00000000    0.00000000
     atom   48 type  1   force =     0.00000000    0.00000000    0.00000000
     atom   49 type  2   force =     0.00000000    0.00000000    0.00000000
     atom   50 type  2   force =     0.00000000    0.00000000    0.00000000
     atom   51 type  2   force =     0.00000000    0.00000000    0.00000000
     atom   52 type  2   force =     0.00000000    0.00000000    0.00000000
     atom   53 type  1   force =     0.00000000    0.00000000    0.00000000
     atom   54 type  1   force =     0.00000000    0.00000000    0.00000000
     atom   55 type  1   force =     0.00000000    0.00000000    0.00000000
     atom   56 type  1   force =     0.00000000    0.00000000    0.00000000
     atom   57 type  3   force =     0.00000000    0.00000000    0.00000000
     atom   58 type  2   force =     0.00000000    0.00000000    0.00000000
     atom   59 type  2   force =     0.00000000    0.00000000    0.00000000
     atom   60 type  2   force =     0.00000000    0.00000000    0.00000000
     atom   61 type  1   force =     0.00000000    0.00000000    0.00000000
     atom   62 type  1   force =     0.00000000    0.00000000    0.00000000
     atom   63 type  1   force =     0.00000000    0.00000000    0.00000000
     atom   64 type  1   force =     0.00000000    0.00000000    0.00000000
     The SCF correction term to forces
     atom    1 type  2   force =    -0.00000000   -0.00000000   -0.00000000
     atom    2 type  2   force =    -0.00000287    0.00000340    0.00000340
     atom    3 type  2   force =     0.00000340   -0.00000287    0.00000340
     atom    4 type  2   force =     0.00000340    0.00000340   -0.00000287
     atom    5 type  1   force =    -0.00000189   -0.00000006   -0.00000006
     atom    6 type  1   force =    -0.00000050   -0.00000050   -0.00000050
     atom    7 type  1   force =    -0.00000006   -0.00000006   -0.00000189
     atom    8 type  1   force =    -0.00000006   -0.00000189   -0.00000006
     atom    9 type  2   force =     0.00000000   -0.00000000    0.00000000
     atom   10 type  2   force =     0.00000287    0.00000340   -0.00000340
     atom   11 type  2   force =     0.00000340    0.00000287   -0.00000340
     atom   12 type  2   force =    -0.00000401   -0.00000401    0.00000083
     atom   13 type  1   force =     0.00000058   -0.00000112   -0.00000058
     atom   14 type  1   force =     0.00000058    0.00000058    0.00000112
     atom   15 type  1   force =    -0.00000260   -0.00000260    0.00000260
     atom   16 type  1   force =    -0.00000112    0.00000058   -0.00000058
     atom   17 type  2   force =    -0.00000000    0.00000000   -0.00000000
     atom   18 type  2   force =     0.00000287   -0.00000340    0.00000340
     atom   19 type  2   force =    -0.00000401    0.00000083   -0.00000401
     atom   20 type  2   force =     0.00000340   -0.00000340    0.00000287
     atom   21 type  1   force =     0.00000058   -0.00000058   -0.00000112
     atom   22 type  1   force =     0.00000058    0.00000112    0.00000058
     atom   23 type  1   force =    -0.00000112   -0.00000058    0.00000058
     atom   24 type  1   force =    -0.00000260    0.00000260   -0.00000260
     atom   25 type  2   force =     0.00000000    0.00000000    0.00000000
     atom   26 type  2   force =    -0.00000287   -0.00000340   -0.00000340
     atom   27 type  2   force =    -0.00000401   -0.00000083    0.00000401
     atom   28 type  2   force =    -0.00000401    0.00000401   -0.00000083
     atom   29 type  1   force =    -0.00000050    0.00000050    0.00000050
     atom   30 type  1   force =    -0.00000189    0.00000006    0.00000006
     atom   31 type  1   force =    -0.00000006    0.00000189    0.00000006
     atom   32 type  1   force =    -0.00000006    0.00000006    0.00000189
     atom   33 type  2   force =    -0.00000000   -0.00000000   -0.00000000
     atom   34 type  2   force =     0.00000083   -0.00000401   -0.00000401
     atom   35 type  2   force =    -0.00000340    0.00000287    0.00000340
     atom   36 type  2   force =    -0.00000340    0.00000340    0.00000287
     atom   37 type  1   force =     0.00000260   -0.00000260   -0.00000260
     atom   38 type  1   force =     0.00000112    0.00000058    0.00000058
     atom   39 type  1   force =    -0.00000058   -0.00000112    0.00000058
     atom   40 type  1   force =    -0.00000058    0.00000058   -0.00000112
     atom   41 type  2   force =    -0.00000000   -0.00000000    0.00000000
     atom   42 type  2   force =    -0.00000083   -0.00000401    0.00000401
     atom   43 type  2   force =    -0.00000340   -0.00000287   -0.00000340
     atom   44 type  2   force =     0.00000401   -0.00000401   -0.00000083
     atom   45 type  1   force =     0.00000006   -0.00000006    0.00000189
     atom   46 type  1   force =     0.00000006   -0.00000189    0.00000006
     atom   47 type  1   force =     0.00000189   -0.00000006    0.00000006
     atom   48 type  1   force =     0.00000050   -0.00000050    0.00000050
     atom   49 type  2   force =    -0.00000000    0.00000000   -0.00000000
     atom   50 type  2   force =    -0.00000083    0.00000401   -0.00000401
     atom   51 type  2   force =     0.00000401   -0.00000083   -0.00000401
     atom   52 type  2   force =    -0.00000340   -0.00000340   -0.00000287
     atom   53 type  1   force =     0.00000006    0.00000189   -0.00000006
     atom   54 type  1   force =     0.00000006    0.00000006   -0.00000189
     atom   55 type  1   force =     0.00000050    0.00000050   -0.00000050
     atom   56 type  1   force =     0.00000189    0.00000006   -0.00000006
     atom   57 type  3   force =    -0.00000000   -0.00000000   -0.00000000
     atom   58 type  2   force =     0.00000083    0.00000401    0.00000401
     atom   59 type  2   force =     0.00000401    0.00000083    0.00000401
     atom   60 type  2   force =     0.00000401    0.00000401    0.00000083
     atom   61 type  1   force =     0.00000112   -0.00000058   -0.00000058
     atom   62 type  1   force =     0.00000260    0.00000260    0.00000260
     atom   63 type  1   force =    -0.00000058   -0.00000058    0.00000112
     atom   64 type  1   force =    -0.00000058    0.00000112   -0.00000058

     Total force =     0.000419     Total SCF correction =     0.000030


     Computing stress (Cartesian axis) and pressure

          total   stress  (Ry/bohr**3)                   (kbar)     P=       12.77
   0.00008678   0.00000000   0.00000000           12.77        0.00        0.00
   0.00000000   0.00008678   0.00000000            0.00       12.77        0.00
   0.00000000   0.00000000   0.00008678            0.00        0.00       12.77

     kinetic stress (kbar)  12248.04      0.00      0.00
                                0.00  12248.04      0.00
                                0.00      0.00  12248.04

     local   stress (kbar)  -1185.84     -0.00     -0.00
                               -0.00  -1185.84     -0.00
                               -0.00     -0.00  -1185.84

     nonloc. stress (kbar)   -471.61      0.00      0.00
                                0.00   -471.61      0.00
                                0.00      0.00   -471.61

     hartree stress (kbar)  11508.64      0.00     -0.00
                                0.00  11508.64     -0.00
                               -0.00     -0.00  11508.64

     exc-cor stress (kbar)   8258.85      0.00      0.00
                                0.00   8258.85      0.00
                                0.00      0.00   8258.85

     corecor stress (kbar) -13528.26     -0.00     -0.00
                               -0.00 -13528.26     -0.00
                               -0.00     -0.00 -13528.26

     ewald   stress (kbar) -16817.05      0.00      0.00
                                0.00 -16817.05      0.00
                                0.00      0.00 -16817.05

     hubbard stress (kbar)      0.00      0.00      0.00
                                0.00      0.00      0.00
                                0.00      0.00      0.00

     DFT-D   stress (kbar)      0.00      0.00      0.00
                                0.00      0.00      0.00
                                0.00      0.00      0.00

     XDM     stress (kbar)      0.00      0.00      0.00
                                0.00      0.00      0.00
                                0.00      0.00      0.00

     dft-nl  stress (kbar)      0.00      0.00      0.00
                                0.00      0.00      0.00
                                0.00      0.00      0.00

     TS-vdW  stress (kbar)      0.00      0.00      0.00
                                0.00      0.00      0.00
                                0.00      0.00      0.00

     MDB     stress (kbar)      0.00      0.00      0.00
                                0.00      0.00      0.00
                                0.00      0.00      0.00

     3D-RISM stress (kbar)      0.00      0.00      0.00
                                0.00      0.00      0.00
                                0.00      0.00      0.00

     Energy error            =      1.9E-06 Ry
     Gradient error          =      6.4E-05 Ry/Bohr

     bfgs converged in  14 scf cycles and  13 bfgs steps
     (criteria: energy <  1.0E-05 Ry, force <  1.0E-04 Ry/Bohr)

     End of BFGS Geometry Optimization

     Final energy             =  -10056.7238618396 Ry

     File ./out/rlx.bfgs deleted, as requested
Begin final coordinates

ATOMIC_POSITIONS (crystal)
Zn            0.0000000000        0.0000000000        0.0000000000
Zn            0.0001067222        0.2504661138        0.2504661138
Zn            0.2504661138        0.0001067222        0.2504661138
Zn            0.2504661138        0.2504661138        0.0001067222
S             0.1255070977        0.3751040162        0.3751040162
S             0.1250482974        0.1250482974        0.1250482974
S             0.3751040162        0.3751040162        0.1255070977
S             0.3751040162        0.1255070977        0.3751040162
Zn            0.0000000000       -0.0000000000        0.5000000000
Zn           -0.0001067222        0.2504661138        0.7495338862
Zn            0.2504661138       -0.0001067222        0.7495338862
Zn            0.2526730068        0.2526730068        0.5023971007
S             0.1251956116        0.3751200938        0.8748043884
S             0.1251956116        0.1251956116        0.6248799062
S             0.3789502407        0.3789502407        0.6210497593
S             0.3751200938        0.1251956116        0.8748043884
Zn            0.0000000000        0.5000000000        0.0000000000
Zn           -0.0001067222        0.7495338862        0.2504661138
Zn            0.2526730068        0.5023971007        0.2526730068
Zn            0.2504661138        0.7495338862       -0.0001067222
S             0.1251956116        0.8748043884        0.3751200938
S             0.1251956116        0.6248799062        0.1251956116
S             0.3751200938        0.8748043884        0.1251956116
S             0.3789502407        0.6210497593        0.3789502407
Zn            0.0000000000        0.5000000000        0.5000000000
Zn            0.0001067222        0.7495338862        0.7495338862
Zn            0.2526730068        0.4976028993        0.7473269932
Zn            0.2526730068        0.7473269932        0.4976028993
S             0.1250482974        0.8749517026        0.8749517026
S             0.1255070977        0.6248959838        0.6248959838
S             0.3751040162        0.8744929023        0.6248959838
S             0.3751040162        0.6248959838        0.8744929023
Zn            0.5000000000        0.0000000000        0.0000000000
Zn            0.5023971007        0.2526730068        0.2526730068
Zn            0.7495338862       -0.0001067222        0.2504661138
Zn            0.7495338862        0.2504661138       -0.0001067222
S             0.6210497593        0.3789502407        0.3789502407
S             0.6248799062        0.1251956116        0.1251956116
S             0.8748043884        0.3751200938        0.1251956116
S             0.8748043884        0.1251956116        0.3751200938
Zn            0.5000000000       -0.0000000000        0.5000000000
Zn            0.4976028993        0.2526730068        0.7473269932
Zn            0.7495338862        0.0001067222        0.7495338862
Zn            0.7473269932        0.2526730068        0.4976028993
S             0.6248959838        0.3751040162        0.8744929023
S             0.6248959838        0.1255070977        0.6248959838
S             0.8744929023        0.3751040162        0.6248959838
S             0.8749517026        0.1250482974        0.8749517026
Zn            0.5000000000        0.5000000000        0.0000000000
Zn            0.4976028993        0.7473269932        0.2526730068
Zn            0.7473269932        0.4976028993        0.2526730068
Zn            0.7495338862        0.7495338862        0.0001067222
S             0.6248959838        0.8744929023        0.3751040162
S             0.6248959838        0.6248959838        0.1255070977
S             0.8749517026        0.8749517026        0.1250482974
S             0.8744929023        0.6248959838        0.3751040162
Co            0.5000000000        0.5000000000        0.5000000000
Zn            0.5023971007        0.7473269932        0.7473269932
Zn            0.7473269932        0.5023971007        0.7473269932
Zn            0.7473269932        0.7473269932        0.5023971007
S             0.6248799062        0.8748043884        0.8748043884
S             0.6210497593        0.6210497593        0.6210497593
S             0.8748043884        0.8748043884        0.6248799062
S             0.8748043884        0.6248799062        0.8748043884
End final coordinates


 
     init_run     :     25.97s CPU     43.96s WALL (       1 calls)
     electrons    :   2591.94s CPU   3532.11s WALL (      14 calls)
     update_pot   :     17.16s CPU     28.06s WALL (      13 calls)
     forces       :     48.50s CPU     49.37s WALL (      14 calls)
     stress       :   1624.01s CPU   1639.58s WALL (      14 calls)

     Called by init_run:
     wfcinit      :     20.80s CPU     34.21s WALL (       1 calls)
     wfcinit:atom :      0.05s CPU      0.06s WALL (       4 calls)
     wfcinit:wfcr :     20.54s CPU     20.79s WALL (       4 calls)
     potinit      :      0.67s CPU      4.96s WALL (       1 calls)
     hinit0       :      0.41s CPU      0.49s WALL (       1 calls)

     Called by electrons:
     c_bands      :   2304.30s CPU   2959.72s WALL (     141 calls)
     sum_band     :    241.02s CPU    243.93s WALL (     141 calls)
     v_of_rho     :      8.97s CPU      9.21s WALL (     141 calls)
     v_h          :      0.42s CPU      0.43s WALL (     141 calls)
     v_xc         :     10.19s CPU     10.44s WALL (     169 calls)
     newd         :      6.74s CPU      6.83s WALL (     141 calls)
     PAW_pot      :     13.57s CPU     13.85s WALL (     154 calls)
     mix_rho      :      2.71s CPU      2.80s WALL (     141 calls)

     Called by c_bands:
     init_us_2    :     35.70s CPU     36.19s WALL (    1296 calls)
     init_us_2:cp :     35.70s CPU     36.19s WALL (    1296 calls)
     cegterg      :   2167.73s CPU   2207.03s WALL (     564 calls)

     Called by sum_band:
     sum_band:wei :      0.61s CPU      0.63s WALL (     141 calls)
     sum_band:loo :    221.72s CPU    224.27s WALL (     141 calls)
     sum_band:buf :      4.79s CPU      4.93s WALL (     564 calls)
     sum_band:ini :     15.92s CPU     16.08s WALL (     564 calls)
     sum_band:cal :     90.12s CPU     91.25s WALL (     616 calls)
     sum_band:bec :      2.46s CPU      2.64s WALL (     616 calls)
     addusdens    :     10.92s CPU     11.02s WALL (     141 calls)
                                        0.00s GPU  (     141 calls)
     addusd:skk   :      0.20s CPU      0.21s WALL (     423 calls)
                                        0.00s GPU  (     423 calls)

     Called by *egterg:
     cdiaghg      :    211.65s CPU    213.41s WALL (    3341 calls)
     cegterg:over :    170.84s CPU    172.96s WALL (    2885 calls)
     cegterg:upda :    162.14s CPU    163.76s WALL (    2885 calls)
     cegterg:last :    273.05s CPU    275.83s WALL (    1234 calls)
     cdiaghg:chol :     13.69s CPU     13.98s WALL (    3341 calls)
     cdiaghg:inve :     20.06s CPU     20.30s WALL (    3341 calls)
     cdiaghg:para :     31.56s CPU     31.81s WALL (    6682 calls)
     h_psi        :   1066.70s CPU   1086.84s WALL (    3453 calls)
     s_psi        :    236.07s CPU    238.65s WALL (    3453 calls)
     g_psi        :      5.86s CPU      5.92s WALL (    2885 calls)

     Called by h_psi:
     h_psi:calbec :    231.42s CPU    233.72s WALL (    3453 calls)
     vloc_psi     :    590.12s CPU    597.15s WALL (    3453 calls)
     add_vuspsi   :    235.49s CPU    239.81s WALL (    3453 calls)

     General routines
     calbec       :    374.85s CPU    378.66s WALL (    4349 calls)
     fft          :     18.84s CPU     19.26s WALL (    3590 calls)
     ffts         :      0.47s CPU      0.48s WALL (     282 calls)
     fftw         :    655.06s CPU    662.75s WALL ( 1203022 calls)
 
     Parallel routines

     PAW routines
     PAW_pot      :     13.57s CPU     13.85s WALL (     154 calls)
     PAW_symme    :      0.44s CPU      0.45s WALL (     295 calls)
 
     PWSCF        :      1h13m CPU      1h33m WALL

 
   This run was terminated on:  17:50:50  27Jun2024            

=------------------------------------------------------------------------------=
   JOB DONE.
=------------------------------------------------------------------------------=
