
     Program PWSCF v.7.2 starts on 29Jun2024 at  1:50:57 

     This program is part of the open-source Quantum ESPRESSO suite
     for quantum simulation of materials; please cite
         "P. Giannozzi et al., J. Phys.:Condens. Matter 21 395502 (2009);
         "P. Giannozzi et al., J. Phys.:Condens. Matter 29 465901 (2017);
         "P. Giannozzi et al., J. Chem. Phys. 152 154105 (2020);
          URL http://www.quantum-espresso.org", 
     in publications or presentations arising from this work. More details at
     http://www.quantum-espresso.org/quote

     Parallel version (MPI), running on   560 processors

     MPI processes distributed on     5 nodes
     225885 MiB available memory on the printing compute node when the environment starts
 
     Reading input from 2.Co_in_ZnS.scf.qn1.in

     Current dimensions of program PWSCF are:
     Max number of different atomic species (ntypx) = 10
     Max number of k-points (npk) =  40000
     Max angular momentum in pseudopotentials (lmaxx) =  4
     file S.pbe-n-kjpaw_psl.1.0.0.UPF: wavefunction(s)  3S 3P renormalized
     file Zn.pbe-dnl-kjpaw_psl.1.0.0.UPF: wavefunction(s)  4S 3D renormalized
     file Co.pbe-spn-kjpaw_psl.0.3.1.UPF: wavefunction(s)  3P 3D renormalized
 
     K-points division:     npool     =       5
     R & G space division:  proc/nbgrp/npool/nimage =     112
     Subspace diagonalization in iterative solution of the eigenvalue problem:
     one sub-group per band group will be used
     scalapack distributed-memory algorithm (size of sub-group:  3*  3 procs)

 
     Parallelization info
     --------------------
     sticks:   dense  smooth     PW     G-vecs:    dense   smooth      PW
     Min         180     180     46                19282    19282    2562
     Max         181     181     47                19291    19291    2573
     Sum       20217   20217   5249              2160009  2160009  287777
 
     Using Slab Decomposition
 


     bravais-lattice index     =            1
     lattice parameter (alat)  =      20.5686  a.u.
     unit-cell volume          =    8701.8437 (a.u.)^3
     number of atoms/cell      =           64
     number of atomic types    =            3
     number of electrons       =       582.00
     number of Kohn-Sham states=          349
     kinetic-energy cutoff     =     150.0000  Ry
     charge density cutoff     =     600.0000  Ry
     scf convergence threshold =      1.0E-08
     mixing beta               =       0.7000
     number of iterations used =            8  plain     mixing
     Exchange-correlation= SLA  PW   PBX  PBC
                           (   1   4   3   4   0   0   0)

     celldm(1)=  20.568554  celldm(2)=   0.000000  celldm(3)=   0.000000
     celldm(4)=   0.000000  celldm(5)=   0.000000  celldm(6)=   0.000000

     crystal axes: (cart. coord. in units of alat)
               a(1) = (   1.000000   0.000000   0.000000 )  
               a(2) = (   0.000000   1.000000   0.000000 )  
               a(3) = (   0.000000   0.000000   1.000000 )  

     reciprocal axes: (cart. coord. in units 2 pi/alat)
               b(1) = (  1.000000  0.000000  0.000000 )  
               b(2) = (  0.000000  1.000000  0.000000 )  
               b(3) = (  0.000000  0.000000  1.000000 )  


     PseudoPot. # 1 for S  read from file:
     /arf/home/amuhaymin/pseudo/S.pbe-n-kjpaw_psl.1.0.0.UPF
     MD5 check sum: fb45dfebcf3e72a4e1bd4a866ec2e262
     Pseudo is Projector augmented-wave + core cor, Zval =  6.0
     Generated using &quot;atomic&quot; code by A. Dal Corso  v.6.3
     Shape of augmentation charge: PSQ
     Using radial grid of 1151 points,  6 beta functions with: 
                l(1) =   0
                l(2) =   0
                l(3) =   1
                l(4) =   1
                l(5) =   2
                l(6) =   2
     Q(r) pseudized with 0 coefficients 


     PseudoPot. # 2 for Zn read from file:
     /arf/home/amuhaymin/pseudo/Zn.pbe-dnl-kjpaw_psl.1.0.0.UPF
     MD5 check sum: c608214d9520ac179f507641260889e3
     Pseudo is Projector augmented-wave + core cor, Zval = 12.0
     Generated using &quot;atomic&quot; code by A. Dal Corso  v.6.2.2
     Shape of augmentation charge: PSQ
     Using radial grid of 1201 points,  6 beta functions with: 
                l(1) =   0
                l(2) =   0
                l(3) =   1
                l(4) =   1
                l(5) =   2
                l(6) =   2
     Q(r) pseudized with 0 coefficients 


     PseudoPot. # 3 for Co read from file:
     /arf/home/amuhaymin/pseudo/Co.pbe-spn-kjpaw_psl.0.3.1.UPF
     MD5 check sum: b0a1ad65bf214e88c1f3d33b20c7d919
     Pseudo is Projector augmented-wave + core cor, Zval = 17.0
     Generated using &quot;atomic&quot; code by A. Dal Corso  v.6.2.2
     Shape of augmentation charge: PSQ
     Using radial grid of 1193 points,  6 beta functions with: 
                l(1) =   0
                l(2) =   0
                l(3) =   1
                l(4) =   1
                l(5) =   2
                l(6) =   2
     Q(r) pseudized with 0 coefficients 


     atomic species   valence    mass     pseudopotential
        S              6.00    32.06500     S ( 1.00)
        Zn            12.00    65.38000     Zn( 1.00)
        Co            17.00    63.54600     Co( 1.00)

     Starting magnetic structure 
     atomic species   magnetization
        S            0.000
        Zn           0.000
        Co           0.118

     24 Sym. Ops. (no inversion) found


                                    s                        frac. trans.

      isym =  1     identity                                     

 cryst.   s( 1) = (     1          0          0      )
                  (     0          1          0      )
                  (     0          0          1      )

 cart.    s( 1) = (  1.0000000  0.0000000  0.0000000 )
                  (  0.0000000  1.0000000  0.0000000 )
                  (  0.0000000  0.0000000  1.0000000 )


      isym =  2     180 deg rotation - cart. axis [0,0,1]        

 cryst.   s( 2) = (    -1          0          0      )
                  (     0         -1          0      )
                  (     0          0          1      )

 cart.    s( 2) = ( -1.0000000  0.0000000  0.0000000 )
                  (  0.0000000 -1.0000000  0.0000000 )
                  (  0.0000000  0.0000000  1.0000000 )


      isym =  3     180 deg rotation - cart. axis [0,1,0]        

 cryst.   s( 3) = (    -1          0          0      )
                  (     0          1          0      )
                  (     0          0         -1      )

 cart.    s( 3) = ( -1.0000000  0.0000000  0.0000000 )
                  (  0.0000000  1.0000000  0.0000000 )
                  (  0.0000000  0.0000000 -1.0000000 )


      isym =  4     180 deg rotation - cart. axis [1,0,0]        

 cryst.   s( 4) = (     1          0          0      )
                  (     0         -1          0      )
                  (     0          0         -1      )

 cart.    s( 4) = (  1.0000000  0.0000000  0.0000000 )
                  (  0.0000000 -1.0000000  0.0000000 )
                  (  0.0000000  0.0000000 -1.0000000 )


      isym =  5     120 deg rotation - cart. axis [-1,-1,-1]     

 cryst.   s( 5) = (     0          0          1      )
                  (     1          0          0      )
                  (     0          1          0      )

 cart.    s( 5) = (  0.0000000  1.0000000  0.0000000 )
                  (  0.0000000  0.0000000  1.0000000 )
                  (  1.0000000  0.0000000  0.0000000 )


      isym =  6     120 deg rotation - cart. axis [-1,1,1]       

 cryst.   s( 6) = (     0          0         -1      )
                  (    -1          0          0      )
                  (     0          1          0      )

 cart.    s( 6) = (  0.0000000 -1.0000000  0.0000000 )
                  (  0.0000000  0.0000000  1.0000000 )
                  ( -1.0000000  0.0000000  0.0000000 )


      isym =  7     120 deg rotation - cart. axis [1,1,-1]       

 cryst.   s( 7) = (     0          0         -1      )
                  (     1          0          0      )
                  (     0         -1          0      )

 cart.    s( 7) = (  0.0000000  1.0000000  0.0000000 )
                  (  0.0000000  0.0000000 -1.0000000 )
                  ( -1.0000000  0.0000000  0.0000000 )


      isym =  8     120 deg rotation - cart. axis [1,-1,1]       

 cryst.   s( 8) = (     0          0          1      )
                  (    -1          0          0      )
                  (     0         -1          0      )

 cart.    s( 8) = (  0.0000000 -1.0000000  0.0000000 )
                  (  0.0000000  0.0000000 -1.0000000 )
                  (  1.0000000  0.0000000  0.0000000 )


      isym =  9     120 deg rotation - cart. axis [1,1,1]        

 cryst.   s( 9) = (     0          1          0      )
                  (     0          0          1      )
                  (     1          0          0      )

 cart.    s( 9) = (  0.0000000  0.0000000  1.0000000 )
                  (  1.0000000  0.0000000  0.0000000 )
                  (  0.0000000  1.0000000  0.0000000 )


      isym = 10     120 deg rotation - cart. axis [-1,1,-1]      

 cryst.   s(10) = (     0         -1          0      )
                  (     0          0         -1      )
                  (     1          0          0      )

 cart.    s(10) = (  0.0000000  0.0000000  1.0000000 )
                  ( -1.0000000  0.0000000  0.0000000 )
                  (  0.0000000 -1.0000000  0.0000000 )


      isym = 11     120 deg rotation - cart. axis [1,-1,-1]      

 cryst.   s(11) = (     0         -1          0      )
                  (     0          0          1      )
                  (    -1          0          0      )

 cart.    s(11) = (  0.0000000  0.0000000 -1.0000000 )
                  ( -1.0000000  0.0000000  0.0000000 )
                  (  0.0000000  1.0000000  0.0000000 )


      isym = 12     120 deg rotation - cart. axis [-1,-1,1]      

 cryst.   s(12) = (     0          1          0      )
                  (     0          0         -1      )
                  (    -1          0          0      )

 cart.    s(12) = (  0.0000000  0.0000000 -1.0000000 )
                  (  1.0000000  0.0000000  0.0000000 )
                  (  0.0000000 -1.0000000  0.0000000 )


      isym = 13     inv. 180 deg rotation - cart. axis [1,1,0]   

 cryst.   s(13) = (     0         -1          0      )
                  (    -1          0          0      )
                  (     0          0          1      )

 cart.    s(13) = (  0.0000000 -1.0000000  0.0000000 )
                  ( -1.0000000  0.0000000  0.0000000 )
                  (  0.0000000  0.0000000  1.0000000 )


      isym = 14     inv. 180 deg rotation - cart. axis [1,-1,0]  

 cryst.   s(14) = (     0          1          0      )
                  (     1          0          0      )
                  (     0          0          1      )

 cart.    s(14) = (  0.0000000  1.0000000  0.0000000 )
                  (  1.0000000  0.0000000  0.0000000 )
                  (  0.0000000  0.0000000  1.0000000 )


      isym = 15     inv.  90 deg rotation - cart. axis [0,0,-1]  

 cryst.   s(15) = (     0          1          0      )
                  (    -1          0          0      )
                  (     0          0         -1      )

 cart.    s(15) = (  0.0000000 -1.0000000  0.0000000 )
                  (  1.0000000  0.0000000  0.0000000 )
                  (  0.0000000  0.0000000 -1.0000000 )


      isym = 16     inv.  90 deg rotation - cart. axis [0,0,1]   

 cryst.   s(16) = (     0         -1          0      )
                  (     1          0          0      )
                  (     0          0         -1      )

 cart.    s(16) = (  0.0000000  1.0000000  0.0000000 )
                  ( -1.0000000  0.0000000  0.0000000 )
                  (  0.0000000  0.0000000 -1.0000000 )


      isym = 17     inv. 180 deg rotation - cart. axis [1,0,1]   

 cryst.   s(17) = (     0          0         -1      )
                  (     0          1          0      )
                  (    -1          0          0      )

 cart.    s(17) = (  0.0000000  0.0000000 -1.0000000 )
                  (  0.0000000  1.0000000  0.0000000 )
                  ( -1.0000000  0.0000000  0.0000000 )


      isym = 18     inv. 180 deg rotation - cart. axis [-1,0,1]  

 cryst.   s(18) = (     0          0          1      )
                  (     0          1          0      )
                  (     1          0          0      )

 cart.    s(18) = (  0.0000000  0.0000000  1.0000000 )
                  (  0.0000000  1.0000000  0.0000000 )
                  (  1.0000000  0.0000000  0.0000000 )


      isym = 19     inv.  90 deg rotation - cart. axis [0,1,0]   

 cryst.   s(19) = (     0          0          1      )
                  (     0         -1          0      )
                  (    -1          0          0      )

 cart.    s(19) = (  0.0000000  0.0000000 -1.0000000 )
                  (  0.0000000 -1.0000000  0.0000000 )
                  (  1.0000000  0.0000000  0.0000000 )


      isym = 20     inv.  90 deg rotation - cart. axis [0,-1,0]  

 cryst.   s(20) = (     0          0         -1      )
                  (     0         -1          0      )
                  (     1          0          0      )

 cart.    s(20) = (  0.0000000  0.0000000  1.0000000 )
                  (  0.0000000 -1.0000000  0.0000000 )
                  ( -1.0000000  0.0000000  0.0000000 )


      isym = 21     inv. 180 deg rotation - cart. axis [0,1,1]   

 cryst.   s(21) = (     1          0          0      )
                  (     0          0         -1      )
                  (     0         -1          0      )

 cart.    s(21) = (  1.0000000  0.0000000  0.0000000 )
                  (  0.0000000  0.0000000 -1.0000000 )
                  (  0.0000000 -1.0000000  0.0000000 )


      isym = 22     inv. 180 deg rotation - cart. axis [0,1,-1]  

 cryst.   s(22) = (     1          0          0      )
                  (     0          0          1      )
                  (     0          1          0      )

 cart.    s(22) = (  1.0000000  0.0000000  0.0000000 )
                  (  0.0000000  0.0000000  1.0000000 )
                  (  0.0000000  1.0000000  0.0000000 )


      isym = 23     inv.  90 deg rotation - cart. axis [-1,0,0]  

 cryst.   s(23) = (    -1          0          0      )
                  (     0          0          1      )
                  (     0         -1          0      )

 cart.    s(23) = ( -1.0000000  0.0000000  0.0000000 )
                  (  0.0000000  0.0000000 -1.0000000 )
                  (  0.0000000  1.0000000  0.0000000 )


      isym = 24     inv.  90 deg rotation - cart. axis [1,0,0]   

 cryst.   s(24) = (    -1          0          0      )
                  (     0          0         -1      )
                  (     0          1          0      )

 cart.    s(24) = ( -1.0000000  0.0000000  0.0000000 )
                  (  0.0000000  0.0000000  1.0000000 )
                  (  0.0000000 -1.0000000  0.0000000 )


     point group T_d (-43m) 
     there are  5 classes
     the character table:

       E     8C3   3C2   6S4   6s_d 
A_1    1.00  1.00  1.00  1.00  1.00
A_2    1.00  1.00  1.00 -1.00 -1.00
E      2.00 -1.00  2.00  0.00  0.00
T_1    3.00  0.00 -1.00  1.00 -1.00
T_2    3.00  0.00 -1.00 -1.00  1.00

     the symmetry operations in each class and the name of the first element:

     E        1
          identity                                               
     8C3      5    7    8    6   12    9   10   11
          120 deg rotation - cart. axis [-1,-1,-1]               
     3C2      2    3    4
          180 deg rotation - cart. axis [0,0,1]                  
     6S4     15   16   20   19   23   24
          inv.  90 deg rotation - cart. axis [0,0,-1]            
     6s_d    13   14   17   18   21   22
          inv. 180 deg rotation - cart. axis [1,1,0]             

   Cartesian axes

     site n.     atom                  positions (alat units)
         1           Zn  tau(   1) = (   0.0000000   0.0000000   0.0000000  )
         2           Zn  tau(   2) = (   0.0001067   0.2504661   0.2504661  )
         3           Zn  tau(   3) = (   0.2504661   0.0001067   0.2504661  )
         4           Zn  tau(   4) = (   0.2504661   0.2504661   0.0001067  )
         5           S   tau(   5) = (   0.1255071   0.3751040   0.3751040  )
         6           S   tau(   6) = (   0.1250483   0.1250483   0.1250483  )
         7           S   tau(   7) = (   0.3751040   0.3751040   0.1255071  )
         8           S   tau(   8) = (   0.3751040   0.1255071   0.3751040  )
         9           Zn  tau(   9) = (   0.0000000   0.0000000   0.5000000  )
        10           Zn  tau(  10) = (  -0.0001067   0.2504661   0.7495339  )
        11           Zn  tau(  11) = (   0.2504661  -0.0001067   0.7495339  )
        12           Zn  tau(  12) = (   0.2526730   0.2526730   0.5023971  )
        13           S   tau(  13) = (   0.1251956   0.3751201   0.8748044  )
        14           S   tau(  14) = (   0.1251956   0.1251956   0.6248799  )
        15           S   tau(  15) = (   0.3789502   0.3789502   0.6210498  )
        16           S   tau(  16) = (   0.3751201   0.1251956   0.8748044  )
        17           Zn  tau(  17) = (   0.0000000   0.5000000   0.0000000  )
        18           Zn  tau(  18) = (  -0.0001067   0.7495339   0.2504661  )
        19           Zn  tau(  19) = (   0.2526730   0.5023971   0.2526730  )
        20           Zn  tau(  20) = (   0.2504661   0.7495339  -0.0001067  )
        21           S   tau(  21) = (   0.1251956   0.8748044   0.3751201  )
        22           S   tau(  22) = (   0.1251956   0.6248799   0.1251956  )
        23           S   tau(  23) = (   0.3751201   0.8748044   0.1251956  )
        24           S   tau(  24) = (   0.3789502   0.6210498   0.3789502  )
        25           Zn  tau(  25) = (   0.0000000   0.5000000   0.5000000  )
        26           Zn  tau(  26) = (   0.0001067   0.7495339   0.7495339  )
        27           Zn  tau(  27) = (   0.2526730   0.4976029   0.7473270  )
        28           Zn  tau(  28) = (   0.2526730   0.7473270   0.4976029  )
        29           S   tau(  29) = (   0.1250483   0.8749517   0.8749517  )
        30           S   tau(  30) = (   0.1255071   0.6248960   0.6248960  )
        31           S   tau(  31) = (   0.3751040   0.8744929   0.6248960  )
        32           S   tau(  32) = (   0.3751040   0.6248960   0.8744929  )
        33           Zn  tau(  33) = (   0.5000000   0.0000000   0.0000000  )
        34           Zn  tau(  34) = (   0.5023971   0.2526730   0.2526730  )
        35           Zn  tau(  35) = (   0.7495339  -0.0001067   0.2504661  )
        36           Zn  tau(  36) = (   0.7495339   0.2504661  -0.0001067  )
        37           S   tau(  37) = (   0.6210498   0.3789502   0.3789502  )
        38           S   tau(  38) = (   0.6248799   0.1251956   0.1251956  )
        39           S   tau(  39) = (   0.8748044   0.3751201   0.1251956  )
        40           S   tau(  40) = (   0.8748044   0.1251956   0.3751201  )
        41           Zn  tau(  41) = (   0.5000000   0.0000000   0.5000000  )
        42           Zn  tau(  42) = (   0.4976029   0.2526730   0.7473270  )
        43           Zn  tau(  43) = (   0.7495339   0.0001067   0.7495339  )
        44           Zn  tau(  44) = (   0.7473270   0.2526730   0.4976029  )
        45           S   tau(  45) = (   0.6248960   0.3751040   0.8744929  )
        46           S   tau(  46) = (   0.6248960   0.1255071   0.6248960  )
        47           S   tau(  47) = (   0.8744929   0.3751040   0.6248960  )
        48           S   tau(  48) = (   0.8749517   0.1250483   0.8749517  )
        49           Zn  tau(  49) = (   0.5000000   0.5000000   0.0000000  )
        50           Zn  tau(  50) = (   0.4976029   0.7473270   0.2526730  )
        51           Zn  tau(  51) = (   0.7473270   0.4976029   0.2526730  )
        52           Zn  tau(  52) = (   0.7495339   0.7495339   0.0001067  )
        53           S   tau(  53) = (   0.6248960   0.8744929   0.3751040  )
        54           S   tau(  54) = (   0.6248960   0.6248960   0.1255071  )
        55           S   tau(  55) = (   0.8749517   0.8749517   0.1250483  )
        56           S   tau(  56) = (   0.8744929   0.6248960   0.3751040  )
        57           Co  tau(  57) = (   0.5000000   0.5000000   0.5000000  )
        58           Zn  tau(  58) = (   0.5023971   0.7473270   0.7473270  )
        59           Zn  tau(  59) = (   0.7473270   0.5023971   0.7473270  )
        60           Zn  tau(  60) = (   0.7473270   0.7473270   0.5023971  )
        61           S   tau(  61) = (   0.6248799   0.8748044   0.8748044  )
        62           S   tau(  62) = (   0.6210498   0.6210498   0.6210498  )
        63           S   tau(  63) = (   0.8748044   0.8748044   0.6248799  )
        64           S   tau(  64) = (   0.8748044   0.6248799   0.8748044  )

   Crystallographic axes

     site n.     atom                  positions (cryst. coord.)
         1           Zn  tau(   1) = (  0.0000000  0.0000000  0.0000000  )
         2           Zn  tau(   2) = (  0.0001067  0.2504661  0.2504661  )
         3           Zn  tau(   3) = (  0.2504661  0.0001067  0.2504661  )
         4           Zn  tau(   4) = (  0.2504661  0.2504661  0.0001067  )
         5           S   tau(   5) = (  0.1255071  0.3751040  0.3751040  )
         6           S   tau(   6) = (  0.1250483  0.1250483  0.1250483  )
         7           S   tau(   7) = (  0.3751040  0.3751040  0.1255071  )
         8           S   tau(   8) = (  0.3751040  0.1255071  0.3751040  )
         9           Zn  tau(   9) = (  0.0000000  0.0000000  0.5000000  )
        10           Zn  tau(  10) = ( -0.0001067  0.2504661  0.7495339  )
        11           Zn  tau(  11) = (  0.2504661 -0.0001067  0.7495339  )
        12           Zn  tau(  12) = (  0.2526730  0.2526730  0.5023971  )
        13           S   tau(  13) = (  0.1251956  0.3751201  0.8748044  )
        14           S   tau(  14) = (  0.1251956  0.1251956  0.6248799  )
        15           S   tau(  15) = (  0.3789502  0.3789502  0.6210498  )
        16           S   tau(  16) = (  0.3751201  0.1251956  0.8748044  )
        17           Zn  tau(  17) = (  0.0000000  0.5000000  0.0000000  )
        18           Zn  tau(  18) = ( -0.0001067  0.7495339  0.2504661  )
        19           Zn  tau(  19) = (  0.2526730  0.5023971  0.2526730  )
        20           Zn  tau(  20) = (  0.2504661  0.7495339 -0.0001067  )
        21           S   tau(  21) = (  0.1251956  0.8748044  0.3751201  )
        22           S   tau(  22) = (  0.1251956  0.6248799  0.1251956  )
        23           S   tau(  23) = (  0.3751201  0.8748044  0.1251956  )
        24           S   tau(  24) = (  0.3789502  0.6210498  0.3789502  )
        25           Zn  tau(  25) = (  0.0000000  0.5000000  0.5000000  )
        26           Zn  tau(  26) = (  0.0001067  0.7495339  0.7495339  )
        27           Zn  tau(  27) = (  0.2526730  0.4976029  0.7473270  )
        28           Zn  tau(  28) = (  0.2526730  0.7473270  0.4976029  )
        29           S   tau(  29) = (  0.1250483  0.8749517  0.8749517  )
        30           S   tau(  30) = (  0.1255071  0.6248960  0.6248960  )
        31           S   tau(  31) = (  0.3751040  0.8744929  0.6248960  )
        32           S   tau(  32) = (  0.3751040  0.6248960  0.8744929  )
        33           Zn  tau(  33) = (  0.5000000  0.0000000  0.0000000  )
        34           Zn  tau(  34) = (  0.5023971  0.2526730  0.2526730  )
        35           Zn  tau(  35) = (  0.7495339 -0.0001067  0.2504661  )
        36           Zn  tau(  36) = (  0.7495339  0.2504661 -0.0001067  )
        37           S   tau(  37) = (  0.6210498  0.3789502  0.3789502  )
        38           S   tau(  38) = (  0.6248799  0.1251956  0.1251956  )
        39           S   tau(  39) = (  0.8748044  0.3751201  0.1251956  )
        40           S   tau(  40) = (  0.8748044  0.1251956  0.3751201  )
        41           Zn  tau(  41) = (  0.5000000  0.0000000  0.5000000  )
        42           Zn  tau(  42) = (  0.4976029  0.2526730  0.7473270  )
        43           Zn  tau(  43) = (  0.7495339  0.0001067  0.7495339  )
        44           Zn  tau(  44) = (  0.7473270  0.2526730  0.4976029  )
        45           S   tau(  45) = (  0.6248960  0.3751040  0.8744929  )
        46           S   tau(  46) = (  0.6248960  0.1255071  0.6248960  )
        47           S   tau(  47) = (  0.8744929  0.3751040  0.6248960  )
        48           S   tau(  48) = (  0.8749517  0.1250483  0.8749517  )
        49           Zn  tau(  49) = (  0.5000000  0.5000000  0.0000000  )
        50           Zn  tau(  50) = (  0.4976029  0.7473270  0.2526730  )
        51           Zn  tau(  51) = (  0.7473270  0.4976029  0.2526730  )
        52           Zn  tau(  52) = (  0.7495339  0.7495339  0.0001067  )
        53           S   tau(  53) = (  0.6248960  0.8744929  0.3751040  )
        54           S   tau(  54) = (  0.6248960  0.6248960  0.1255071  )
        55           S   tau(  55) = (  0.8749517  0.8749517  0.1250483  )
        56           S   tau(  56) = (  0.8744929  0.6248960  0.3751040  )
        57           Co  tau(  57) = (  0.5000000  0.5000000  0.5000000  )
        58           Zn  tau(  58) = (  0.5023971  0.7473270  0.7473270  )
        59           Zn  tau(  59) = (  0.7473270  0.5023971  0.7473270  )
        60           Zn  tau(  60) = (  0.7473270  0.7473270  0.5023971  )
        61           S   tau(  61) = (  0.6248799  0.8748044  0.8748044  )
        62           S   tau(  62) = (  0.6210498  0.6210498  0.6210498  )
        63           S   tau(  63) = (  0.8748044  0.8748044  0.6248799  )
        64           S   tau(  64) = (  0.8748044  0.6248799  0.8748044  )

     number of k points=    10  Gaussian smearing, width (Ry)=  0.0010
                       cart. coord. in units 2pi/alat
        k(    1) = (   0.0000000   0.0000000   0.0000000), wk =   0.0156250
        k(    2) = (   0.0000000   0.0000000   0.2500000), wk =   0.0937500
        k(    3) = (   0.0000000   0.0000000  -0.5000000), wk =   0.0468750
        k(    4) = (   0.0000000   0.2500000   0.2500000), wk =   0.1875000
        k(    5) = (   0.0000000   0.2500000  -0.5000000), wk =   0.1875000
        k(    6) = (   0.0000000  -0.5000000  -0.5000000), wk =   0.0468750
        k(    7) = (   0.2500000   0.2500000   0.2500000), wk =   0.1250000
        k(    8) = (   0.2500000   0.2500000  -0.5000000), wk =   0.1875000
        k(    9) = (   0.2500000  -0.5000000  -0.5000000), wk =   0.0937500
        k(   10) = (  -0.5000000  -0.5000000  -0.5000000), wk =   0.0156250

                       cryst. coord.
        k(    1) = (   0.0000000   0.0000000   0.0000000), wk =   0.0156250
        k(    2) = (   0.0000000   0.0000000   0.2500000), wk =   0.0937500
        k(    3) = (   0.0000000   0.0000000  -0.5000000), wk =   0.0468750
        k(    4) = (   0.0000000   0.2500000   0.2500000), wk =   0.1875000
        k(    5) = (   0.0000000   0.2500000  -0.5000000), wk =   0.1875000
        k(    6) = (   0.0000000  -0.5000000  -0.5000000), wk =   0.0468750
        k(    7) = (   0.2500000   0.2500000   0.2500000), wk =   0.1250000
        k(    8) = (   0.2500000   0.2500000  -0.5000000), wk =   0.1875000
        k(    9) = (   0.2500000  -0.5000000  -0.5000000), wk =   0.0937500
        k(   10) = (  -0.5000000  -0.5000000  -0.5000000), wk =   0.0156250

     Dense  grid:  2160009 G-vectors     FFT dimensions: ( 162, 162, 162)

     Dynamical RAM for                 wfc:      12.83 MB

     Dynamical RAM for     wfc (w. buffer):      64.17 MB

     Dynamical RAM for           str. fact:       0.88 MB

     Dynamical RAM for           local pot:       0.00 MB

     Dynamical RAM for          nlocal pot:      42.36 MB

     Dynamical RAM for                qrad:       5.90 MB

     Dynamical RAM for          rho,v,vnew:       4.17 MB

     Dynamical RAM for               rhoin:       1.39 MB

     Dynamical RAM for            rho*nmix:       9.42 MB

     Dynamical RAM for           G-vectors:       1.25 MB

     Dynamical RAM for          h,s,v(r/c):       2.46 MB

     Dynamical RAM for          <psi|beta>:       6.13 MB

     Dynamical RAM for                 psi:      25.67 MB

     Dynamical RAM for                hpsi:      25.67 MB

     Dynamical RAM for                spsi:      25.67 MB

     Dynamical RAM for      wfcinit/wfcrot:      34.65 MB

     Dynamical RAM for           addusdens:      13.36 MB

     Estimated static dynamical RAM per process >     123.70 MB

     Estimated max dynamical RAM per process >     218.72 MB

     Estimated total dynamical RAM >     115.49 GB

     Check: negative core charge=   -0.000001
     Generating pointlists ...
     new r_m :   0.0865 (alat units)  1.7789 (a.u.) for type    1
     new r_m :   0.0884 (alat units)  1.8191 (a.u.) for type    2
     new r_m :   0.0865 (alat units)  1.7789 (a.u.) for type    3

     Initial potential from superposition of free atoms

     starting charge     580.8832, renormalised to     582.0000
     Starting wfcs are  417 randomized atomic wfcs
     Checking if some PAW data can be deallocated... 
       PAW data deallocated on  280 nodes for type:  1
       PAW data deallocated on  288 nodes for type:  2
       PAW data deallocated on  552 nodes for type:  3

     total cpu time spent up to now is       17.9 secs

     Self-consistent Calculation

     iteration #  1     ecut=   150.00 Ry     beta= 0.70
     Davidson diagonalization with overlap

---- Real-time Memory Report at c_bands before calling an iterative solver
          1316 MiB given to the printing process from OS
             0 MiB allocation reported by mallinfo(arena+hblkhd)
        198527 MiB available memory on the node where the printing process lives
------------------
     ethr =  1.00E-02,  avg # of iterations =  5.0

     Threshold (ethr) on eigenvalues was too large:
     Diagonalizing with lowered threshold

     Davidson diagonalization with overlap

---- Real-time Memory Report at c_bands before calling an iterative solver
          1442 MiB given to the printing process from OS
             0 MiB allocation reported by mallinfo(arena+hblkhd)
        195521 MiB available memory on the node where the printing process lives
------------------
     ethr =  4.79E-04,  avg # of iterations =  3.0

     total cpu time spent up to now is       54.8 secs

     total energy              =  -10055.52241731 Ry
     estimated scf accuracy    <       2.59963910 Ry

     total magnetization       =     2.00 Bohr mag/cell
     absolute magnetization    =     2.02 Bohr mag/cell

     iteration #  2     ecut=   150.00 Ry     beta= 0.70
     Davidson diagonalization with overlap

---- Real-time Memory Report at c_bands before calling an iterative solver
          1456 MiB given to the printing process from OS
             0 MiB allocation reported by mallinfo(arena+hblkhd)
        195501 MiB available memory on the node where the printing process lives
------------------
     ethr =  4.47E-04,  avg # of iterations = 12.8

     total cpu time spent up to now is       80.5 secs

     total energy              =  -10052.65744105 Ry
     estimated scf accuracy    <      58.69886100 Ry

     total magnetization       =     0.13 Bohr mag/cell
     absolute magnetization    =     0.18 Bohr mag/cell

     iteration #  3     ecut=   150.00 Ry     beta= 0.70
     Davidson diagonalization with overlap

---- Real-time Memory Report at c_bands before calling an iterative solver
          1486 MiB given to the printing process from OS
             0 MiB allocation reported by mallinfo(arena+hblkhd)
        195264 MiB available memory on the node where the printing process lives
------------------
     ethr =  4.47E-04,  avg # of iterations =  9.4

     total cpu time spent up to now is      110.4 secs

     total energy              =  -10056.25955828 Ry
     estimated scf accuracy    <       5.65654137 Ry

     total magnetization       =     0.61 Bohr mag/cell
     absolute magnetization    =     0.74 Bohr mag/cell

     iteration #  4     ecut=   150.00 Ry     beta= 0.70
     Davidson diagonalization with overlap

---- Real-time Memory Report at c_bands before calling an iterative solver
          1505 MiB given to the printing process from OS
             0 MiB allocation reported by mallinfo(arena+hblkhd)
        195002 MiB available memory on the node where the printing process lives
------------------
     ethr =  4.47E-04,  avg # of iterations =  2.1

     total cpu time spent up to now is      125.3 secs

     total energy              =  -10056.66856012 Ry
     estimated scf accuracy    <       0.20555741 Ry

     total magnetization       =     2.00 Bohr mag/cell
     absolute magnetization    =     2.03 Bohr mag/cell

     iteration #  5     ecut=   150.00 Ry     beta= 0.70
     Davidson diagonalization with overlap

---- Real-time Memory Report at c_bands before calling an iterative solver
          1514 MiB given to the printing process from OS
             0 MiB allocation reported by mallinfo(arena+hblkhd)
        194777 MiB available memory on the node where the printing process lives
------------------
     ethr =  3.53E-05,  avg # of iterations =  8.2

     total cpu time spent up to now is      146.8 secs

     total energy              =  -10056.70584516 Ry
     estimated scf accuracy    <       0.08370174 Ry

     total magnetization       =     2.03 Bohr mag/cell
     absolute magnetization    =     2.11 Bohr mag/cell

     iteration #  6     ecut=   150.00 Ry     beta= 0.70
     Davidson diagonalization with overlap

---- Real-time Memory Report at c_bands before calling an iterative solver
          1526 MiB given to the printing process from OS
             0 MiB allocation reported by mallinfo(arena+hblkhd)
        194515 MiB available memory on the node where the printing process lives
------------------
     c_bands:  2 eigenvalues not converged
     ethr =  1.44E-05,  avg # of iterations = 12.4

     total cpu time spent up to now is      170.6 secs

     total energy              =  -10056.72008788 Ry
     estimated scf accuracy    <       0.01196226 Ry

     total magnetization       =     2.03 Bohr mag/cell
     absolute magnetization    =     2.13 Bohr mag/cell

     iteration #  7     ecut=   150.00 Ry     beta= 0.70
     Davidson diagonalization with overlap

---- Real-time Memory Report at c_bands before calling an iterative solver
          1541 MiB given to the printing process from OS
             0 MiB allocation reported by mallinfo(arena+hblkhd)
        194354 MiB available memory on the node where the printing process lives
------------------
     c_bands:  1 eigenvalues not converged
     c_bands:  2 eigenvalues not converged
     ethr =  2.06E-06,  avg # of iterations = 15.9

     total cpu time spent up to now is      200.0 secs

     total energy              =  -10056.72221310 Ry
     estimated scf accuracy    <       0.00820568 Ry

     total magnetization       =     2.03 Bohr mag/cell
     absolute magnetization    =     2.20 Bohr mag/cell

     iteration #  8     ecut=   150.00 Ry     beta= 0.70
     Davidson diagonalization with overlap

---- Real-time Memory Report at c_bands before calling an iterative solver
          1561 MiB given to the printing process from OS
             0 MiB allocation reported by mallinfo(arena+hblkhd)
        194170 MiB available memory on the node where the printing process lives
------------------
     ethr =  1.41E-06,  avg # of iterations =  5.1

     total cpu time spent up to now is      217.4 secs

     total energy              =  -10056.72354760 Ry
     estimated scf accuracy    <       0.00165133 Ry

     total magnetization       =     2.03 Bohr mag/cell
     absolute magnetization    =     2.24 Bohr mag/cell

     iteration #  9     ecut=   150.00 Ry     beta= 0.70
     Davidson diagonalization with overlap

---- Real-time Memory Report at c_bands before calling an iterative solver
          1569 MiB given to the printing process from OS
             0 MiB allocation reported by mallinfo(arena+hblkhd)
        193953 MiB available memory on the node where the printing process lives
------------------
     ethr =  2.84E-07,  avg # of iterations =  3.8

     total cpu time spent up to now is      234.1 secs

     total energy              =  -10056.72377769 Ry
     estimated scf accuracy    <       0.00028839 Ry

     total magnetization       =     2.03 Bohr mag/cell
     absolute magnetization    =     2.26 Bohr mag/cell

     iteration # 10     ecut=   150.00 Ry     beta= 0.70
     Davidson diagonalization with overlap

---- Real-time Memory Report at c_bands before calling an iterative solver
          1577 MiB given to the printing process from OS
             0 MiB allocation reported by mallinfo(arena+hblkhd)
        193737 MiB available memory on the node where the printing process lives
------------------
     ethr =  4.96E-08,  avg # of iterations =  6.5

     total cpu time spent up to now is      254.1 secs

     total energy              =  -10056.72384750 Ry
     estimated scf accuracy    <       0.00003041 Ry

     total magnetization       =     2.03 Bohr mag/cell
     absolute magnetization    =     2.28 Bohr mag/cell

     iteration # 11     ecut=   150.00 Ry     beta= 0.70
     Davidson diagonalization with overlap

---- Real-time Memory Report at c_bands before calling an iterative solver
          1585 MiB given to the printing process from OS
             0 MiB allocation reported by mallinfo(arena+hblkhd)
        193563 MiB available memory on the node where the printing process lives
------------------
     ethr =  5.23E-09,  avg # of iterations =  5.3

     total cpu time spent up to now is      276.0 secs

     total energy              =  -10056.72385965 Ry
     estimated scf accuracy    <       0.00000966 Ry

     total magnetization       =     2.03 Bohr mag/cell
     absolute magnetization    =     2.28 Bohr mag/cell

     iteration # 12     ecut=   150.00 Ry     beta= 0.70
     Davidson diagonalization with overlap

---- Real-time Memory Report at c_bands before calling an iterative solver
          1592 MiB given to the printing process from OS
             0 MiB allocation reported by mallinfo(arena+hblkhd)
        193578 MiB available memory on the node where the printing process lives
------------------
     ethr =  1.66E-09,  avg # of iterations =  4.5

     total cpu time spent up to now is      293.8 secs

     total energy              =  -10056.72386138 Ry
     estimated scf accuracy    <       0.00000143 Ry

     total magnetization       =     2.03 Bohr mag/cell
     absolute magnetization    =     2.28 Bohr mag/cell

     iteration # 13     ecut=   150.00 Ry     beta= 0.70
     Davidson diagonalization with overlap

---- Real-time Memory Report at c_bands before calling an iterative solver
          1598 MiB given to the printing process from OS
             0 MiB allocation reported by mallinfo(arena+hblkhd)
        193513 MiB available memory on the node where the printing process lives
------------------
     ethr =  2.46E-10,  avg # of iterations =  4.5

     total cpu time spent up to now is      313.5 secs

     total energy              =  -10056.72386178 Ry
     estimated scf accuracy    <       0.00000015 Ry

     total magnetization       =     2.03 Bohr mag/cell
     absolute magnetization    =     2.28 Bohr mag/cell

     iteration # 14     ecut=   150.00 Ry     beta= 0.70
     Davidson diagonalization with overlap

---- Real-time Memory Report at c_bands before calling an iterative solver
          1604 MiB given to the printing process from OS
             0 MiB allocation reported by mallinfo(arena+hblkhd)
        193469 MiB available memory on the node where the printing process lives
------------------
     ethr =  2.54E-11,  avg # of iterations =  4.9

     total cpu time spent up to now is      333.6 secs

     total energy              =  -10056.72386182 Ry
     estimated scf accuracy    <       0.00000005 Ry

     total magnetization       =     2.03 Bohr mag/cell
     absolute magnetization    =     2.28 Bohr mag/cell

     iteration # 15     ecut=   150.00 Ry     beta= 0.70
     Davidson diagonalization with overlap

---- Real-time Memory Report at c_bands before calling an iterative solver
          1609 MiB given to the printing process from OS
             0 MiB allocation reported by mallinfo(arena+hblkhd)
        193528 MiB available memory on the node where the printing process lives
------------------
     ethr =  8.75E-12,  avg # of iterations =  5.5

     total cpu time spent up to now is      350.9 secs

     total energy              =  -10056.72386183 Ry
     estimated scf accuracy    <       0.00000006 Ry

     total magnetization       =     2.03 Bohr mag/cell
     absolute magnetization    =     2.28 Bohr mag/cell

     iteration # 16     ecut=   150.00 Ry     beta= 0.70
     Davidson diagonalization with overlap

---- Real-time Memory Report at c_bands before calling an iterative solver
          1615 MiB given to the printing process from OS
             0 MiB allocation reported by mallinfo(arena+hblkhd)
        193451 MiB available memory on the node where the printing process lives
------------------
     ethr =  8.75E-12,  avg # of iterations =  6.2

     total cpu time spent up to now is      367.8 secs

     total energy              =  -10056.72386184 Ry
     estimated scf accuracy    <       0.00000001 Ry

     total magnetization       =     2.03 Bohr mag/cell
     absolute magnetization    =     2.28 Bohr mag/cell

     iteration # 17     ecut=   150.00 Ry     beta= 0.70
     Davidson diagonalization with overlap

---- Real-time Memory Report at c_bands before calling an iterative solver
          1622 MiB given to the printing process from OS
             0 MiB allocation reported by mallinfo(arena+hblkhd)
        193472 MiB available memory on the node where the printing process lives
------------------
     ethr =  2.51E-12,  avg # of iterations =  5.0
 
     Magnetic moment per site  (integrated on atomic sphere of radius R)
     atom   1 (R=0.088)  charge= 10.1214  magn= -0.0003
     atom   2 (R=0.088)  charge= 10.1210  magn= -0.0006
     atom   3 (R=0.088)  charge= 10.1210  magn= -0.0006
     atom   4 (R=0.088)  charge= 10.1210  magn= -0.0006
     atom   5 (R=0.086)  charge=  3.7744  magn= -0.0007
     atom   6 (R=0.086)  charge=  3.7759  magn= -0.0007
     atom   7 (R=0.086)  charge=  3.7744  magn= -0.0007
     atom   8 (R=0.086)  charge=  3.7744  magn= -0.0007
     atom   9 (R=0.088)  charge= 10.1216  magn= -0.0012
     atom  10 (R=0.088)  charge= 10.1210  magn= -0.0006
     atom  11 (R=0.088)  charge= 10.1210  magn= -0.0006
     atom  12 (R=0.088)  charge= 10.1214  magn=  0.0006
     atom  13 (R=0.086)  charge=  3.7749  magn=  0.0008
     atom  14 (R=0.086)  charge=  3.7749  magn=  0.0008
     atom  15 (R=0.086)  charge=  3.7840  magn=  0.0278
     atom  16 (R=0.086)  charge=  3.7749  magn=  0.0008
     atom  17 (R=0.088)  charge= 10.1216  magn= -0.0012
     atom  18 (R=0.088)  charge= 10.1210  magn= -0.0006
     atom  19 (R=0.088)  charge= 10.1214  magn=  0.0006
     atom  20 (R=0.088)  charge= 10.1210  magn= -0.0006
     atom  21 (R=0.086)  charge=  3.7749  magn=  0.0008
     atom  22 (R=0.086)  charge=  3.7749  magn=  0.0008
     atom  23 (R=0.086)  charge=  3.7749  magn=  0.0008
     atom  24 (R=0.086)  charge=  3.7840  magn=  0.0278
     atom  25 (R=0.088)  charge= 10.1209  magn= -0.0002
     atom  26 (R=0.088)  charge= 10.1210  magn= -0.0006
     atom  27 (R=0.088)  charge= 10.1214  magn=  0.0006
     atom  28 (R=0.088)  charge= 10.1214  magn=  0.0006
     atom  29 (R=0.086)  charge=  3.7759  magn= -0.0007
     atom  30 (R=0.086)  charge=  3.7744  magn= -0.0007
     atom  31 (R=0.086)  charge=  3.7744  magn= -0.0007
     atom  32 (R=0.086)  charge=  3.7744  magn= -0.0007
     atom  33 (R=0.088)  charge= 10.1216  magn= -0.0012
     atom  34 (R=0.088)  charge= 10.1214  magn=  0.0006
     atom  35 (R=0.088)  charge= 10.1210  magn= -0.0006
     atom  36 (R=0.088)  charge= 10.1210  magn= -0.0006
     atom  37 (R=0.086)  charge=  3.7840  magn=  0.0278
     atom  38 (R=0.086)  charge=  3.7749  magn=  0.0008
     atom  39 (R=0.086)  charge=  3.7749  magn=  0.0008
     atom  40 (R=0.086)  charge=  3.7749  magn=  0.0008
     atom  41 (R=0.088)  charge= 10.1209  magn= -0.0002
     atom  42 (R=0.088)  charge= 10.1214  magn=  0.0006
     atom  43 (R=0.088)  charge= 10.1210  magn= -0.0006
     atom  44 (R=0.088)  charge= 10.1214  magn=  0.0006
     atom  45 (R=0.086)  charge=  3.7744  magn= -0.0007
     atom  46 (R=0.086)  charge=  3.7744  magn= -0.0007
     atom  47 (R=0.086)  charge=  3.7744  magn= -0.0007
     atom  48 (R=0.086)  charge=  3.7759  magn= -0.0007
     atom  49 (R=0.088)  charge= 10.1209  magn= -0.0002
     atom  50 (R=0.088)  charge= 10.1214  magn=  0.0006
     atom  51 (R=0.088)  charge= 10.1214  magn=  0.0006
     atom  52 (R=0.088)  charge= 10.1210  magn= -0.0006
     atom  53 (R=0.086)  charge=  3.7744  magn= -0.0007
     atom  54 (R=0.086)  charge=  3.7744  magn= -0.0007
     atom  55 (R=0.086)  charge=  3.7759  magn= -0.0007
     atom  56 (R=0.086)  charge=  3.7744  magn= -0.0007
     atom  57 (R=0.086)  charge= 15.1030  magn=  1.7468
     atom  58 (R=0.088)  charge= 10.1214  magn=  0.0006
     atom  59 (R=0.088)  charge= 10.1214  magn=  0.0006
     atom  60 (R=0.088)  charge= 10.1214  magn=  0.0006
     atom  61 (R=0.086)  charge=  3.7749  magn=  0.0008
     atom  62 (R=0.086)  charge=  3.7840  magn=  0.0278
     atom  63 (R=0.086)  charge=  3.7749  magn=  0.0008
     atom  64 (R=0.086)  charge=  3.7749  magn=  0.0008

     total cpu time spent up to now is      384.3 secs

     End of self-consistent calculation

 ------ SPIN UP ------------


          k = 0.0000 0.0000 0.0000 (269825 PWs)   bands (ev):

   -88.1291 -51.4357 -51.4357 -51.4357  -7.4395  -6.9059  -6.9059  -6.8990
    -6.8990  -6.8990  -6.8846  -6.5987  -6.5987  -6.5987  -6.5964  -6.5824
    -6.5824  -6.5812  -6.5812  -6.5812  -6.5809  -6.5809  -6.5809  -6.5035
    -6.5035  -6.5035  -6.4716  -6.2795  -6.2795  -6.2795  -6.2513  -6.2513
    -6.2513  -6.1808  -6.1808  -6.1808  -0.7210  -0.7210  -0.7210  -0.7155
    -0.7146  -0.7146  -0.6768  -0.6768  -0.6630  -0.6582  -0.6582  -0.6582
    -0.5954  -0.5954  -0.5954  -0.5935  -0.5935  -0.5788  -0.5788  -0.5788
    -0.5744  -0.5744  -0.5744  -0.5614  -0.5612  -0.5612  -0.5612  -0.5514
    -0.5514  -0.5514  -0.5460  -0.5460  -0.5444  -0.5418  -0.5418  -0.5418
    -0.5355  -0.5355  -0.5355  -0.5313  -0.5313  -0.5313  -0.5247  -0.5247
    -0.5247  -0.5010  -0.5010  -0.4999  -0.4999  -0.4999  -0.4976  -0.4976
    -0.4976  -0.4896  -0.4735  -0.4735  -0.4735  -0.4483  -0.4483  -0.4283
    -0.4283  -0.4283  -0.3996  -0.3996  -0.3996  -0.3957  -0.3957  -0.3957
    -0.3852  -0.3852  -0.3852  -0.3820  -0.3820  -0.3678  -0.3678  -0.3678
    -0.3620  -0.3563  -0.3563  -0.3563  -0.3062  -0.3062  -0.3062  -0.2725
    -0.2725  -0.2636  -0.2636  -0.2636  -0.2635  -0.2635  -0.2635  -0.2520
    -0.2485  -0.2485  -0.2421  -0.2421  -0.2421  -0.2398  -0.2217  -0.2217
    -0.2202  -0.2202  -0.2202  -0.2148  -0.2001  -0.2001  -0.2001  -0.1942
    -0.1942  -0.1904  -0.1904  -0.1904  -0.1846  -0.1846  -0.1846  -0.1763
    -0.1743  -0.1743  -0.1743  -0.1621  -0.1621  -0.1448  -0.1448  -0.1448
    -0.1414  -0.1414  -0.1354  -0.1199  -0.1199  -0.1199  -0.1195  -0.1195
    -0.1195  -0.1076  -0.1076  -0.1076  -0.1010  -0.1010  -0.0847  -0.0847
    -0.0847  -0.0811  -0.0146  -0.0146  -0.0146   0.0144   0.0144   0.0144
     0.0269   0.1509   0.1509   0.1509   0.1922   0.1922   0.1922   0.4009
     0.4009   0.4009   0.4415   1.0345   1.0389   1.0389   1.0751   1.0751
     1.0757   1.0757   1.0757   1.2403   1.5496   1.5496   1.5496   1.6651
     1.6651   1.6837   1.6837   1.6837   1.6890   1.6890   1.6890   1.9866
     2.7923   2.7923   2.7923   2.8034   2.8034   2.8986   2.8986   2.8986
     2.9128   2.9128   2.9128   2.9380   2.9497   2.9497   2.9497   2.9917
     2.9917   3.0851   3.0851   3.0903   3.1011   3.1011   3.1011   3.1257
     3.1257   3.1257   3.1388   3.1388   3.1388   3.2765   3.4044   3.4044
     3.4044   3.4117   3.4117   3.4117   3.9405   3.9405   3.9405   4.3500
     4.3500   4.3500   4.3649   4.3649   4.3649   4.3768   4.3768   4.3768
     4.5123   4.5123   4.5160   4.5160   4.5160   4.6646   4.6646   4.6646
     4.6707   4.6707   4.6707   4.6860   4.6918   4.6918   4.6918   4.7009
     4.7009   4.7460   4.7460   4.7460   5.4018   5.4018   5.4018   6.1179
     6.1179   6.4001   6.4001   6.4001   7.5785   8.8064   8.8064   8.8064
     8.8756   9.0240   9.0240   9.0240   9.6297   9.6297   9.6480   9.9690
     9.9690   9.9773   9.9773   9.9773  10.0274  10.1146  10.1146  10.1333
    10.1333  10.1333  10.1450  10.3014  10.3014  10.3014  10.3086  10.3086
    10.3181  10.3181  10.3181  10.3264  10.3264  10.3264  10.8085  11.2048
    11.2048  11.2048  11.3106  11.3106  11.3106  11.4557  11.4557  11.4557
    11.4636  11.4636  11.9126  11.9518  11.9518  11.9518  12.1378  12.1378
    12.1378  12.1746  12.1746  12.1746  12.1859

     occupation numbers 
     1.0000   1.0000   1.0000   1.0000   1.0000   1.0000   1.0000   1.0000
     1.0000   1.0000   1.0000   1.0000   1.0000   1.0000   1.0000   1.0000
     1.0000   1.0000   1.0000   1.0000   1.0000   1.0000   1.0000   1.0000
     1.0000   1.0000   1.0000   1.0000   1.0000   1.0000   1.0000   1.0000
     1.0000   1.0000   1.0000   1.0000   1.0000   1.0000   1.0000   1.0000
     1.0000   1.0000   1.0000   1.0000   1.0000   1.0000   1.0000   1.0000
     1.0000   1.0000   1.0000   1.0000   1.0000   1.0000   1.0000   1.0000
     1.0000   1.0000   1.0000   1.0000   1.0000   1.0000   1.0000   1.0000
     1.0000   1.0000   1.0000   1.0000   1.0000   1.0000   1.0000   1.0000
     1.0000   1.0000   1.0000   1.0000   1.0000   1.0000   1.0000   1.0000
     1.0000   1.0000   1.0000   1.0000   1.0000   1.0000   1.0000   1.0000
     1.0000   1.0000   1.0000   1.0000   1.0000   1.0000   1.0000   1.0000
     1.0000   1.0000   1.0000   1.0000   1.0000   1.0000   1.0000   1.0000
     1.0000   1.0000   1.0000   1.0000   1.0000   1.0000   1.0000   1.0000
     1.0000   1.0000   1.0000   1.0000   1.0000   1.0000   1.0000   1.0000
     1.0000   1.0000   1.0000   1.0000   1.0000   1.0000   1.0000   1.0000
     1.0000   1.0000   1.0000   1.0000   1.0000   1.0000   1.0000   1.0000
     1.0000   1.0000   1.0000   1.0000   1.0000   1.0000   1.0000   1.0000
     1.0000   1.0000   1.0000   1.0000   1.0000   1.0000   1.0000   1.0000
     1.0000   1.0000   1.0000   1.0000   1.0000   1.0000   1.0000   1.0000
     1.0000   1.0000   1.0000   1.0000   1.0000   1.0000   1.0000   1.0000
     1.0000   1.0000   1.0000   1.0000   1.0000   1.0000   1.0000   1.0000
     1.0000   1.0000   1.0000   1.0000   1.0000   1.0000   1.0000   1.0000
     1.0000   1.0000   1.0000   1.0000   1.0000   1.0000   1.0000   1.0000
     1.0000   1.0000   1.0000   1.0000   1.0000   1.0000   1.0000   1.0000
     1.0000   1.0000   1.0000   1.0000   1.0000   1.0000   1.0000   1.0000
     1.0000   1.0000   1.0000   1.0000   1.0000   1.0000   1.0000   1.0000
     1.0000   1.0000   1.0000   1.0000   1.0000   1.0000   1.0000   1.0000
     1.0000   1.0000   1.0000   1.0000   1.0000   1.0000   1.0000   1.0000
     1.0000   1.0000   1.0000   1.0000   1.0000   1.0000   1.0000   1.0000
     1.0000   1.0000   1.0000   1.0000   1.0000   1.0000   1.0000   1.0000
     1.0000   1.0000   1.0000   1.0000   1.0000   1.0000   1.0000   1.0000
     1.0000   1.0000   1.0000   1.0000   1.0000   1.0000   1.0000   1.0000
     1.0000   1.0000   1.0000   1.0000   1.0000   1.0000   1.0000   1.0000
     1.0000   1.0000   1.0000   1.0000   1.0000   1.0000   1.0000   1.0000
     1.0000   1.0000   1.0000   1.0000   1.0000   1.0000   1.0000   1.0000
     1.0000   1.0000   1.0000   1.0000   1.0000   0.0000   0.0000   0.0000
     0.0000   0.0000   0.0000   0.0000   0.0000   0.0000   0.0000   0.0000
     0.0000   0.0000   0.0000   0.0000   0.0000   0.0000   0.0000   0.0000
     0.0000   0.0000   0.0000   0.0000   0.0000   0.0000   0.0000   0.0000
     0.0000   0.0000   0.0000   0.0000   0.0000   0.0000   0.0000   0.0000
     0.0000   0.0000   0.0000   0.0000   0.0000   0.0000   0.0000   0.0000
     0.0000   0.0000   0.0000   0.0000   0.0000   0.0000   0.0000   0.0000
     0.0000   0.0000   0.0000   0.0000   0.0000

          k = 0.0000 0.0000 0.2500 (269876 PWs)   bands (ev):

   -88.1291 -51.4357 -51.4357 -51.4357  -7.4017  -7.1145  -6.8818  -6.8758
    -6.8758  -6.8691  -6.7061  -6.7004  -6.7004  -6.6920  -6.6697  -6.5923
    -6.5887  -6.5870  -6.5870  -6.5407  -6.5363  -6.5363  -6.5110  -6.4564
    -6.4410  -6.4410  -6.4078  -6.3247  -6.2863  -6.2863  -6.2761  -6.2623
    -6.2623  -6.2116  -6.1857  -6.1857  -0.7177  -0.7120  -0.7064  -0.7064
    -0.6984  -0.6983  -0.6749  -0.6606  -0.6602  -0.6502  -0.6502  -0.6485
    -0.6069  -0.6069  -0.5990  -0.5936  -0.5930  -0.5874  -0.5874  -0.5852
    -0.5792  -0.5779  -0.5779  -0.5717  -0.5705  -0.5705  -0.5627  -0.5585
    -0.5569  -0.5569  -0.5523  -0.5520  -0.5487  -0.5487  -0.5461  -0.5418
    -0.5418  -0.5404  -0.5402  -0.5337  -0.5282  -0.5282  -0.5277  -0.5206
    -0.5206  -0.5136  -0.5136  -0.5126  -0.5072  -0.5017  -0.5009  -0.4959
    -0.4792  -0.4792  -0.4779  -0.4758  -0.4720  -0.4720  -0.4672  -0.4481
    -0.4481  -0.4459  -0.4421  -0.4249  -0.4164  -0.4164  -0.4161  -0.4009
    -0.4009  -0.3849  -0.3849  -0.3666  -0.3590  -0.3590  -0.3550  -0.3402
    -0.3199  -0.3199  -0.3078  -0.3055  -0.2976  -0.2925  -0.2917  -0.2917
    -0.2714  -0.2653  -0.2653  -0.2624  -0.2563  -0.2475  -0.2475  -0.2393
    -0.2393  -0.2393  -0.2392  -0.2361  -0.2306  -0.2272  -0.2210  -0.2210
    -0.2209  -0.2138  -0.2111  -0.2088  -0.2059  -0.2014  -0.2008  -0.1984
    -0.1980  -0.1980  -0.1966  -0.1890  -0.1843  -0.1829  -0.1829  -0.1751
    -0.1739  -0.1653  -0.1598  -0.1598  -0.1589  -0.1453  -0.1453  -0.1451
    -0.1416  -0.1364  -0.1311  -0.1311  -0.1216  -0.1216  -0.1214  -0.1199
    -0.1116  -0.1075  -0.1031  -0.0995  -0.0995  -0.0901  -0.0857  -0.0844
    -0.0786  -0.0786  -0.0713  -0.0647  -0.0647  -0.0495  -0.0444   0.0352
     0.0352   0.1186   0.1186   0.1197   0.1546   0.1625   0.1625   0.5875
     0.5875   0.6003   0.6213   1.0369   1.0514   1.0528   1.0679   1.0859
     1.0859   1.0906   1.1588   1.2521   1.3414   1.3414   1.3742   1.3889
     1.4137   1.4137   1.4294   1.6001   2.0035   2.0035   2.0506   2.0812
     2.3447   2.6413   2.6429   2.6496   2.6496   2.7226   2.7226   2.7805
     2.8146   2.8289   2.8289   2.8320   2.8988   2.9535   2.9816   2.9816
     2.9951   3.2571   3.2703   3.3021   3.3021   3.3049   3.3214   3.3214
     3.3670   3.3951   3.4037   3.4037   3.4044   3.4508   3.4508   3.4867
     3.4986   3.4986   3.5312   3.6615   3.8722   3.8722   4.0206   4.0613
     4.0613   4.2268   4.2400   4.3146   4.3146   4.3179   4.3433   4.4124
     4.4124   4.4402   4.4647   4.4927   4.4927   4.5017   4.5652   4.5693
     4.5693   4.6532   4.6685   4.6685   4.6917   4.6951   4.7293   4.7617
     4.7617   4.7765   4.7834   4.7834   5.1094   5.3226   5.3226   6.1076
     6.1295   6.3040   6.3716   6.3716   7.9828   9.0208   9.0253   9.0253
     9.0868   9.1003   9.2504   9.2504   9.5098   9.6545   9.7131   9.8258
     9.8354  10.0341  10.0341  10.0382  10.0470  10.0486  10.0857  10.0953
    10.0953  10.1806  10.2676  10.2852  10.2852  10.3243  10.3364  10.3552
    10.3552  10.3863  10.4338  10.4411  10.4411  10.6598  10.7169  10.7169
    10.7448  11.0350  11.0613  11.0681  11.0681  11.0694  11.3603  11.5637
    11.5725  11.5726  11.7393  11.8174  11.8454  11.8572  11.8573  11.8918
    11.9938  12.0083  12.0084  12.0335  12.0410

     occupation numbers 
     1.0000   1.0000   1.0000   1.0000   1.0000   1.0000   1.0000   1.0000
     1.0000   1.0000   1.0000   1.0000   1.0000   1.0000   1.0000   1.0000
     1.0000   1.0000   1.0000   1.0000   1.0000   1.0000   1.0000   1.0000
     1.0000   1.0000   1.0000   1.0000   1.0000   1.0000   1.0000   1.0000
     1.0000   1.0000   1.0000   1.0000   1.0000   1.0000   1.0000   1.0000
     1.0000   1.0000   1.0000   1.0000   1.0000   1.0000   1.0000   1.0000
     1.0000   1.0000   1.0000   1.0000   1.0000   1.0000   1.0000   1.0000
     1.0000   1.0000   1.0000   1.0000   1.0000   1.0000   1.0000   1.0000
     1.0000   1.0000   1.0000   1.0000   1.0000   1.0000   1.0000   1.0000
     1.0000   1.0000   1.0000   1.0000   1.0000   1.0000   1.0000   1.0000
     1.0000   1.0000   1.0000   1.0000   1.0000   1.0000   1.0000   1.0000
     1.0000   1.0000   1.0000   1.0000   1.0000   1.0000   1.0000   1.0000
     1.0000   1.0000   1.0000   1.0000   1.0000   1.0000   1.0000   1.0000
     1.0000   1.0000   1.0000   1.0000   1.0000   1.0000   1.0000   1.0000
     1.0000   1.0000   1.0000   1.0000   1.0000   1.0000   1.0000   1.0000
     1.0000   1.0000   1.0000   1.0000   1.0000   1.0000   1.0000   1.0000
     1.0000   1.0000   1.0000   1.0000   1.0000   1.0000   1.0000   1.0000
     1.0000   1.0000   1.0000   1.0000   1.0000   1.0000   1.0000   1.0000
     1.0000   1.0000   1.0000   1.0000   1.0000   1.0000   1.0000   1.0000
     1.0000   1.0000   1.0000   1.0000   1.0000   1.0000   1.0000   1.0000
     1.0000   1.0000   1.0000   1.0000   1.0000   1.0000   1.0000   1.0000
     1.0000   1.0000   1.0000   1.0000   1.0000   1.0000   1.0000   1.0000
     1.0000   1.0000   1.0000   1.0000   1.0000   1.0000   1.0000   1.0000
     1.0000   1.0000   1.0000   1.0000   1.0000   1.0000   1.0000   1.0000
     1.0000   1.0000   1.0000   1.0000   1.0000   1.0000   1.0000   1.0000
     1.0000   1.0000   1.0000   1.0000   1.0000   1.0000   1.0000   1.0000
     1.0000   1.0000   1.0000   1.0000   1.0000   1.0000   1.0000   1.0000
     1.0000   1.0000   1.0000   1.0000   1.0000   1.0000   1.0000   1.0000
     1.0000   1.0000   1.0000   1.0000   1.0000   1.0000   1.0000   1.0000
     1.0000   1.0000   1.0000   1.0000   1.0000   1.0000   1.0000   1.0000
     1.0000   1.0000   1.0000   1.0000   1.0000   1.0000   1.0000   1.0000
     1.0000   1.0000   1.0000   1.0000   1.0000   1.0000   1.0000   1.0000
     1.0000   1.0000   1.0000   1.0000   1.0000   1.0000   1.0000   1.0000
     1.0000   1.0000   1.0000   1.0000   1.0000   1.0000   1.0000   1.0000
     1.0000   1.0000   1.0000   1.0000   1.0000   1.0000   1.0000   1.0000
     1.0000   1.0000   1.0000   1.0000   1.0000   1.0000   1.0000   1.0000
     1.0000   1.0000   1.0000   1.0000   0.0001   0.0000   0.0000   0.0000
     0.0000   0.0000   0.0000   0.0000   0.0000   0.0000   0.0000   0.0000
     0.0000   0.0000   0.0000   0.0000   0.0000   0.0000   0.0000   0.0000
     0.0000   0.0000   0.0000   0.0000   0.0000   0.0000   0.0000   0.0000
     0.0000   0.0000   0.0000   0.0000   0.0000   0.0000   0.0000   0.0000
     0.0000   0.0000   0.0000   0.0000   0.0000   0.0000   0.0000   0.0000
     0.0000   0.0000   0.0000   0.0000   0.0000   0.0000   0.0000   0.0000
     0.0000   0.0000   0.0000   0.0000   0.0000

          k = 0.0000 0.0000-0.5000 (270152 PWs)   bands (ev):

   -88.1291 -51.4357 -51.4357 -51.4357  -7.3087  -7.2694  -6.8254  -6.8254
    -6.8240  -6.8225  -6.8007  -6.7843  -6.7843  -6.7692  -6.5917  -6.5877
    -6.5857  -6.5857  -6.5363  -6.5347  -6.5347  -6.5152  -6.4767  -6.4479
    -6.3620  -6.3620  -6.3610  -6.3360  -6.3352  -6.3234  -6.3234  -6.2693
    -6.2693  -6.2625  -6.1898  -6.1898  -0.7133  -0.7094  -0.6769  -0.6769
    -0.6755  -0.6666  -0.6647  -0.6626  -0.6467  -0.6467  -0.6346  -0.6346
    -0.6343  -0.6303  -0.6277  -0.6136  -0.5974  -0.5956  -0.5956  -0.5930
    -0.5846  -0.5846  -0.5843  -0.5809  -0.5777  -0.5754  -0.5750  -0.5750
    -0.5680  -0.5680  -0.5588  -0.5544  -0.5483  -0.5483  -0.5481  -0.5448
    -0.5421  -0.5421  -0.5386  -0.5356  -0.5356  -0.5328  -0.5322  -0.5219
    -0.5214  -0.5210  -0.5210  -0.5134  -0.5134  -0.5113  -0.5023  -0.5018
    -0.4812  -0.4812  -0.4773  -0.4714  -0.4658  -0.4588  -0.4588  -0.4578
    -0.4506  -0.4444  -0.4444  -0.4363  -0.4269  -0.4201  -0.4201  -0.4061
    -0.4061  -0.3866  -0.3866  -0.3553  -0.3421  -0.3368  -0.3368  -0.3072
    -0.3052  -0.3052  -0.3035  -0.2968  -0.2839  -0.2825  -0.2825  -0.2717
    -0.2717  -0.2673  -0.2668  -0.2652  -0.2577  -0.2577  -0.2575  -0.2523
    -0.2447  -0.2353  -0.2294  -0.2294  -0.2290  -0.2280  -0.2280  -0.2227
    -0.2214  -0.2214  -0.2198  -0.2179  -0.2140  -0.2099  -0.2049  -0.2025
    -0.1992  -0.1946  -0.1926  -0.1851  -0.1842  -0.1842  -0.1787  -0.1755
    -0.1735  -0.1660  -0.1660  -0.1631  -0.1521  -0.1516  -0.1497  -0.1435
    -0.1402  -0.1402  -0.1368  -0.1368  -0.1256  -0.1236  -0.1215  -0.1215
    -0.1182  -0.1181  -0.1129  -0.1070  -0.1007  -0.0977  -0.0952  -0.0952
    -0.0874  -0.0844  -0.0844   0.0178   0.0178   0.0225   0.0333   0.0333
     0.0362   0.0422   0.0498   0.0930   0.0930   0.0964   0.0964   0.9301
     0.9301   0.9335   0.9648   0.9912   0.9912   1.0185   1.0223   1.0379
     1.0606   1.0727   1.0961   1.1159   1.1543   1.1543   1.1672   1.1747
     1.2029   1.2029   1.4482   1.6720   1.8121   2.2980   2.2980   2.3576
     2.4422   2.4640   2.4665   2.4665   2.6021   2.6028   2.6525   2.6525
     2.6591   2.6664   2.6700   2.6700   2.7127   3.1004   3.1159   3.1159
     3.1193   3.1584   3.1587   3.1730   3.1730   3.4825   3.4825   3.5770
     3.6732   3.6732   3.7017   3.7237   3.7237   3.8578   3.8636   3.8714
     3.8758   3.8758   3.8782   3.8884   3.8884   3.8981   3.8981   3.9102
     3.9278   3.9346   3.9686   3.9689   3.9689   3.9848   4.0062   4.0149
     4.0149   4.2839   4.4032   4.4032   4.4952   4.4977   4.5655   4.6429
     4.6667   4.6667   4.6733   4.6766   4.6791   4.6791   4.6916   4.6968
     4.7129   4.7129   4.7459   5.0272   5.0272   5.1530   5.1530   6.0979
     6.1404   6.2413   6.3432   6.3432   8.7404   8.7747   9.2707   9.3454
     9.5145   9.5164   9.5316   9.5316   9.5540   9.5540   9.5850   9.6620
     9.8223   9.8223   9.8389   9.9164   9.9164   9.9436  10.1592  10.1735
    10.1735  10.1781  10.1901  10.2174  10.2174  10.3059  10.3245  10.3259
    10.4074  10.5407  10.6981  10.7156  10.7156  10.7299  10.7299  10.7327
    10.7371  10.9334  10.9334  10.9339  10.9383  10.9526  10.9716  11.0540
    11.0540  11.1906  11.2869  11.3664  11.7387  11.7485  11.7485  11.7853
    11.8275  11.8276  11.8689  12.0459  12.0516

     occupation numbers 
     1.0000   1.0000   1.0000   1.0000   1.0000   1.0000   1.0000   1.0000
     1.0000   1.0000   1.0000   1.0000   1.0000   1.0000   1.0000   1.0000
     1.0000   1.0000   1.0000   1.0000   1.0000   1.0000   1.0000   1.0000
     1.0000   1.0000   1.0000   1.0000   1.0000   1.0000   1.0000   1.0000
     1.0000   1.0000   1.0000   1.0000   1.0000   1.0000   1.0000   1.0000
     1.0000   1.0000   1.0000   1.0000   1.0000   1.0000   1.0000   1.0000
     1.0000   1.0000   1.0000   1.0000   1.0000   1.0000   1.0000   1.0000
     1.0000   1.0000   1.0000   1.0000   1.0000   1.0000   1.0000   1.0000
     1.0000   1.0000   1.0000   1.0000   1.0000   1.0000   1.0000   1.0000
     1.0000   1.0000   1.0000   1.0000   1.0000   1.0000   1.0000   1.0000
     1.0000   1.0000   1.0000   1.0000   1.0000   1.0000   1.0000   1.0000
     1.0000   1.0000   1.0000   1.0000   1.0000   1.0000   1.0000   1.0000
     1.0000   1.0000   1.0000   1.0000   1.0000   1.0000   1.0000   1.0000
     1.0000   1.0000   1.0000   1.0000   1.0000   1.0000   1.0000   1.0000
     1.0000   1.0000   1.0000   1.0000   1.0000   1.0000   1.0000   1.0000
     1.0000   1.0000   1.0000   1.0000   1.0000   1.0000   1.0000   1.0000
     1.0000   1.0000   1.0000   1.0000   1.0000   1.0000   1.0000   1.0000
     1.0000   1.0000   1.0000   1.0000   1.0000   1.0000   1.0000   1.0000
     1.0000   1.0000   1.0000   1.0000   1.0000   1.0000   1.0000   1.0000
     1.0000   1.0000   1.0000   1.0000   1.0000   1.0000   1.0000   1.0000
     1.0000   1.0000   1.0000   1.0000   1.0000   1.0000   1.0000   1.0000
     1.0000   1.0000   1.0000   1.0000   1.0000   1.0000   1.0000   1.0000
     1.0000   1.0000   1.0000   1.0000   1.0000   1.0000   1.0000   1.0000
     1.0000   1.0000   1.0000   1.0000   1.0000   1.0000   1.0000   1.0000
     1.0000   1.0000   1.0000   1.0000   1.0000   1.0000   1.0000   1.0000
     1.0000   1.0000   1.0000   1.0000   1.0000   1.0000   1.0000   1.0000
     1.0000   1.0000   1.0000   1.0000   1.0000   1.0000   1.0000   1.0000
     1.0000   1.0000   1.0000   1.0000   1.0000   1.0000   1.0000   1.0000
     1.0000   1.0000   1.0000   1.0000   1.0000   1.0000   1.0000   1.0000
     1.0000   1.0000   1.0000   1.0000   1.0000   1.0000   1.0000   1.0000
     1.0000   1.0000   1.0000   1.0000   1.0000   1.0000   1.0000   1.0000
     1.0000   1.0000   1.0000   1.0000   1.0000   1.0000   1.0000   1.0000
     1.0000   1.0000   1.0000   1.0000   1.0000   1.0000   1.0000   1.0000
     1.0000   1.0000   1.0000   1.0000   1.0000   1.0000   1.0000   1.0000
     1.0000   1.0000   1.0000   1.0000   1.0000   1.0000   1.0000   1.0000
     1.0000   1.0000   1.0000   1.0000   1.0000   1.0000   1.0000   1.0000
     1.0000   1.0000   1.0000   1.0000   0.0000   0.0000   0.0000   0.0000
     0.0000   0.0000   0.0000   0.0000   0.0000   0.0000   0.0000   0.0000
     0.0000   0.0000   0.0000   0.0000   0.0000   0.0000   0.0000   0.0000
     0.0000   0.0000   0.0000   0.0000   0.0000   0.0000   0.0000   0.0000
     0.0000   0.0000   0.0000   0.0000   0.0000   0.0000   0.0000   0.0000
     0.0000   0.0000   0.0000   0.0000   0.0000   0.0000   0.0000   0.0000
     0.0000   0.0000   0.0000   0.0000   0.0000   0.0000   0.0000   0.0000
     0.0000   0.0000   0.0000   0.0000   0.0000

          k = 0.0000 0.2500 0.2500 (269929 PWs)   bands (ev):

   -88.1291 -51.4357 -51.4357 -51.4357  -7.3648  -7.0885  -7.0808  -6.8652
    -6.8537  -6.8482  -6.6943  -6.6905  -6.6903  -6.6830  -6.6551  -6.6510
    -6.6003  -6.5932  -6.5473  -6.5448  -6.5017  -6.4925  -6.4620  -6.4467
    -6.4396  -6.4204  -6.3610  -6.3262  -6.3260  -6.2945  -6.2917  -6.2831
    -6.2736  -6.2164  -6.2162  -6.1913  -0.7052  -0.7032  -0.6947  -0.6946
    -0.6933  -0.6831  -0.6601  -0.6596  -0.6553  -0.6443  -0.6427  -0.6379
    -0.6107  -0.6086  -0.6082  -0.6033  -0.5987  -0.5929  -0.5922  -0.5915
    -0.5876  -0.5861  -0.5808  -0.5801  -0.5727  -0.5705  -0.5700  -0.5637
    -0.5621  -0.5611  -0.5592  -0.5559  -0.5553  -0.5520  -0.5514  -0.5499
    -0.5456  -0.5427  -0.5404  -0.5384  -0.5330  -0.5294  -0.5272  -0.5255
    -0.5237  -0.5171  -0.5125  -0.5082  -0.5048  -0.5009  -0.4996  -0.4863
    -0.4852  -0.4765  -0.4747  -0.4698  -0.4687  -0.4572  -0.4560  -0.4535
    -0.4510  -0.4480  -0.4405  -0.4301  -0.4275  -0.4224  -0.4180  -0.4150
    -0.4083  -0.4024  -0.3907  -0.3874  -0.3839  -0.3712  -0.3624  -0.3352
    -0.3229  -0.3157  -0.3113  -0.2978  -0.2911  -0.2872  -0.2872  -0.2779
    -0.2760  -0.2752  -0.2704  -0.2704  -0.2573  -0.2522  -0.2503  -0.2391
    -0.2379  -0.2331  -0.2321  -0.2310  -0.2247  -0.2243  -0.2222  -0.2207
    -0.2141  -0.2117  -0.2114  -0.2112  -0.2076  -0.2049  -0.2030  -0.2023
    -0.1966  -0.1956  -0.1949  -0.1922  -0.1896  -0.1858  -0.1852  -0.1726
    -0.1726  -0.1673  -0.1610  -0.1593  -0.1541  -0.1478  -0.1477  -0.1423
    -0.1388  -0.1388  -0.1284  -0.1259  -0.1249  -0.1216  -0.1212  -0.1202
    -0.1187  -0.1085  -0.1039  -0.1033  -0.1001  -0.0913  -0.0852  -0.0766
    -0.0651  -0.0623  -0.0570  -0.0290  -0.0263  -0.0011   0.0106   0.0265
     0.0596   0.0830   0.0912   0.1148   0.1220   0.1478   0.1567   0.5132
     0.5314   0.8950   0.9025   1.0204   1.0342   1.0372   1.0497   1.0792
     1.1063   1.1239   1.1463   1.1530   1.1640   1.1663   1.2161   1.2423
     1.4099   1.6018   1.6783   1.7364   1.7687   1.8123   1.9161   2.1972
     2.2211   2.4586   2.5483   2.5693   2.6197   2.6481   2.6778   2.6927
     2.7477   2.8474   2.8553   3.0040   3.0303   3.0748   3.1013   3.1057
     3.1245   3.1688   3.2426   3.2802   3.3240   3.3321   3.3813   3.3815
     3.4245   3.4247   3.4415   3.4822   3.5213   3.5297   3.5313   3.6304
     3.6887   3.7468   3.7638   3.7897   3.8564   3.8971   3.9278   3.9807
     4.0593   4.1223   4.1450   4.1868   4.2148   4.2541   4.3074   4.3391
     4.3452   4.3546   4.3586   4.3787   4.4280   4.4482   4.5043   4.5232
     4.5948   4.5958   4.6270   4.6435   4.6457   4.6593   4.7237   4.7311
     4.7685   4.7838   4.8786   4.9131   4.9953   5.2320   5.3745   6.1166
     6.1199   6.2823   6.3408   6.3833   8.2382   9.0499   9.0743   9.3140
     9.3216   9.3249   9.3731   9.3885   9.5375   9.5646   9.8777   9.8793
     9.8923   9.9009   9.9179   9.9304   9.9335   9.9628   9.9779   9.9781
    10.0557  10.1191  10.1471  10.1735  10.1990  10.2905  10.2985  10.3214
    10.3513  10.3949  10.4991  10.6861  10.6878  10.7007  10.7663  10.8012
    10.8387  10.8744  10.8767  10.9856  11.0145  11.0595  11.3136  11.4149
    11.4289  11.4303  11.5061  11.5194  11.7291  11.7853  11.8033  11.8102
    11.8311  11.9091  11.9244  11.9245  11.9341

     occupation numbers 
     1.0000   1.0000   1.0000   1.0000   1.0000   1.0000   1.0000   1.0000
     1.0000   1.0000   1.0000   1.0000   1.0000   1.0000   1.0000   1.0000
     1.0000   1.0000   1.0000   1.0000   1.0000   1.0000   1.0000   1.0000
     1.0000   1.0000   1.0000   1.0000   1.0000   1.0000   1.0000   1.0000
     1.0000   1.0000   1.0000   1.0000   1.0000   1.0000   1.0000   1.0000
     1.0000   1.0000   1.0000   1.0000   1.0000   1.0000   1.0000   1.0000
     1.0000   1.0000   1.0000   1.0000   1.0000   1.0000   1.0000   1.0000
     1.0000   1.0000   1.0000   1.0000   1.0000   1.0000   1.0000   1.0000
     1.0000   1.0000   1.0000   1.0000   1.0000   1.0000   1.0000   1.0000
     1.0000   1.0000   1.0000   1.0000   1.0000   1.0000   1.0000   1.0000
     1.0000   1.0000   1.0000   1.0000   1.0000   1.0000   1.0000   1.0000
     1.0000   1.0000   1.0000   1.0000   1.0000   1.0000   1.0000   1.0000
     1.0000   1.0000   1.0000   1.0000   1.0000   1.0000   1.0000   1.0000
     1.0000   1.0000   1.0000   1.0000   1.0000   1.0000   1.0000   1.0000
     1.0000   1.0000   1.0000   1.0000   1.0000   1.0000   1.0000   1.0000
     1.0000   1.0000   1.0000   1.0000   1.0000   1.0000   1.0000   1.0000
     1.0000   1.0000   1.0000   1.0000   1.0000   1.0000   1.0000   1.0000
     1.0000   1.0000   1.0000   1.0000   1.0000   1.0000   1.0000   1.0000
     1.0000   1.0000   1.0000   1.0000   1.0000   1.0000   1.0000   1.0000
     1.0000   1.0000   1.0000   1.0000   1.0000   1.0000   1.0000   1.0000
     1.0000   1.0000   1.0000   1.0000   1.0000   1.0000   1.0000   1.0000
     1.0000   1.0000   1.0000   1.0000   1.0000   1.0000   1.0000   1.0000
     1.0000   1.0000   1.0000   1.0000   1.0000   1.0000   1.0000   1.0000
     1.0000   1.0000   1.0000   1.0000   1.0000   1.0000   1.0000   1.0000
     1.0000   1.0000   1.0000   1.0000   1.0000   1.0000   1.0000   1.0000
     1.0000   1.0000   1.0000   1.0000   1.0000   1.0000   1.0000   1.0000
     1.0000   1.0000   1.0000   1.0000   1.0000   1.0000   1.0000   1.0000
     1.0000   1.0000   1.0000   1.0000   1.0000   1.0000   1.0000   1.0000
     1.0000   1.0000   1.0000   1.0000   1.0000   1.0000   1.0000   1.0000
     1.0000   1.0000   1.0000   1.0000   1.0000   1.0000   1.0000   1.0000
     1.0000   1.0000   1.0000   1.0000   1.0000   1.0000   1.0000   1.0000
     1.0000   1.0000   1.0000   1.0000   1.0000   1.0000   1.0000   1.0000
     1.0000   1.0000   1.0000   1.0000   1.0000   1.0000   1.0000   1.0000
     1.0000   1.0000   1.0000   1.0000   1.0000   1.0000   1.0000   1.0000
     1.0000   1.0000   1.0000   1.0000   1.0000   1.0000   1.0000   1.0000
     1.0000   1.0000   1.0000   1.0000   1.0000   1.0000   1.0000   1.0000
     1.0000   1.0000   1.0000   1.0000   0.0000   0.0000   0.0000   0.0000
     0.0000   0.0000   0.0000   0.0000   0.0000   0.0000   0.0000   0.0000
     0.0000   0.0000   0.0000   0.0000   0.0000   0.0000   0.0000   0.0000
     0.0000   0.0000   0.0000   0.0000   0.0000   0.0000   0.0000   0.0000
     0.0000   0.0000   0.0000   0.0000   0.0000   0.0000   0.0000   0.0000
     0.0000   0.0000   0.0000   0.0000   0.0000   0.0000   0.0000   0.0000
     0.0000   0.0000   0.0000   0.0000   0.0000   0.0000   0.0000   0.0000
     0.0000   0.0000   0.0000   0.0000   0.0000

          k = 0.0000 0.2500-0.5000 (269962 PWs)   bands (ev):

   -88.1291 -51.4357 -51.4357 -51.4357  -7.2742  -7.2355  -7.0155  -6.9756
    -6.8061  -6.8048  -6.7682  -6.7677  -6.6716  -6.6704  -6.6326  -6.6249
    -6.6217  -6.5873  -6.4948  -6.4882  -6.4702  -6.4637  -6.4430  -6.4415
    -6.3957  -6.3791  -6.3621  -6.3596  -6.3445  -6.3155  -6.3148  -6.3088
    -6.2818  -6.2588  -6.2202  -6.1960  -0.7019  -0.6903  -0.6794  -0.6684
    -0.6637  -0.6585  -0.6558  -0.6536  -0.6487  -0.6389  -0.6296  -0.6281
    -0.6276  -0.6254  -0.6218  -0.6108  -0.6096  -0.6067  -0.5985  -0.5958
    -0.5944  -0.5926  -0.5899  -0.5871  -0.5845  -0.5796  -0.5781  -0.5721
    -0.5709  -0.5676  -0.5661  -0.5616  -0.5584  -0.5570  -0.5530  -0.5507
    -0.5473  -0.5463  -0.5384  -0.5356  -0.5354  -0.5335  -0.5286  -0.5283
    -0.5235  -0.5194  -0.5139  -0.5112  -0.5026  -0.5017  -0.4959  -0.4860
    -0.4822  -0.4765  -0.4714  -0.4700  -0.4654  -0.4600  -0.4561  -0.4538
    -0.4465  -0.4371  -0.4345  -0.4267  -0.4245  -0.4238  -0.4154  -0.4039
    -0.4027  -0.4013  -0.3973  -0.3937  -0.3907  -0.3753  -0.3722  -0.3602
    -0.3527  -0.3425  -0.3286  -0.3285  -0.3115  -0.3073  -0.2997  -0.2767
    -0.2713  -0.2688  -0.2556  -0.2546  -0.2507  -0.2500  -0.2483  -0.2428
    -0.2400  -0.2279  -0.2270  -0.2231  -0.2224  -0.2196  -0.2194  -0.2180
    -0.2170  -0.2130  -0.2086  -0.2060  -0.2053  -0.2027  -0.2020  -0.1965
    -0.1945  -0.1937  -0.1927  -0.1915  -0.1885  -0.1869  -0.1752  -0.1729
    -0.1715  -0.1645  -0.1597  -0.1553  -0.1492  -0.1466  -0.1383  -0.1377
    -0.1345  -0.1310  -0.1298  -0.1278  -0.1263  -0.1230  -0.1223  -0.1170
    -0.1138  -0.1105  -0.1020  -0.1015  -0.0983  -0.0982  -0.0888  -0.0421
    -0.0407  -0.0356  -0.0198  -0.0151  -0.0039   0.0184   0.0256   0.0417
     0.0420   0.0530   0.0593   0.1039   0.1039   0.1112   0.1135   0.7536
     0.7588   0.7811   0.7897   0.9818   0.9984   1.0201   1.0353   1.0422
     1.0542   1.0570   1.1100   1.2076   1.2537   1.3062   1.3074   1.3414
     1.3451   1.3644   1.4669   1.6279   1.7512   1.9537   1.9969   2.1258
     2.1949   2.2289   2.3245   2.4770   2.5136   2.7569   2.7717   2.8134
     2.8480   2.8536   2.8752   2.9187   2.9297   2.9533   2.9647   3.1073
     3.1305   3.3141   3.3191   3.3944   3.4653   3.4693   3.5201   3.5424
     3.5511   3.5688   3.5950   3.6242   3.6629   3.6703   3.6854   3.7045
     3.7340   3.8008   3.8278   3.8497   3.9047   3.9189   3.9415   3.9822
     3.9891   4.0681   4.0846   4.1110   4.1490   4.1692   4.1801   4.1853
     4.2429   4.2493   4.2724   4.2834   4.3119   4.4019   4.4059   4.4147
     4.4384   4.5169   4.5231   4.5818   4.6204   4.6649   4.6961   4.6977
     4.7179   4.9339   5.0036   5.0201   5.0344   5.1808   5.2750   6.1044
     6.1319   6.2941   6.3140   6.3541   8.8324   8.8743   9.4186   9.4202
     9.4397   9.4661   9.5084   9.5825   9.6544   9.6683   9.6997   9.7223
     9.8564   9.8628   9.8780   9.8843   9.9012   9.9021   9.9103   9.9346
     9.9913  10.0111  10.0114  10.0775  10.1066  10.2176  10.3618  10.4280
    10.4465  10.5066  10.5537  10.5705  10.6516  10.6620  10.6841  10.7784
    10.7798  10.8778  10.9205  11.0206  11.1002  11.2279  11.3044  11.3239
    11.3490  11.3681  11.3940  11.4143  11.4352  11.4945  11.5502  11.6043
    11.6071  11.7158  11.7574  11.7817  11.8078

     occupation numbers 
     1.0000   1.0000   1.0000   1.0000   1.0000   1.0000   1.0000   1.0000
     1.0000   1.0000   1.0000   1.0000   1.0000   1.0000   1.0000   1.0000
     1.0000   1.0000   1.0000   1.0000   1.0000   1.0000   1.0000   1.0000
     1.0000   1.0000   1.0000   1.0000   1.0000   1.0000   1.0000   1.0000
     1.0000   1.0000   1.0000   1.0000   1.0000   1.0000   1.0000   1.0000
     1.0000   1.0000   1.0000   1.0000   1.0000   1.0000   1.0000   1.0000
     1.0000   1.0000   1.0000   1.0000   1.0000   1.0000   1.0000   1.0000
     1.0000   1.0000   1.0000   1.0000   1.0000   1.0000   1.0000   1.0000
     1.0000   1.0000   1.0000   1.0000   1.0000   1.0000   1.0000   1.0000
     1.0000   1.0000   1.0000   1.0000   1.0000   1.0000   1.0000   1.0000
     1.0000   1.0000   1.0000   1.0000   1.0000   1.0000   1.0000   1.0000
     1.0000   1.0000   1.0000   1.0000   1.0000   1.0000   1.0000   1.0000
     1.0000   1.0000   1.0000   1.0000   1.0000   1.0000   1.0000   1.0000
     1.0000   1.0000   1.0000   1.0000   1.0000   1.0000   1.0000   1.0000
     1.0000   1.0000   1.0000   1.0000   1.0000   1.0000   1.0000   1.0000
     1.0000   1.0000   1.0000   1.0000   1.0000   1.0000   1.0000   1.0000
     1.0000   1.0000   1.0000   1.0000   1.0000   1.0000   1.0000   1.0000
     1.0000   1.0000   1.0000   1.0000   1.0000   1.0000   1.0000   1.0000
     1.0000   1.0000   1.0000   1.0000   1.0000   1.0000   1.0000   1.0000
     1.0000   1.0000   1.0000   1.0000   1.0000   1.0000   1.0000   1.0000
     1.0000   1.0000   1.0000   1.0000   1.0000   1.0000   1.0000   1.0000
     1.0000   1.0000   1.0000   1.0000   1.0000   1.0000   1.0000   1.0000
     1.0000   1.0000   1.0000   1.0000   1.0000   1.0000   1.0000   1.0000
     1.0000   1.0000   1.0000   1.0000   1.0000   1.0000   1.0000   1.0000
     1.0000   1.0000   1.0000   1.0000   1.0000   1.0000   1.0000   1.0000
     1.0000   1.0000   1.0000   1.0000   1.0000   1.0000   1.0000   1.0000
     1.0000   1.0000   1.0000   1.0000   1.0000   1.0000   1.0000   1.0000
     1.0000   1.0000   1.0000   1.0000   1.0000   1.0000   1.0000   1.0000
     1.0000   1.0000   1.0000   1.0000   1.0000   1.0000   1.0000   1.0000
     1.0000   1.0000   1.0000   1.0000   1.0000   1.0000   1.0000   1.0000
     1.0000   1.0000   1.0000   1.0000   1.0000   1.0000   1.0000   1.0000
     1.0000   1.0000   1.0000   1.0000   1.0000   1.0000   1.0000   1.0000
     1.0000   1.0000   1.0000   1.0000   1.0000   1.0000   1.0000   1.0000
     1.0000   1.0000   1.0000   1.0000   1.0000   1.0000   1.0000   1.0000
     1.0000   1.0000   1.0000   1.0000   1.0000   1.0000   1.0000   1.0000
     1.0000   1.0000   1.0000   1.0000   1.0000   1.0000   1.0000   1.0000
     1.0000   1.0000   1.0000   1.0000   0.0000   0.0000   0.0000   0.0000
     0.0000   0.0000   0.0000   0.0000   0.0000   0.0000   0.0000   0.0000
     0.0000   0.0000   0.0000   0.0000   0.0000   0.0000   0.0000   0.0000
     0.0000   0.0000   0.0000   0.0000   0.0000   0.0000   0.0000   0.0000
     0.0000   0.0000   0.0000   0.0000   0.0000   0.0000   0.0000   0.0000
     0.0000   0.0000   0.0000   0.0000   0.0000   0.0000   0.0000   0.0000
     0.0000   0.0000   0.0000   0.0000   0.0000   0.0000   0.0000   0.0000
     0.0000   0.0000   0.0000   0.0000   0.0000

          k = 0.0000-0.5000-0.5000 (269920 PWs)   bands (ev):

   -88.1291 -51.4357 -51.4357 -51.4357  -7.1879  -7.1569  -7.1569  -7.1085
    -6.7676  -6.7635  -6.7391  -6.7391  -6.7325  -6.7325  -6.6881  -6.6792
    -6.4643  -6.4643  -6.4406  -6.4404  -6.4378  -6.4361  -6.4229  -6.4229
    -6.4128  -6.4128  -6.4007  -6.3980  -6.3828  -6.3644  -6.3189  -6.3189
    -6.2970  -6.2526  -6.2526  -6.2018  -0.6807  -0.6807  -0.6660  -0.6615
    -0.6543  -0.6535  -0.6440  -0.6369  -0.6344  -0.6285  -0.6285  -0.6271
    -0.6271  -0.6198  -0.6198  -0.6137  -0.6114  -0.6105  -0.6105  -0.6092
[...]
     1.0000   1.0000   1.0000   1.0000   1.0000   1.0000   1.0000   1.0000
     1.0000   1.0000   1.0000   1.0000   1.0000   1.0000   1.0000   1.0000
     1.0000   1.0000   1.0000   1.0000   1.0000   1.0000   1.0000   1.0000
     1.0000   1.0000   1.0000   1.0000   1.0000   1.0000   1.0000   1.0000
     1.0000   1.0000   1.0000   1.0000   1.0000   1.0000   1.0000   1.0000
     1.0000   1.0000   1.0000   1.0000   1.0000   1.0000   1.0000   1.0000
     1.0000   1.0000   1.0000   1.0000   1.0000   1.0000   1.0000   1.0000
     1.0000   1.0000   1.0000   1.0000   1.0000   1.0000   1.0000   1.0000
     1.0000   1.0000   1.0000   1.0000   1.0000   1.0000   1.0000   1.0000
     1.0000   1.0000   1.0000   1.0000   1.0000   1.0000   1.0000   1.0000
     1.0000   1.0000   1.0000   1.0000   1.0000   1.0000   1.0000   1.0000
     1.0000   1.0000   1.0000   1.0000   1.0000   1.0000   1.0000   1.0000
     1.0000   1.0000   1.0000   1.0000   1.0000   1.0000   1.0000   1.0000
     1.0000   1.0000   1.0000   1.0000   1.0000   1.0000   1.0000   1.0000
     1.0000   1.0000   1.0000   1.0000   1.0000   1.0000   1.0000   1.0000
     1.0000   1.0000   1.0000   1.0000   1.0000   1.0000   1.0000   1.0000
     1.0000   0.7120   0.4454   0.0000   0.0000   0.0000   0.0000   0.0000
     0.0000   0.0000   0.0000   0.0000   0.0000   0.0000   0.0000   0.0000
     0.0000   0.0000   0.0000   0.0000   0.0000   0.0000   0.0000   0.0000
     0.0000   0.0000   0.0000   0.0000   0.0000   0.0000   0.0000   0.0000
     0.0000   0.0000   0.0000   0.0000   0.0000   0.0000   0.0000   0.0000
     0.0000   0.0000   0.0000   0.0000   0.0000   0.0000   0.0000   0.0000
     0.0000   0.0000   0.0000   0.0000   0.0000   0.0000   0.0000   0.0000
     0.0000   0.0000   0.0000   0.0000   0.0000

          k = 0.2500-0.5000-0.5000 (269956 PWs)   bands (ev):

   -86.0541 -49.4117 -49.4117 -49.4117  -7.1574  -7.1250  -7.1250  -7.0700
    -6.9298  -6.8982  -6.8982  -6.8278  -6.5955  -6.5671  -6.5671  -6.5149
    -6.4636  -6.4636  -6.4401  -6.4393  -6.4357  -6.4344  -6.4231  -6.4231
    -6.4129  -6.4129  -6.4023  -6.4001  -6.3812  -6.3581  -6.3300  -6.3300
    -6.3110  -6.2315  -6.2315  -6.1970  -0.6736  -0.6736  -0.6615  -0.6530
    -0.6501  -0.6475  -0.6386  -0.6332  -0.6311  -0.6300  -0.6300  -0.6206
    -0.6206  -0.6142  -0.6142  -0.6136  -0.6100  -0.6096  -0.6096  -0.6049
    -0.6044  -0.6044  -0.6006  -0.5935  -0.5935  -0.5933  -0.5858  -0.5840
    -0.5825  -0.5825  -0.5798  -0.5724  -0.5709  -0.5709  -0.5671  -0.5599
    -0.5599  -0.5591  -0.5532  -0.5508  -0.5471  -0.5471  -0.5237  -0.5235
    -0.5163  -0.5056  -0.4984  -0.4984  -0.4955  -0.4857  -0.4857  -0.4838
    -0.4764  -0.4764  -0.4755  -0.4646  -0.4592  -0.4529  -0.4505  -0.4505
    -0.4365  -0.4339  -0.4339  -0.4234  -0.4221  -0.4109  -0.4109  -0.4055
    -0.3973  -0.3973  -0.3868  -0.3830  -0.3809  -0.3806  -0.3806  -0.3615
    -0.3563  -0.3563  -0.3562  -0.3528  -0.3387  -0.3124  -0.3034  -0.3029
    -0.3029  -0.2953  -0.2887  -0.2887  -0.2772  -0.2772  -0.2747  -0.2559
    -0.2435  -0.2392  -0.2332  -0.2190  -0.2190  -0.2118  -0.2118  -0.2106
    -0.2098  -0.2038  -0.1987  -0.1968  -0.1968  -0.1952  -0.1908  -0.1884
    -0.1884  -0.1828  -0.1812  -0.1812  -0.1801  -0.1725  -0.1610  -0.1610
    -0.1589  -0.1589  -0.1559  -0.1397  -0.1397  -0.1335  -0.1325  -0.1220
    -0.1220  -0.1195  -0.1166  -0.1147  -0.1063  -0.1063  -0.1033  -0.1009
    -0.1009  -0.0993  -0.0938  -0.0916  -0.0791  -0.0791  -0.0653  -0.0613
    -0.0603  -0.0599  -0.0599   0.0032   0.0086   0.0086   0.0284   0.0284
     0.0284   0.0410   0.0517   0.0773   0.0880   0.0880   0.0936   0.8685
     0.8904   0.8904   0.8916   0.9121   0.9121   0.9528   0.9782   1.0227
     1.0572   1.0572   1.1075   1.3727   1.3727   1.3783   1.4028   1.4234
     1.4234   1.4234   1.4404   1.4447   1.4447   1.4575   1.7772   2.2177
     2.2177   2.2386   2.3405   2.6825   2.7540   2.7540   2.7548   3.1365
     3.1365   3.1484   3.1765   3.1902   3.2224   3.2283   3.2283   3.2564
     3.2595   3.2595   3.2595   3.2669   3.2739   3.2739   3.2910   3.3053
     3.3053   3.3118   3.4585   3.7598   3.7740   3.7792   3.7792   3.7950
     3.8255   3.8284   3.8284   3.8385   3.8385   3.8459   3.8491   3.8603
     3.8775   3.8775   3.9071   4.0571   4.0917   4.0917   4.0971   4.0995
     4.0997   4.1489   4.1489   4.2173   4.2173   4.2444   4.2533   4.7290
     4.7409   4.7409   4.8143   4.8336   4.8830   4.8830   4.8855   4.9102
     4.9262   4.9435   4.9435   5.1991   5.1991   5.2449   5.3011   6.9394
     6.9606   7.9666   7.9838   7.9838   9.0136   9.0490   9.0490   9.0935
     9.1336   9.1547   9.1547   9.3071   9.7391   9.7391   9.7681   9.7807
     9.8637   9.8637   9.8855   9.8887   9.8940   9.8940   9.9299   9.9624
     9.9801   9.9933   9.9933  10.0180  10.0726  10.0936  10.0936  10.1184
    10.1446  10.2021  10.2021  10.4481  10.8900  10.9032  10.9074  10.9074
    10.9633  10.9840  10.9840  11.1987  11.4215  11.4215  11.4715  11.4916
    11.5147  11.5147  11.5951  11.6258  11.6261  11.6261  11.6387  11.6643
    11.6966  11.7449  11.7449  11.8542  11.9029

     occupation numbers 
     1.0000   1.0000   1.0000   1.0000   1.0000   1.0000   1.0000   1.0000
     1.0000   1.0000   1.0000   1.0000   1.0000   1.0000   1.0000   1.0000
     1.0000   1.0000   1.0000   1.0000   1.0000   1.0000   1.0000   1.0000
     1.0000   1.0000   1.0000   1.0000   1.0000   1.0000   1.0000   1.0000
     1.0000   1.0000   1.0000   1.0000   1.0000   1.0000   1.0000   1.0000
     1.0000   1.0000   1.0000   1.0000   1.0000   1.0000   1.0000   1.0000
     1.0000   1.0000   1.0000   1.0000   1.0000   1.0000   1.0000   1.0000
     1.0000   1.0000   1.0000   1.0000   1.0000   1.0000   1.0000   1.0000
     1.0000   1.0000   1.0000   1.0000   1.0000   1.0000   1.0000   1.0000
     1.0000   1.0000   1.0000   1.0000   1.0000   1.0000   1.0000   1.0000
     1.0000   1.0000   1.0000   1.0000   1.0000   1.0000   1.0000   1.0000
     1.0000   1.0000   1.0000   1.0000   1.0000   1.0000   1.0000   1.0000
     1.0000   1.0000   1.0000   1.0000   1.0000   1.0000   1.0000   1.0000
     1.0000   1.0000   1.0000   1.0000   1.0000   1.0000   1.0000   1.0000
     1.0000   1.0000   1.0000   1.0000   1.0000   1.0000   1.0000   1.0000
     1.0000   1.0000   1.0000   1.0000   1.0000   1.0000   1.0000   1.0000
     1.0000   1.0000   1.0000   1.0000   1.0000   1.0000   1.0000   1.0000
     1.0000   1.0000   1.0000   1.0000   1.0000   1.0000   1.0000   1.0000
     1.0000   1.0000   1.0000   1.0000   1.0000   1.0000   1.0000   1.0000
     1.0000   1.0000   1.0000   1.0000   1.0000   1.0000   1.0000   1.0000
     1.0000   1.0000   1.0000   1.0000   1.0000   1.0000   1.0000   1.0000
     1.0000   1.0000   1.0000   1.0000   1.0000   1.0000   1.0000   1.0000
     1.0000   1.0000   1.0000   1.0000   1.0000   1.0000   1.0000   1.0000
     1.0000   1.0000   1.0000   1.0000   1.0000   1.0000   1.0000   1.0000
     1.0000   1.0000   1.0000   1.0000   1.0000   1.0000   1.0000   1.0000
     1.0000   1.0000   1.0000   1.0000   1.0000   1.0000   1.0000   1.0000
     1.0000   1.0000   1.0000   1.0000   1.0000   1.0000   1.0000   1.0000
     1.0000   1.0000   1.0000   1.0000   1.0000   1.0000   1.0000   1.0000
     1.0000   1.0000   1.0000   1.0000   1.0000   1.0000   1.0000   1.0000
     1.0000   1.0000   1.0000   1.0000   1.0000   1.0000   1.0000   1.0000
     1.0000   1.0000   1.0000   1.0000   1.0000   1.0000   1.0000   1.0000
     1.0000   1.0000   1.0000   1.0000   1.0000   1.0000   1.0000   1.0000
     1.0000   1.0000   1.0000   1.0000   1.0000   1.0000   1.0000   1.0000
     1.0000   1.0000   1.0000   1.0000   1.0000   1.0000   1.0000   1.0000
     1.0000   1.0000   1.0000   1.0000   1.0000   1.0000   1.0000   1.0000
     1.0000   1.0000   1.0000   1.0000   1.0000   1.0000   1.0000   1.0000
     1.0000   0.0142   0.0000   0.0000   0.0000   0.0000   0.0000   0.0000
     0.0000   0.0000   0.0000   0.0000   0.0000   0.0000   0.0000   0.0000
     0.0000   0.0000   0.0000   0.0000   0.0000   0.0000   0.0000   0.0000
     0.0000   0.0000   0.0000   0.0000   0.0000   0.0000   0.0000   0.0000
     0.0000   0.0000   0.0000   0.0000   0.0000   0.0000   0.0000   0.0000
     0.0000   0.0000   0.0000   0.0000   0.0000   0.0000   0.0000   0.0000
     0.0000   0.0000   0.0000   0.0000   0.0000   0.0000   0.0000   0.0000
     0.0000   0.0000   0.0000   0.0000   0.0000

          k =-0.5000-0.5000-0.5000 (269968 PWs)   bands (ev):

   -86.0541 -49.4117 -49.4117 -49.4117  -7.0835  -7.0521  -7.0521  -7.0521
    -7.0180  -7.0180  -7.0180  -6.9243  -6.4683  -6.4683  -6.4683  -6.4483
    -6.4343  -6.4343  -6.4339  -6.4339  -6.4339  -6.4293  -6.4293  -6.4293
    -6.4083  -6.4083  -6.4083  -6.4029  -6.4029  -6.4015  -6.4015  -6.4015
    -6.3127  -6.2401  -6.2401  -6.2401  -0.6605  -0.6605  -0.6605  -0.6386
    -0.6367  -0.6367  -0.6306  -0.6306  -0.6306  -0.6303  -0.6303  -0.6303
    -0.6205  -0.6112  -0.6112  -0.6110  -0.6110  -0.6110  -0.6108  -0.6108
    -0.6108  -0.6057  -0.6057  -0.6057  -0.5960  -0.5904  -0.5904  -0.5904
    -0.5831  -0.5831  -0.5806  -0.5806  -0.5806  -0.5721  -0.5721  -0.5721
    -0.5653  -0.5653  -0.5653  -0.5627  -0.5627  -0.5627  -0.5261  -0.5137
    -0.5137  -0.4953  -0.4953  -0.4953  -0.4878  -0.4695  -0.4695  -0.4695
    -0.4670  -0.4670  -0.4670  -0.4584  -0.4584  -0.4584  -0.4561  -0.4561
    -0.4306  -0.4306  -0.4306  -0.4161  -0.4161  -0.4161  -0.4140  -0.4140
    -0.3905  -0.3670  -0.3670  -0.3670  -0.3501  -0.3501  -0.3467  -0.3467
    -0.3467  -0.3446  -0.3446  -0.3446  -0.3365  -0.3365  -0.3365  -0.3321
    -0.3277  -0.3277  -0.3277  -0.3187  -0.3187  -0.3187  -0.2929  -0.2789
    -0.2789  -0.2385  -0.2385  -0.2167  -0.2167  -0.2167  -0.2097  -0.2097
    -0.2097  -0.1958  -0.1958  -0.1956  -0.1956  -0.1956  -0.1824  -0.1824
    -0.1824  -0.1790  -0.1786  -0.1786  -0.1786  -0.1589  -0.1589  -0.1589
    -0.1463  -0.1463  -0.1463  -0.1324  -0.1324  -0.1324  -0.1139  -0.1139
    -0.1083  -0.1083  -0.1083  -0.0997  -0.0997  -0.0997  -0.0909  -0.0710
    -0.0710  -0.0710  -0.0563  -0.0563  -0.0563  -0.0520  -0.0407  -0.0407
    -0.0313  -0.0313  -0.0313  -0.0211  -0.0211  -0.0211  -0.0183  -0.0183
    -0.0078  -0.0078  -0.0078  -0.0070  -0.0070  -0.0070   0.0288   1.0771
     1.0771   1.0771   1.1208   1.1208   1.1239   1.1475   1.1475   1.1475
     1.1498   1.1498   1.1498   1.1763   1.1763   1.1763   1.2075   1.2075
     1.2112   1.2112   1.2112   1.2181   1.2181   1.2181   1.7113   2.6662
     2.6662   2.6662   2.7667   2.7748   2.7748   2.7748   2.9406   3.1031
     3.1031   3.1607   3.1607   3.1607   3.1972   3.1972   3.1972   3.2026
     3.2124   3.2124   3.2355   3.2355   3.2355   3.2400   3.2400   3.2400
     3.2443   3.2443   3.2443   3.2996   3.2996   3.2996   3.4383   3.9058
     3.9058   3.9058   3.9563   3.9563   3.9772   3.9892   3.9892   3.9892
     3.9958   3.9958   3.9958   4.0088   4.0088   4.0202   4.0202   4.0202
     4.0425   4.0425   4.0425   4.0700   4.0716   4.0716   4.0716   4.8684
     4.8684   4.8684   5.0524   5.0524   5.0796   5.0796   5.0796   5.0859
     5.0859   5.0859   5.0952   5.0952   5.1262   5.1262   5.1262   6.9421
     6.9421   8.0103   8.0103   8.0103   8.9136   8.9298   8.9298   8.9298
     8.9593   8.9593   8.9593   9.1479   9.8270   9.8270   9.8324   9.8324
     9.8324   9.8364   9.8364   9.8364   9.8428   9.8466   9.8466   9.8466
     9.8796   9.8796   9.8796   9.8868   9.8868   9.8868   9.9855   9.9855
    10.0399  10.0399  10.0399  10.3592  11.3975  11.3975  11.3975  11.4372
    11.4372  11.4372  11.4414  11.4414  11.4414  11.4494  11.4494  11.4495
    11.4495  11.4615  11.4615  11.4735  11.4735  11.4735  11.5051  11.5051
    11.6777  11.6777  11.6777  12.2419  12.3946

     occupation numbers 
     1.0000   1.0000   1.0000   1.0000   1.0000   1.0000   1.0000   1.0000
     1.0000   1.0000   1.0000   1.0000   1.0000   1.0000   1.0000   1.0000
     1.0000   1.0000   1.0000   1.0000   1.0000   1.0000   1.0000   1.0000
     1.0000   1.0000   1.0000   1.0000   1.0000   1.0000   1.0000   1.0000
     1.0000   1.0000   1.0000   1.0000   1.0000   1.0000   1.0000   1.0000
     1.0000   1.0000   1.0000   1.0000   1.0000   1.0000   1.0000   1.0000
     1.0000   1.0000   1.0000   1.0000   1.0000   1.0000   1.0000   1.0000
     1.0000   1.0000   1.0000   1.0000   1.0000   1.0000   1.0000   1.0000
     1.0000   1.0000   1.0000   1.0000   1.0000   1.0000   1.0000   1.0000
     1.0000   1.0000   1.0000   1.0000   1.0000   1.0000   1.0000   1.0000
     1.0000   1.0000   1.0000   1.0000   1.0000   1.0000   1.0000   1.0000
     1.0000   1.0000   1.0000   1.0000   1.0000   1.0000   1.0000   1.0000
     1.0000   1.0000   1.0000   1.0000   1.0000   1.0000   1.0000   1.0000
     1.0000   1.0000   1.0000   1.0000   1.0000   1.0000   1.0000   1.0000
     1.0000   1.0000   1.0000   1.0000   1.0000   1.0000   1.0000   1.0000
     1.0000   1.0000   1.0000   1.0000   1.0000   1.0000   1.0000   1.0000
     1.0000   1.0000   1.0000   1.0000   1.0000   1.0000   1.0000   1.0000
     1.0000   1.0000   1.0000   1.0000   1.0000   1.0000   1.0000   1.0000
     1.0000   1.0000   1.0000   1.0000   1.0000   1.0000   1.0000   1.0000
     1.0000   1.0000   1.0000   1.0000   1.0000   1.0000   1.0000   1.0000
     1.0000   1.0000   1.0000   1.0000   1.0000   1.0000   1.0000   1.0000
     1.0000   1.0000   1.0000   1.0000   1.0000   1.0000   1.0000   1.0000
     1.0000   1.0000   1.0000   1.0000   1.0000   1.0000   1.0000   1.0000
     1.0000   1.0000   1.0000   1.0000   1.0000   1.0000   1.0000   1.0000
     1.0000   1.0000   1.0000   1.0000   1.0000   1.0000   1.0000   1.0000
     1.0000   1.0000   1.0000   1.0000   1.0000   1.0000   1.0000   1.0000
     1.0000   1.0000   1.0000   1.0000   1.0000   1.0000   1.0000   1.0000
     1.0000   1.0000   1.0000   1.0000   1.0000   1.0000   1.0000   1.0000
     1.0000   1.0000   1.0000   1.0000   1.0000   1.0000   1.0000   1.0000
     1.0000   1.0000   1.0000   1.0000   1.0000   1.0000   1.0000   1.0000
     1.0000   1.0000   1.0000   1.0000   1.0000   1.0000   1.0000   1.0000
     1.0000   1.0000   1.0000   1.0000   1.0000   1.0000   1.0000   1.0000
     1.0000   1.0000   1.0000   1.0000   1.0000   1.0000   1.0000   1.0000
     1.0000   1.0000   1.0000   1.0000   1.0000   1.0000   1.0000   1.0000
     1.0000   1.0000   1.0000   1.0000   1.0000   1.0000   1.0000   1.0000
     1.0000   1.0000   1.0000   1.0000   1.0000   1.0000   1.0000   1.0000
     1.0000   0.0000   0.0000   0.0000   0.0000   0.0000   0.0000   0.0000
     0.0000   0.0000   0.0000   0.0000   0.0000   0.0000   0.0000   0.0000
     0.0000   0.0000   0.0000   0.0000   0.0000   0.0000   0.0000   0.0000
     0.0000   0.0000   0.0000   0.0000   0.0000   0.0000   0.0000   0.0000
     0.0000   0.0000   0.0000   0.0000   0.0000   0.0000   0.0000   0.0000
     0.0000   0.0000   0.0000   0.0000   0.0000   0.0000   0.0000   0.0000
     0.0000   0.0000   0.0000   0.0000   0.0000   0.0000   0.0000   0.0000
     0.0000   0.0000   0.0000   0.0000   0.0000

     the Fermi energy is     7.9455 ev

!    total energy              =  -10056.72386184 Ry
     total all-electron energy =   -139694.445773 Ry
     estimated scf accuracy    <          9.9E-10 Ry
     smearing contrib. (-TS)   =      -0.00016390 Ry
     internal energy E=F+TS    =  -10056.72369794 Ry

     The total energy is F=E-TS. E is the sum of the following terms:
     one-electron contribution =   -2933.91059799 Ry
     hartree contribution      =    2042.34394132 Ry
     xc contribution           =   -1658.88935032 Ry
     ewald contribution        =   -2984.38433842 Ry
     one-center paw contrib.   =   -4521.88335254 Ry
      -> PAW hartree energy AE =     123.35954915 Ry
      -> PAW hartree energy PS =    -122.71802049 Ry
      -> PAW xc energy AE      =    -143.21618038 Ry
      -> PAW xc energy PS      =      47.15461984 Ry
      -> total E_H with PAW    =    2042.98546998 Ry
      -> total E_XC with PAW   =   -1754.95091086 Ry

     total magnetization       =     2.03 Bohr mag/cell
     absolute magnetization    =     2.28 Bohr mag/cell

     convergence has been achieved in  17 iterations

     Writing all to output data dir ./out/Co_qn1.save/
 
     init_run     :      8.42s CPU     10.21s WALL (       1 calls)
     electrons    :    361.32s CPU    366.37s WALL (       1 calls)

     Called by init_run:
     wfcinit      :      6.04s CPU      7.45s WALL (       1 calls)
     wfcinit:atom :      0.05s CPU      0.06s WALL (       4 calls)
     wfcinit:wfcr :      5.78s CPU      5.96s WALL (       4 calls)
     potinit      :      0.53s CPU      0.64s WALL (       1 calls)
     hinit0       :      0.38s CPU      0.47s WALL (       1 calls)

     Called by electrons:
     c_bands      :    324.65s CPU    329.09s WALL (      18 calls)
     sum_band     :     30.68s CPU     31.08s WALL (      18 calls)
     v_of_rho     :      1.39s CPU      1.49s WALL (      18 calls)
     v_h          :      0.06s CPU      0.06s WALL (      18 calls)
     v_xc         :      1.33s CPU      1.42s WALL (      18 calls)
     newd         :      0.86s CPU      0.87s WALL (      18 calls)
     PAW_pot      :      1.53s CPU      1.56s WALL (      18 calls)
     mix_rho      :      0.46s CPU      0.48s WALL (      18 calls)

     Called by c_bands:
     init_us_2    :      4.17s CPU      4.20s WALL (     148 calls)
     init_us_2:cp :      4.17s CPU      4.20s WALL (     148 calls)
     cegterg      :    295.95s CPU    300.14s WALL (      72 calls)

     Called by sum_band:
     sum_band:wei :      0.06s CPU      0.07s WALL (      18 calls)
     sum_band:loo :     28.21s CPU     28.56s WALL (      18 calls)
     sum_band:buf :      0.62s CPU      0.70s WALL (      72 calls)
     sum_band:ini :      2.04s CPU      2.05s WALL (      72 calls)
     sum_band:cal :     10.42s CPU     10.51s WALL (      72 calls)
     sum_band:bec :      0.29s CPU      0.29s WALL (      72 calls)
     addusdens    :      1.38s CPU      1.41s WALL (      18 calls)
                                        0.00s GPU  (      18 calls)
     addusd:skk   :      0.03s CPU      0.03s WALL (      54 calls)
                                        0.00s GPU  (      54 calls)

     Called by *egterg:
     cdiaghg      :     38.99s CPU     39.24s WALL (     591 calls)
     cegterg:over :     22.86s CPU     23.03s WALL (     523 calls)
     cegterg:upda :     23.68s CPU     23.88s WALL (     523 calls)
     cegterg:last :     32.45s CPU     32.66s WALL (     149 calls)
     cdiaghg:chol :      2.50s CPU      2.52s WALL (     591 calls)
     cdiaghg:inve :      3.74s CPU      3.77s WALL (     591 calls)
     cdiaghg:para :      5.93s CPU      5.97s WALL (    1182 calls)
     h_psi        :    141.77s CPU    144.01s WALL (     599 calls)
     s_psi        :     32.61s CPU     32.80s WALL (     599 calls)
     g_psi        :      0.73s CPU      0.73s WALL (     523 calls)

     Called by h_psi:
     h_psi:calbec :     31.53s CPU     31.75s WALL (     599 calls)
     vloc_psi     :     75.69s CPU     76.46s WALL (     599 calls)
     add_vuspsi   :     33.33s CPU     33.74s WALL (     599 calls)

     General routines
     calbec       :     41.94s CPU     42.25s WALL (     671 calls)
     fft          :      1.02s CPU      1.21s WALL (     378 calls)
     ffts         :      0.06s CPU      0.06s WALL (      36 calls)
     fftw         :     83.76s CPU     84.62s WALL (  155156 calls)
 
     Parallel routines

     PAW routines
     PAW_pot      :      1.53s CPU      1.56s WALL (      18 calls)
     PAW_symme    :      0.04s CPU      0.04s WALL (      36 calls)
 
     PWSCF        :   6m18.28s CPU   6m48.51s WALL

 
   This run was terminated on:   1:57:45  29Jun2024            

=------------------------------------------------------------------------------=
   JOB DONE.
=------------------------------------------------------------------------------=
