
     Program PWSCF v.7.2 starts on  5Jul2024 at  0:14:24 

     This program is part of the open-source Quantum ESPRESSO suite
     for quantum simulation of materials; please cite
         "P. Giannozzi et al., J. Phys.:Condens. Matter 21 395502 (2009);
         "P. Giannozzi et al., J. Phys.:Condens. Matter 29 465901 (2017);
         "P. Giannozzi et al., J. Chem. Phys. 152 154105 (2020);
          URL http://www.quantum-espresso.org", 
     in publications or presentations arising from this work. More details at
     http://www.quantum-espresso.org/quote

     Parallel version (MPI), running on  1120 processors

     MPI processes distributed on    10 nodes
     228670 MiB available memory on the printing compute node when the environment starts
 
     Reading input from 2.Cu_in_ZnS.scf.qn1.in

     Current dimensions of program PWSCF are:
     Max number of different atomic species (ntypx) = 10
     Max number of k-points (npk) =  40000
     Max angular momentum in pseudopotentials (lmaxx) =  4
     file S.pbe-n-kjpaw_psl.1.0.0.UPF: wavefunction(s)  3S 3P renormalized
     file Zn.pbe-dnl-kjpaw_psl.1.0.0.UPF: wavefunction(s)  4S 3D renormalized
     file Cu.pbe-spn-kjpaw_psl.1.0.0.UPF: wavefunction(s)  4S 3P 3D renormalized
 
     K-points division:     npool     =      10
     R & G space division:  proc/nbgrp/npool/nimage =     112
     Subspace diagonalization in iterative solution of the eigenvalue problem:
     one sub-group per band group will be used
     scalapack distributed-memory algorithm (size of sub-group:  4*  4 procs)

 
     Parallelization info
     --------------------
     sticks:   dense  smooth     PW     G-vecs:    dense   smooth      PW
     Min         180     180     46                19282    19282    2562
     Max         181     181     47                19291    19291    2573
     Sum       20217   20217   5249              2160009  2160009  287777
 
     Using Slab Decomposition
 


     bravais-lattice index     =            1
     lattice parameter (alat)  =      20.5686  a.u.
     unit-cell volume          =    8701.8437 (a.u.)^3
     number of atoms/cell      =           64
     number of atomic types    =            3
     number of electrons       =       584.00
     number of Kohn-Sham states=          350
     kinetic-energy cutoff     =     150.0000  Ry
     charge density cutoff     =     600.0000  Ry
     scf convergence threshold =      1.0E-08
     mixing beta               =       0.7000
     number of iterations used =            8  plain     mixing
     Exchange-correlation= SLA  PW   PBX  PBC
                           (   1   4   3   4   0   0   0)

     celldm(1)=  20.568554  celldm(2)=   0.000000  celldm(3)=   0.000000
     celldm(4)=   0.000000  celldm(5)=   0.000000  celldm(6)=   0.000000

     crystal axes: (cart. coord. in units of alat)
               a(1) = (   1.000000   0.000000   0.000000 )  
               a(2) = (   0.000000   1.000000   0.000000 )  
               a(3) = (   0.000000   0.000000   1.000000 )  

     reciprocal axes: (cart. coord. in units 2 pi/alat)
               b(1) = (  1.000000  0.000000  0.000000 )  
               b(2) = (  0.000000  1.000000  0.000000 )  
               b(3) = (  0.000000  0.000000  1.000000 )  


     PseudoPot. # 1 for S  read from file:
     /arf/home/amuhaymin/pseudo/S.pbe-n-kjpaw_psl.1.0.0.UPF
     MD5 check sum: fb45dfebcf3e72a4e1bd4a866ec2e262
     Pseudo is Projector augmented-wave + core cor, Zval =  6.0
     Generated using &quot;atomic&quot; code by A. Dal Corso  v.6.3
     Shape of augmentation charge: PSQ
     Using radial grid of 1151 points,  6 beta functions with: 
                l(1) =   0
                l(2) =   0
                l(3) =   1
                l(4) =   1
                l(5) =   2
                l(6) =   2
     Q(r) pseudized with 0 coefficients 


     PseudoPot. # 2 for Zn read from file:
     /arf/home/amuhaymin/pseudo/Zn.pbe-dnl-kjpaw_psl.1.0.0.UPF
     MD5 check sum: c608214d9520ac179f507641260889e3
     Pseudo is Projector augmented-wave + core cor, Zval = 12.0
     Generated using &quot;atomic&quot; code by A. Dal Corso  v.6.2.2
     Shape of augmentation charge: PSQ
     Using radial grid of 1201 points,  6 beta functions with: 
                l(1) =   0
                l(2) =   0
                l(3) =   1
                l(4) =   1
                l(5) =   2
                l(6) =   2
     Q(r) pseudized with 0 coefficients 


     PseudoPot. # 3 for Cu read from file:
     /arf/home/amuhaymin/pseudo/Cu.pbe-spn-kjpaw_psl.1.0.0.UPF
     MD5 check sum: e7cbaad2f97193e5fe23251a619a52b0
     Pseudo is Projector augmented-wave + core cor, Zval = 19.0
     Generated using &quot;atomic&quot; code by A. Dal Corso  v.6.3
     Shape of augmentation charge: PSQ
     Using radial grid of 1199 points,  6 beta functions with: 
                l(1) =   0
                l(2) =   0
                l(3) =   1
                l(4) =   1
                l(5) =   2
                l(6) =   2
     Q(r) pseudized with 0 coefficients 


     atomic species   valence    mass     pseudopotential
        S              6.00    32.06500     S ( 1.00)
        Zn            12.00    65.38000     Zn( 1.00)
        Cu            19.00    63.54600     Cu( 1.00)

     Starting magnetic structure 
     atomic species   magnetization
        S            0.000
        Zn           0.000
        Cu           0.000

     24 Sym. Ops. (no inversion) found


                                    s                        frac. trans.

      isym =  1     identity                                     

 cryst.   s( 1) = (     1          0          0      )
                  (     0          1          0      )
                  (     0          0          1      )

 cart.    s( 1) = (  1.0000000  0.0000000  0.0000000 )
                  (  0.0000000  1.0000000  0.0000000 )
                  (  0.0000000  0.0000000  1.0000000 )


      isym =  2     180 deg rotation - cart. axis [0,0,1]        

 cryst.   s( 2) = (    -1          0          0      )
                  (     0         -1          0      )
                  (     0          0          1      )

 cart.    s( 2) = ( -1.0000000  0.0000000  0.0000000 )
                  (  0.0000000 -1.0000000  0.0000000 )
                  (  0.0000000  0.0000000  1.0000000 )


      isym =  3     180 deg rotation - cart. axis [0,1,0]        

 cryst.   s( 3) = (    -1          0          0      )
                  (     0          1          0      )
                  (     0          0         -1      )

 cart.    s( 3) = ( -1.0000000  0.0000000  0.0000000 )
                  (  0.0000000  1.0000000  0.0000000 )
                  (  0.0000000  0.0000000 -1.0000000 )


      isym =  4     180 deg rotation - cart. axis [1,0,0]        

 cryst.   s( 4) = (     1          0          0      )
                  (     0         -1          0      )
                  (     0          0         -1      )

 cart.    s( 4) = (  1.0000000  0.0000000  0.0000000 )
                  (  0.0000000 -1.0000000  0.0000000 )
                  (  0.0000000  0.0000000 -1.0000000 )


      isym =  5     120 deg rotation - cart. axis [-1,-1,-1]     

 cryst.   s( 5) = (     0          0          1      )
                  (     1          0          0      )
                  (     0          1          0      )

 cart.    s( 5) = (  0.0000000  1.0000000  0.0000000 )
                  (  0.0000000  0.0000000  1.0000000 )
                  (  1.0000000  0.0000000  0.0000000 )


      isym =  6     120 deg rotation - cart. axis [-1,1,1]       

 cryst.   s( 6) = (     0          0         -1      )
                  (    -1          0          0      )
                  (     0          1          0      )

 cart.    s( 6) = (  0.0000000 -1.0000000  0.0000000 )
                  (  0.0000000  0.0000000  1.0000000 )
                  ( -1.0000000  0.0000000  0.0000000 )


      isym =  7     120 deg rotation - cart. axis [1,1,-1]       

 cryst.   s( 7) = (     0          0         -1      )
                  (     1          0          0      )
                  (     0         -1          0      )

 cart.    s( 7) = (  0.0000000  1.0000000  0.0000000 )
                  (  0.0000000  0.0000000 -1.0000000 )
                  ( -1.0000000  0.0000000  0.0000000 )


      isym =  8     120 deg rotation - cart. axis [1,-1,1]       

 cryst.   s( 8) = (     0          0          1      )
                  (    -1          0          0      )
                  (     0         -1          0      )

 cart.    s( 8) = (  0.0000000 -1.0000000  0.0000000 )
                  (  0.0000000  0.0000000 -1.0000000 )
                  (  1.0000000  0.0000000  0.0000000 )


      isym =  9     120 deg rotation - cart. axis [1,1,1]        

 cryst.   s( 9) = (     0          1          0      )
                  (     0          0          1      )
                  (     1          0          0      )

 cart.    s( 9) = (  0.0000000  0.0000000  1.0000000 )
                  (  1.0000000  0.0000000  0.0000000 )
                  (  0.0000000  1.0000000  0.0000000 )


      isym = 10     120 deg rotation - cart. axis [-1,1,-1]      

 cryst.   s(10) = (     0         -1          0      )
                  (     0          0         -1      )
                  (     1          0          0      )

 cart.    s(10) = (  0.0000000  0.0000000  1.0000000 )
                  ( -1.0000000  0.0000000  0.0000000 )
                  (  0.0000000 -1.0000000  0.0000000 )


      isym = 11     120 deg rotation - cart. axis [1,-1,-1]      

 cryst.   s(11) = (     0         -1          0      )
                  (     0          0          1      )
                  (    -1          0          0      )

 cart.    s(11) = (  0.0000000  0.0000000 -1.0000000 )
                  ( -1.0000000  0.0000000  0.0000000 )
                  (  0.0000000  1.0000000  0.0000000 )


      isym = 12     120 deg rotation - cart. axis [-1,-1,1]      

 cryst.   s(12) = (     0          1          0      )
                  (     0          0         -1      )
                  (    -1          0          0      )

 cart.    s(12) = (  0.0000000  0.0000000 -1.0000000 )
                  (  1.0000000  0.0000000  0.0000000 )
                  (  0.0000000 -1.0000000  0.0000000 )


      isym = 13     inv. 180 deg rotation - cart. axis [1,1,0]   

 cryst.   s(13) = (     0         -1          0      )
                  (    -1          0          0      )
                  (     0          0          1      )

 cart.    s(13) = (  0.0000000 -1.0000000  0.0000000 )
                  ( -1.0000000  0.0000000  0.0000000 )
                  (  0.0000000  0.0000000  1.0000000 )


      isym = 14     inv. 180 deg rotation - cart. axis [1,-1,0]  

 cryst.   s(14) = (     0          1          0      )
                  (     1          0          0      )
                  (     0          0          1      )

 cart.    s(14) = (  0.0000000  1.0000000  0.0000000 )
                  (  1.0000000  0.0000000  0.0000000 )
                  (  0.0000000  0.0000000  1.0000000 )


      isym = 15     inv.  90 deg rotation - cart. axis [0,0,-1]  

 cryst.   s(15) = (     0          1          0      )
                  (    -1          0          0      )
                  (     0          0         -1      )

 cart.    s(15) = (  0.0000000 -1.0000000  0.0000000 )
                  (  1.0000000  0.0000000  0.0000000 )
                  (  0.0000000  0.0000000 -1.0000000 )


      isym = 16     inv.  90 deg rotation - cart. axis [0,0,1]   

 cryst.   s(16) = (     0         -1          0      )
                  (     1          0          0      )
                  (     0          0         -1      )

 cart.    s(16) = (  0.0000000  1.0000000  0.0000000 )
                  ( -1.0000000  0.0000000  0.0000000 )
                  (  0.0000000  0.0000000 -1.0000000 )


      isym = 17     inv. 180 deg rotation - cart. axis [1,0,1]   

 cryst.   s(17) = (     0          0         -1      )
                  (     0          1          0      )
                  (    -1          0          0      )

 cart.    s(17) = (  0.0000000  0.0000000 -1.0000000 )
                  (  0.0000000  1.0000000  0.0000000 )
                  ( -1.0000000  0.0000000  0.0000000 )


      isym = 18     inv. 180 deg rotation - cart. axis [-1,0,1]  

 cryst.   s(18) = (     0          0          1      )
                  (     0          1          0      )
                  (     1          0          0      )

 cart.    s(18) = (  0.0000000  0.0000000  1.0000000 )
                  (  0.0000000  1.0000000  0.0000000 )
                  (  1.0000000  0.0000000  0.0000000 )


      isym = 19     inv.  90 deg rotation - cart. axis [0,1,0]   

 cryst.   s(19) = (     0          0          1      )
                  (     0         -1          0      )
                  (    -1          0          0      )

 cart.    s(19) = (  0.0000000  0.0000000 -1.0000000 )
                  (  0.0000000 -1.0000000  0.0000000 )
                  (  1.0000000  0.0000000  0.0000000 )


      isym = 20     inv.  90 deg rotation - cart. axis [0,-1,0]  

 cryst.   s(20) = (     0          0         -1      )
                  (     0         -1          0      )
                  (     1          0          0      )

 cart.    s(20) = (  0.0000000  0.0000000  1.0000000 )
                  (  0.0000000 -1.0000000  0.0000000 )
                  ( -1.0000000  0.0000000  0.0000000 )


      isym = 21     inv. 180 deg rotation - cart. axis [0,1,1]   

 cryst.   s(21) = (     1          0          0      )
                  (     0          0         -1      )
                  (     0         -1          0      )

 cart.    s(21) = (  1.0000000  0.0000000  0.0000000 )
                  (  0.0000000  0.0000000 -1.0000000 )
                  (  0.0000000 -1.0000000  0.0000000 )


      isym = 22     inv. 180 deg rotation - cart. axis [0,1,-1]  

 cryst.   s(22) = (     1          0          0      )
                  (     0          0          1      )
                  (     0          1          0      )

 cart.    s(22) = (  1.0000000  0.0000000  0.0000000 )
                  (  0.0000000  0.0000000  1.0000000 )
                  (  0.0000000  1.0000000  0.0000000 )


      isym = 23     inv.  90 deg rotation - cart. axis [-1,0,0]  

 cryst.   s(23) = (    -1          0          0      )
                  (     0          0          1      )
                  (     0         -1          0      )

 cart.    s(23) = ( -1.0000000  0.0000000  0.0000000 )
                  (  0.0000000  0.0000000 -1.0000000 )
                  (  0.0000000  1.0000000  0.0000000 )


      isym = 24     inv.  90 deg rotation - cart. axis [1,0,0]   

 cryst.   s(24) = (    -1          0          0      )
                  (     0          0         -1      )
                  (     0          1          0      )

 cart.    s(24) = ( -1.0000000  0.0000000  0.0000000 )
                  (  0.0000000  0.0000000  1.0000000 )
                  (  0.0000000 -1.0000000  0.0000000 )


     point group T_d (-43m) 
     there are  5 classes
     the character table:

       E     8C3   3C2   6S4   6s_d 
A_1    1.00  1.00  1.00  1.00  1.00
A_2    1.00  1.00  1.00 -1.00 -1.00
E      2.00 -1.00  2.00  0.00  0.00
T_1    3.00  0.00 -1.00  1.00 -1.00
T_2    3.00  0.00 -1.00 -1.00  1.00

     the symmetry operations in each class and the name of the first element:

     E        1
          identity                                               
     8C3      5    7    8    6   12    9   10   11
          120 deg rotation - cart. axis [-1,-1,-1]               
     3C2      2    3    4
          180 deg rotation - cart. axis [0,0,1]                  
     6S4     15   16   20   19   23   24
          inv.  90 deg rotation - cart. axis [0,0,-1]            
     6s_d    13   14   17   18   21   22
          inv. 180 deg rotation - cart. axis [1,1,0]             

   Cartesian axes

     site n.     atom                  positions (alat units)
         1           Zn  tau(   1) = (   0.0000000   0.0000000   0.0000000  )
         2           Zn  tau(   2) = (   0.0000961   0.2504753   0.2504753  )
         3           Zn  tau(   3) = (   0.2504753   0.0000961   0.2504753  )
         4           Zn  tau(   4) = (   0.2504753   0.2504753   0.0000961  )
         5           S   tau(   5) = (   0.1254445   0.3750191   0.3750191  )
         6           S   tau(   6) = (   0.1250180   0.1250180   0.1250180  )
         7           S   tau(   7) = (   0.3750191   0.3750191   0.1254445  )
         8           S   tau(   8) = (   0.3750191   0.1254445   0.3750191  )
         9           Zn  tau(   9) = (   0.0000000   0.0000000   0.5000000  )
        10           Zn  tau(  10) = (  -0.0000961   0.2504753   0.7495247  )
        11           Zn  tau(  11) = (   0.2504753  -0.0000961   0.7495247  )
        12           Zn  tau(  12) = (   0.2525221   0.2525221   0.5026076  )
        13           S   tau(  13) = (   0.1249034   0.3750537   0.8750966  )
        14           S   tau(  14) = (   0.1249034   0.1249034   0.6249463  )
        15           S   tau(  15) = (   0.3769253   0.3769253   0.6230747  )
        16           S   tau(  16) = (   0.3750537   0.1249034   0.8750966  )
        17           Zn  tau(  17) = (   0.0000000   0.5000000   0.0000000  )
        18           Zn  tau(  18) = (  -0.0000961   0.7495247   0.2504753  )
        19           Zn  tau(  19) = (   0.2525221   0.5026076   0.2525221  )
        20           Zn  tau(  20) = (   0.2504753   0.7495247  -0.0000961  )
        21           S   tau(  21) = (   0.1249034   0.8750966   0.3750537  )
        22           S   tau(  22) = (   0.1249034   0.6249463   0.1249034  )
        23           S   tau(  23) = (   0.3750537   0.8750966   0.1249034  )
        24           S   tau(  24) = (   0.3769253   0.6230747   0.3769253  )
        25           Zn  tau(  25) = (   0.0000000   0.5000000   0.5000000  )
        26           Zn  tau(  26) = (   0.0000961   0.7495247   0.7495247  )
        27           Zn  tau(  27) = (   0.2525221   0.4973924   0.7474779  )
        28           Zn  tau(  28) = (   0.2525221   0.7474779   0.4973924  )
        29           S   tau(  29) = (   0.1250180   0.8749820   0.8749820  )
        30           S   tau(  30) = (   0.1254445   0.6249809   0.6249809  )
        31           S   tau(  31) = (   0.3750191   0.8745555   0.6249809  )
        32           S   tau(  32) = (   0.3750191   0.6249809   0.8745555  )
        33           Zn  tau(  33) = (   0.5000000   0.0000000   0.0000000  )
        34           Zn  tau(  34) = (   0.5026076   0.2525221   0.2525221  )
        35           Zn  tau(  35) = (   0.7495247  -0.0000961   0.2504753  )
        36           Zn  tau(  36) = (   0.7495247   0.2504753  -0.0000961  )
        37           S   tau(  37) = (   0.6230747   0.3769253   0.3769253  )
        38           S   tau(  38) = (   0.6249463   0.1249034   0.1249034  )
        39           S   tau(  39) = (   0.8750966   0.3750537   0.1249034  )
        40           S   tau(  40) = (   0.8750966   0.1249034   0.3750537  )
        41           Zn  tau(  41) = (   0.5000000   0.0000000   0.5000000  )
        42           Zn  tau(  42) = (   0.4973924   0.2525221   0.7474779  )
        43           Zn  tau(  43) = (   0.7495247   0.0000961   0.7495247  )
        44           Zn  tau(  44) = (   0.7474779   0.2525221   0.4973924  )
        45           S   tau(  45) = (   0.6249809   0.3750191   0.8745555  )
        46           S   tau(  46) = (   0.6249809   0.1254445   0.6249809  )
        47           S   tau(  47) = (   0.8745555   0.3750191   0.6249809  )
        48           S   tau(  48) = (   0.8749820   0.1250180   0.8749820  )
        49           Zn  tau(  49) = (   0.5000000   0.5000000   0.0000000  )
        50           Zn  tau(  50) = (   0.4973924   0.7474779   0.2525221  )
        51           Zn  tau(  51) = (   0.7474779   0.4973924   0.2525221  )
        52           Zn  tau(  52) = (   0.7495247   0.7495247   0.0000961  )
        53           S   tau(  53) = (   0.6249809   0.8745555   0.3750191  )
        54           S   tau(  54) = (   0.6249809   0.6249809   0.1254445  )
        55           S   tau(  55) = (   0.8749820   0.8749820   0.1250180  )
        56           S   tau(  56) = (   0.8745555   0.6249809   0.3750191  )
        57           Cu  tau(  57) = (   0.5000000   0.5000000   0.5000000  )
        58           Zn  tau(  58) = (   0.5026076   0.7474779   0.7474779  )
        59           Zn  tau(  59) = (   0.7474779   0.5026076   0.7474779  )
        60           Zn  tau(  60) = (   0.7474779   0.7474779   0.5026076  )
        61           S   tau(  61) = (   0.6249463   0.8750966   0.8750966  )
        62           S   tau(  62) = (   0.6230747   0.6230747   0.6230747  )
        63           S   tau(  63) = (   0.8750966   0.8750966   0.6249463  )
        64           S   tau(  64) = (   0.8750966   0.6249463   0.8750966  )

   Crystallographic axes

     site n.     atom                  positions (cryst. coord.)
         1           Zn  tau(   1) = (  0.0000000  0.0000000  0.0000000  )
         2           Zn  tau(   2) = (  0.0000961  0.2504753  0.2504753  )
         3           Zn  tau(   3) = (  0.2504753  0.0000961  0.2504753  )
         4           Zn  tau(   4) = (  0.2504753  0.2504753  0.0000961  )
         5           S   tau(   5) = (  0.1254445  0.3750191  0.3750191  )
         6           S   tau(   6) = (  0.1250180  0.1250180  0.1250180  )
         7           S   tau(   7) = (  0.3750191  0.3750191  0.1254445  )
         8           S   tau(   8) = (  0.3750191  0.1254445  0.3750191  )
         9           Zn  tau(   9) = (  0.0000000  0.0000000  0.5000000  )
        10           Zn  tau(  10) = ( -0.0000961  0.2504753  0.7495247  )
        11           Zn  tau(  11) = (  0.2504753 -0.0000961  0.7495247  )
        12           Zn  tau(  12) = (  0.2525221  0.2525221  0.5026076  )
        13           S   tau(  13) = (  0.1249034  0.3750537  0.8750966  )
        14           S   tau(  14) = (  0.1249034  0.1249034  0.6249463  )
        15           S   tau(  15) = (  0.3769253  0.3769253  0.6230747  )
        16           S   tau(  16) = (  0.3750537  0.1249034  0.8750966  )
        17           Zn  tau(  17) = (  0.0000000  0.5000000  0.0000000  )
        18           Zn  tau(  18) = ( -0.0000961  0.7495247  0.2504753  )
        19           Zn  tau(  19) = (  0.2525221  0.5026076  0.2525221  )
        20           Zn  tau(  20) = (  0.2504753  0.7495247 -0.0000961  )
        21           S   tau(  21) = (  0.1249034  0.8750966  0.3750537  )
        22           S   tau(  22) = (  0.1249034  0.6249463  0.1249034  )
        23           S   tau(  23) = (  0.3750537  0.8750966  0.1249034  )
        24           S   tau(  24) = (  0.3769253  0.6230747  0.3769253  )
        25           Zn  tau(  25) = (  0.0000000  0.5000000  0.5000000  )
        26           Zn  tau(  26) = (  0.0000961  0.7495247  0.7495247  )
        27           Zn  tau(  27) = (  0.2525221  0.4973924  0.7474779  )
        28           Zn  tau(  28) = (  0.2525221  0.7474779  0.4973924  )
        29           S   tau(  29) = (  0.1250180  0.8749820  0.8749820  )
        30           S   tau(  30) = (  0.1254445  0.6249809  0.6249809  )
        31           S   tau(  31) = (  0.3750191  0.8745555  0.6249809  )
        32           S   tau(  32) = (  0.3750191  0.6249809  0.8745555  )
        33           Zn  tau(  33) = (  0.5000000  0.0000000  0.0000000  )
        34           Zn  tau(  34) = (  0.5026076  0.2525221  0.2525221  )
        35           Zn  tau(  35) = (  0.7495247 -0.0000961  0.2504753  )
        36           Zn  tau(  36) = (  0.7495247  0.2504753 -0.0000961  )
        37           S   tau(  37) = (  0.6230747  0.3769253  0.3769253  )
        38           S   tau(  38) = (  0.6249463  0.1249034  0.1249034  )
        39           S   tau(  39) = (  0.8750966  0.3750537  0.1249034  )
        40           S   tau(  40) = (  0.8750966  0.1249034  0.3750537  )
        41           Zn  tau(  41) = (  0.5000000  0.0000000  0.5000000  )
        42           Zn  tau(  42) = (  0.4973924  0.2525221  0.7474779  )
        43           Zn  tau(  43) = (  0.7495247  0.0000961  0.7495247  )
        44           Zn  tau(  44) = (  0.7474779  0.2525221  0.4973924  )
        45           S   tau(  45) = (  0.6249809  0.3750191  0.8745555  )
        46           S   tau(  46) = (  0.6249809  0.1254445  0.6249809  )
        47           S   tau(  47) = (  0.8745555  0.3750191  0.6249809  )
        48           S   tau(  48) = (  0.8749820  0.1250180  0.8749820  )
        49           Zn  tau(  49) = (  0.5000000  0.5000000  0.0000000  )
        50           Zn  tau(  50) = (  0.4973924  0.7474779  0.2525221  )
        51           Zn  tau(  51) = (  0.7474779  0.4973924  0.2525221  )
        52           Zn  tau(  52) = (  0.7495247  0.7495247  0.0000961  )
        53           S   tau(  53) = (  0.6249809  0.8745555  0.3750191  )
        54           S   tau(  54) = (  0.6249809  0.6249809  0.1254445  )
        55           S   tau(  55) = (  0.8749820  0.8749820  0.1250180  )
        56           S   tau(  56) = (  0.8745555  0.6249809  0.3750191  )
        57           Cu  tau(  57) = (  0.5000000  0.5000000  0.5000000  )
        58           Zn  tau(  58) = (  0.5026076  0.7474779  0.7474779  )
        59           Zn  tau(  59) = (  0.7474779  0.5026076  0.7474779  )
        60           Zn  tau(  60) = (  0.7474779  0.7474779  0.5026076  )
        61           S   tau(  61) = (  0.6249463  0.8750966  0.8750966  )
        62           S   tau(  62) = (  0.6230747  0.6230747  0.6230747  )
        63           S   tau(  63) = (  0.8750966  0.8750966  0.6249463  )
        64           S   tau(  64) = (  0.8750966  0.6249463  0.8750966  )

     number of k points=    10  Gaussian smearing, width (Ry)=  0.0010
                       cart. coord. in units 2pi/alat
        k(    1) = (   0.0000000   0.0000000   0.0000000), wk =   0.0156250
        k(    2) = (   0.0000000   0.0000000   0.2500000), wk =   0.0937500
        k(    3) = (   0.0000000   0.0000000  -0.5000000), wk =   0.0468750
        k(    4) = (   0.0000000   0.2500000   0.2500000), wk =   0.1875000
        k(    5) = (   0.0000000   0.2500000  -0.5000000), wk =   0.1875000
        k(    6) = (   0.0000000  -0.5000000  -0.5000000), wk =   0.0468750
        k(    7) = (   0.2500000   0.2500000   0.2500000), wk =   0.1250000
        k(    8) = (   0.2500000   0.2500000  -0.5000000), wk =   0.1875000
        k(    9) = (   0.2500000  -0.5000000  -0.5000000), wk =   0.0937500
        k(   10) = (  -0.5000000  -0.5000000  -0.5000000), wk =   0.0156250

                       cryst. coord.
        k(    1) = (   0.0000000   0.0000000   0.0000000), wk =   0.0156250
        k(    2) = (   0.0000000   0.0000000   0.2500000), wk =   0.0937500
        k(    3) = (   0.0000000   0.0000000  -0.5000000), wk =   0.0468750
        k(    4) = (   0.0000000   0.2500000   0.2500000), wk =   0.1875000
        k(    5) = (   0.0000000   0.2500000  -0.5000000), wk =   0.1875000
        k(    6) = (   0.0000000  -0.5000000  -0.5000000), wk =   0.0468750
        k(    7) = (   0.2500000   0.2500000   0.2500000), wk =   0.1250000
        k(    8) = (   0.2500000   0.2500000  -0.5000000), wk =   0.1875000
        k(    9) = (   0.2500000  -0.5000000  -0.5000000), wk =   0.0937500
        k(   10) = (  -0.5000000  -0.5000000  -0.5000000), wk =   0.0156250

     Dense  grid:  2160009 G-vectors     FFT dimensions: ( 162, 162, 162)

     Dynamical RAM for                 wfc:      12.87 MB

     Dynamical RAM for     wfc (w. buffer):      38.61 MB

     Dynamical RAM for           str. fact:       0.88 MB

     Dynamical RAM for           local pot:       0.00 MB

     Dynamical RAM for          nlocal pot:      42.36 MB

     Dynamical RAM for                qrad:       5.90 MB

     Dynamical RAM for          rho,v,vnew:       4.17 MB

     Dynamical RAM for               rhoin:       1.39 MB

     Dynamical RAM for            rho*nmix:       9.42 MB

     Dynamical RAM for           G-vectors:       1.25 MB

     Dynamical RAM for          h,s,v(r/c):       1.40 MB

     Dynamical RAM for          <psi|beta>:       6.15 MB

     Dynamical RAM for                 psi:      25.74 MB

     Dynamical RAM for                hpsi:      25.74 MB

     Dynamical RAM for                spsi:      25.74 MB

     Dynamical RAM for      wfcinit/wfcrot:      34.65 MB

     Dynamical RAM for           addusdens:       6.97 MB

     Estimated static dynamical RAM per process >      98.14 MB

     Estimated max dynamical RAM per process >     192.34 MB

     Estimated total dynamical RAM >     201.10 GB
     Generating pointlists ...
     new r_m :   0.0879 (alat units)  1.8087 (a.u.) for type    1
     new r_m :   0.0880 (alat units)  1.8091 (a.u.) for type    2
     new r_m :   0.0879 (alat units)  1.8087 (a.u.) for type    3

     Initial potential from superposition of free atoms

     starting charge     582.8832, renormalised to     584.0000
     Starting wfcs are  417 randomized atomic wfcs
     Checking if some PAW data can be deallocated... 
       PAW data deallocated on  560 nodes for type:  1
       PAW data deallocated on  577 nodes for type:  2
       PAW data deallocated on 1103 nodes for type:  3

     total cpu time spent up to now is       21.5 secs

     Self-consistent Calculation

     iteration #  1     ecut=   150.00 Ry     beta= 0.70
     Davidson diagonalization with overlap

---- Real-time Memory Report at c_bands before calling an iterative solver
          1228 MiB given to the printing process from OS
             0 MiB allocation reported by mallinfo(arena+hblkhd)
        203235 MiB available memory on the node where the printing process lives
------------------
     ethr =  1.00E-02,  avg # of iterations =  4.8

     Threshold (ethr) on eigenvalues was too large:
     Diagonalizing with lowered threshold

     Davidson diagonalization with overlap

---- Real-time Memory Report at c_bands before calling an iterative solver
          1393 MiB given to the printing process from OS
             0 MiB allocation reported by mallinfo(arena+hblkhd)
        202564 MiB available memory on the node where the printing process lives
------------------
     ethr =  4.22E-04,  avg # of iterations =  3.2

     total cpu time spent up to now is       46.9 secs

     total energy              =  -10165.81473210 Ry
     estimated scf accuracy    <       2.53506030 Ry

     total magnetization       =     0.02 Bohr mag/cell
     absolute magnetization    =     0.06 Bohr mag/cell

     iteration #  2     ecut=   150.00 Ry     beta= 0.70
     Davidson diagonalization with overlap

---- Real-time Memory Report at c_bands before calling an iterative solver
          1422 MiB given to the printing process from OS
             0 MiB allocation reported by mallinfo(arena+hblkhd)
        202537 MiB available memory on the node where the printing process lives
------------------
     ethr =  4.34E-04,  avg # of iterations =  4.7

     total cpu time spent up to now is       57.3 secs

     total energy              =  -10166.12578792 Ry
     estimated scf accuracy    <       4.80727032 Ry

     total magnetization       =    -0.00 Bohr mag/cell
     absolute magnetization    =     0.02 Bohr mag/cell

     iteration #  3     ecut=   150.00 Ry     beta= 0.70
     Davidson diagonalization with overlap

---- Real-time Memory Report at c_bands before calling an iterative solver
          1445 MiB given to the printing process from OS
             0 MiB allocation reported by mallinfo(arena+hblkhd)
        202209 MiB available memory on the node where the printing process lives
------------------
     ethr =  4.34E-04,  avg # of iterations =  3.8

     total cpu time spent up to now is       65.6 secs

     total energy              =  -10166.89136631 Ry
     estimated scf accuracy    <       0.27308746 Ry

     total magnetization       =    -0.00 Bohr mag/cell
     absolute magnetization    =     0.02 Bohr mag/cell

     iteration #  4     ecut=   150.00 Ry     beta= 0.70
     Davidson diagonalization with overlap

---- Real-time Memory Report at c_bands before calling an iterative solver
          1457 MiB given to the printing process from OS
             0 MiB allocation reported by mallinfo(arena+hblkhd)
        201984 MiB available memory on the node where the printing process lives
------------------
     ethr =  4.68E-05,  avg # of iterations = 13.2

     total cpu time spent up to now is       78.9 secs

     total energy              =  -10166.94655364 Ry
     estimated scf accuracy    <       0.12594982 Ry

     total magnetization       =    -0.00 Bohr mag/cell
     absolute magnetization    =     0.01 Bohr mag/cell

     iteration #  5     ecut=   150.00 Ry     beta= 0.70
     Davidson diagonalization with overlap

---- Real-time Memory Report at c_bands before calling an iterative solver
          1475 MiB given to the printing process from OS
             0 MiB allocation reported by mallinfo(arena+hblkhd)
        201794 MiB available memory on the node where the printing process lives
------------------
     ethr =  2.16E-05,  avg # of iterations = 13.6

     total cpu time spent up to now is       91.9 secs

     total energy              =  -10166.96995101 Ry
     estimated scf accuracy    <       0.02153318 Ry

     total magnetization       =    -0.00 Bohr mag/cell
     absolute magnetization    =     0.01 Bohr mag/cell

     iteration #  6     ecut=   150.00 Ry     beta= 0.70
     Davidson diagonalization with overlap

---- Real-time Memory Report at c_bands before calling an iterative solver
          1485 MiB given to the printing process from OS
             0 MiB allocation reported by mallinfo(arena+hblkhd)
        201568 MiB available memory on the node where the printing process lives
------------------
     ethr =  3.69E-06,  avg # of iterations = 12.1

     total cpu time spent up to now is      105.0 secs

     total energy              =  -10166.97082810 Ry
     estimated scf accuracy    <       0.01883578 Ry

     total magnetization       =     0.00 Bohr mag/cell
     absolute magnetization    =     0.00 Bohr mag/cell

     iteration #  7     ecut=   150.00 Ry     beta= 0.70
     Davidson diagonalization with overlap

---- Real-time Memory Report at c_bands before calling an iterative solver
          1497 MiB given to the printing process from OS
             0 MiB allocation reported by mallinfo(arena+hblkhd)
        201392 MiB available memory on the node where the printing process lives
------------------
     ethr =  3.23E-06,  avg # of iterations =  3.9

     total cpu time spent up to now is      113.0 secs

     total energy              =  -10166.97315132 Ry
     estimated scf accuracy    <       0.00016777 Ry

     total magnetization       =    -0.00 Bohr mag/cell
     absolute magnetization    =     0.00 Bohr mag/cell

     iteration #  8     ecut=   150.00 Ry     beta= 0.70
     Davidson diagonalization with overlap

---- Real-time Memory Report at c_bands before calling an iterative solver
          1504 MiB given to the printing process from OS
             0 MiB allocation reported by mallinfo(arena+hblkhd)
        201180 MiB available memory on the node where the printing process lives
------------------
     ethr =  2.87E-08,  avg # of iterations =  6.2

     total cpu time spent up to now is      123.2 secs

     total energy              =  -10166.97327157 Ry
     estimated scf accuracy    <       0.00014696 Ry

     total magnetization       =     0.00 Bohr mag/cell
     absolute magnetization    =     0.00 Bohr mag/cell

     iteration #  9     ecut=   150.00 Ry     beta= 0.70
     Davidson diagonalization with overlap

---- Real-time Memory Report at c_bands before calling an iterative solver
          1510 MiB given to the printing process from OS
             0 MiB allocation reported by mallinfo(arena+hblkhd)
        200998 MiB available memory on the node where the printing process lives
------------------
     ethr =  2.52E-08,  avg # of iterations =  3.0

     total cpu time spent up to now is      130.8 secs

     total energy              =  -10166.97328121 Ry
     estimated scf accuracy    <       0.00001225 Ry

     total magnetization       =    -0.00 Bohr mag/cell
     absolute magnetization    =     0.00 Bohr mag/cell

     iteration # 10     ecut=   150.00 Ry     beta= 0.70
     Davidson diagonalization with overlap

---- Real-time Memory Report at c_bands before calling an iterative solver
          1514 MiB given to the printing process from OS
             0 MiB allocation reported by mallinfo(arena+hblkhd)
        200797 MiB available memory on the node where the printing process lives
------------------
     ethr =  2.10E-09,  avg # of iterations =  6.0

     total cpu time spent up to now is      139.7 secs

     total energy              =  -10166.97328411 Ry
     estimated scf accuracy    <       0.00000103 Ry

     total magnetization       =    -0.00 Bohr mag/cell
     absolute magnetization    =     0.00 Bohr mag/cell

     iteration # 11     ecut=   150.00 Ry     beta= 0.70
     Davidson diagonalization with overlap

---- Real-time Memory Report at c_bands before calling an iterative solver
          1520 MiB given to the printing process from OS
             0 MiB allocation reported by mallinfo(arena+hblkhd)
        200603 MiB available memory on the node where the printing process lives
------------------
     ethr =  1.76E-10,  avg # of iterations =  4.2

     total cpu time spent up to now is      148.6 secs

     total energy              =  -10166.97328421 Ry
     estimated scf accuracy    <       0.00000027 Ry

     total magnetization       =    -0.00 Bohr mag/cell
     absolute magnetization    =     0.00 Bohr mag/cell

     iteration # 12     ecut=   150.00 Ry     beta= 0.70
     Davidson diagonalization with overlap

---- Real-time Memory Report at c_bands before calling an iterative solver
          1524 MiB given to the printing process from OS
             0 MiB allocation reported by mallinfo(arena+hblkhd)
        200563 MiB available memory on the node where the printing process lives
------------------
     ethr =  4.61E-11,  avg # of iterations =  3.9

     total cpu time spent up to now is      157.1 secs

     total energy              =  -10166.97328424 Ry
     estimated scf accuracy    <       0.00000003 Ry

     total magnetization       =     0.00 Bohr mag/cell
     absolute magnetization    =     0.00 Bohr mag/cell

     iteration # 13     ecut=   150.00 Ry     beta= 0.70
     Davidson diagonalization with overlap

---- Real-time Memory Report at c_bands before calling an iterative solver
          1528 MiB given to the printing process from OS
             0 MiB allocation reported by mallinfo(arena+hblkhd)
        200532 MiB available memory on the node where the printing process lives
------------------
     ethr =  5.38E-12,  avg # of iterations =  5.0
 
     Magnetic moment per site  (integrated on atomic sphere of radius R)
     atom   1 (R=0.088)  charge= 10.0981  magn= -0.0000
     atom   2 (R=0.088)  charge= 10.0978  magn=  0.0000
     atom   3 (R=0.088)  charge= 10.0978  magn=  0.0000
     atom   4 (R=0.088)  charge= 10.0978  magn=  0.0000
     atom   5 (R=0.088)  charge=  3.8879  magn=  0.0000
     atom   6 (R=0.088)  charge=  3.8900  magn= -0.0000
     atom   7 (R=0.088)  charge=  3.8879  magn=  0.0000
     atom   8 (R=0.088)  charge=  3.8879  magn=  0.0000
     atom   9 (R=0.088)  charge= 10.0997  magn=  0.0000
     atom  10 (R=0.088)  charge= 10.0978  magn=  0.0000
     atom  11 (R=0.088)  charge= 10.0978  magn=  0.0000
     atom  12 (R=0.088)  charge= 10.0986  magn= -0.0000
     atom  13 (R=0.088)  charge=  3.8899  magn= -0.0000
     atom  14 (R=0.088)  charge=  3.8899  magn= -0.0000
     atom  15 (R=0.088)  charge=  3.8974  magn=  0.0000
     atom  16 (R=0.088)  charge=  3.8899  magn= -0.0000
     atom  17 (R=0.088)  charge= 10.0997  magn=  0.0000
     atom  18 (R=0.088)  charge= 10.0978  magn=  0.0000
     atom  19 (R=0.088)  charge= 10.0986  magn= -0.0000
     atom  20 (R=0.088)  charge= 10.0978  magn=  0.0000
     atom  21 (R=0.088)  charge=  3.8899  magn= -0.0000
     atom  22 (R=0.088)  charge=  3.8899  magn= -0.0000
     atom  23 (R=0.088)  charge=  3.8899  magn= -0.0000
     atom  24 (R=0.088)  charge=  3.8974  magn=  0.0000
     atom  25 (R=0.088)  charge= 10.0970  magn= -0.0000
     atom  26 (R=0.088)  charge= 10.0978  magn=  0.0000
     atom  27 (R=0.088)  charge= 10.0986  magn= -0.0000
     atom  28 (R=0.088)  charge= 10.0986  magn= -0.0000
     atom  29 (R=0.088)  charge=  3.8900  magn= -0.0000
     atom  30 (R=0.088)  charge=  3.8879  magn=  0.0000
     atom  31 (R=0.088)  charge=  3.8879  magn=  0.0000
     atom  32 (R=0.088)  charge=  3.8879  magn=  0.0000
     atom  33 (R=0.088)  charge= 10.0997  magn=  0.0000
     atom  34 (R=0.088)  charge= 10.0986  magn= -0.0000
     atom  35 (R=0.088)  charge= 10.0978  magn=  0.0000
     atom  36 (R=0.088)  charge= 10.0978  magn=  0.0000
     atom  37 (R=0.088)  charge=  3.8974  magn=  0.0000
     atom  38 (R=0.088)  charge=  3.8899  magn= -0.0000
     atom  39 (R=0.088)  charge=  3.8899  magn= -0.0000
     atom  40 (R=0.088)  charge=  3.8899  magn= -0.0000
     atom  41 (R=0.088)  charge= 10.0970  magn= -0.0000
     atom  42 (R=0.088)  charge= 10.0986  magn= -0.0000
     atom  43 (R=0.088)  charge= 10.0978  magn=  0.0000
     atom  44 (R=0.088)  charge= 10.0986  magn= -0.0000
     atom  45 (R=0.088)  charge=  3.8879  magn=  0.0000
     atom  46 (R=0.088)  charge=  3.8879  magn=  0.0000
     atom  47 (R=0.088)  charge=  3.8879  magn=  0.0000
     atom  48 (R=0.088)  charge=  3.8900  magn= -0.0000
     atom  49 (R=0.088)  charge= 10.0970  magn= -0.0000
     atom  50 (R=0.088)  charge= 10.0986  magn= -0.0000
     atom  51 (R=0.088)  charge= 10.0986  magn= -0.0000
     atom  52 (R=0.088)  charge= 10.0978  magn=  0.0000
     atom  53 (R=0.088)  charge=  3.8879  magn=  0.0000
     atom  54 (R=0.088)  charge=  3.8879  magn=  0.0000
     atom  55 (R=0.088)  charge=  3.8900  magn= -0.0000
     atom  56 (R=0.088)  charge=  3.8879  magn=  0.0000
     atom  57 (R=0.088)  charge= 17.3508  magn=  0.0000
     atom  58 (R=0.088)  charge= 10.0986  magn= -0.0000
     atom  59 (R=0.088)  charge= 10.0986  magn= -0.0000
     atom  60 (R=0.088)  charge= 10.0986  magn= -0.0000
     atom  61 (R=0.088)  charge=  3.8899  magn= -0.0000
     atom  62 (R=0.088)  charge=  3.8974  magn=  0.0000
     atom  63 (R=0.088)  charge=  3.8899  magn= -0.0000
     atom  64 (R=0.088)  charge=  3.8899  magn= -0.0000

     total cpu time spent up to now is      166.5 secs

     End of self-consistent calculation

 ------ SPIN UP ------------


          k = 0.0000 0.0000 0.0000 (269825 PWs)   bands (ev):

  -104.4307 -61.8330 -61.8330 -61.8330  -7.4527  -6.9256  -6.9256  -6.9138
    -6.9138  -6.9138  -6.8805  -6.6184  -6.6184  -6.6184  -6.6132  -6.6016
    -6.6016  -6.5988  -6.5988  -6.5988  -6.5975  -6.5975  -6.5975  -6.4916
    -6.4916  -6.4916  -6.3949  -6.2993  -6.2993  -6.2993  -6.2690  -6.2690
    -6.2690  -6.1277  -6.1277  -6.1277  -0.7430  -0.7430  -0.7430  -0.7363
    -0.7363  -0.7351  -0.6960  -0.6960  -0.6798  -0.6780  -0.6780  -0.6780
    -0.6211  -0.6211  -0.6211  -0.6186  -0.6186  -0.6019  -0.6019  -0.6019
    -0.5982  -0.5982  -0.5982  -0.5857  -0.5857  -0.5857  -0.5846  -0.5731
    -0.5731  -0.5731  -0.5651  -0.5651  -0.5651  -0.5646  -0.5646  -0.5611
    -0.5540  -0.5540  -0.5540  -0.5506  -0.5506  -0.5506  -0.5404  -0.5404
    -0.5404  -0.5148  -0.5148  -0.5148  -0.5132  -0.5132  -0.5097  -0.5097
    -0.5097  -0.5034  -0.4837  -0.4837  -0.4837  -0.4593  -0.4593  -0.4459
    -0.4459  -0.4459  -0.4168  -0.4168  -0.4168  -0.4113  -0.4113  -0.4113
    -0.4027  -0.4027  -0.4027  -0.3999  -0.3999  -0.3818  -0.3818  -0.3818
    -0.3702  -0.3701  -0.3701  -0.3701  -0.3175  -0.3175  -0.3175  -0.2985
    -0.2985  -0.2871  -0.2871  -0.2871  -0.2851  -0.2851  -0.2851  -0.2715
    -0.2715  -0.2703  -0.2638  -0.2591  -0.2591  -0.2591  -0.2416  -0.2416
    -0.2416  -0.2393  -0.2393  -0.2280  -0.2222  -0.2222  -0.2159  -0.2149
    -0.2149  -0.2086  -0.2086  -0.2086  -0.2070  -0.2070  -0.2070  -0.1978
    -0.1843  -0.1843  -0.1843  -0.1768  -0.1768  -0.1532  -0.1532  -0.1529
    -0.1525  -0.1525  -0.1525  -0.1276  -0.1276  -0.1276  -0.1260  -0.1260
    -0.1260  -0.1198  -0.1198  -0.1198  -0.1111  -0.1111  -0.0924  -0.0924
    -0.0924  -0.0902  -0.0214  -0.0214  -0.0214  -0.0007  -0.0007  -0.0007
     0.0151   0.1438   0.1438   0.1438   0.1768   0.1768   0.1768   0.3889
     0.3889   0.3889   0.4277   1.0059   1.0143   1.0143   1.0576   1.0576
     1.0576   1.0675   1.0675   1.2529   1.5736   1.5736   1.5736   1.6452
     1.6452   1.6716   1.6716   1.6716   1.6752   1.6752   1.6752   2.0055
     2.8347   2.8347   2.8519   2.8519   2.8519   2.8908   2.8908   2.8908
     2.8919   2.8919   2.8919   2.9176   2.9409   2.9409   2.9409   2.9760
     2.9760   3.0710   3.0741   3.0741   3.0883   3.0883   3.0883   3.1080
     3.1080   3.1080   3.1579   3.1579   3.1579   3.2927   3.4033   3.4033
     3.4033   3.4135   3.4135   3.4135   4.0548   4.0548   4.0548   4.3401
     4.3401   4.3401   4.3492   4.3492   4.3492   4.3829   4.3829   4.3829
     4.5128   4.5128   4.5225   4.5225   4.5225   4.6444   4.6444   4.6444
     4.6483   4.6483   4.6483   4.6660   4.6733   4.6733   4.6733   4.6823
     4.6823   4.7566   4.7566   4.7566   5.4045   5.4045   5.4045   5.6286
     5.6286   6.3138   6.3138   6.3138   7.5708   8.7962   8.7962   8.7962
     8.8583   9.0106   9.0106   9.0106   9.6084   9.6084   9.6318   9.9593
     9.9593   9.9716   9.9716   9.9716  10.0266  10.0961  10.0961  10.1221
    10.1221  10.1221  10.1390  10.2918  10.2918  10.2918  10.2956  10.2956
    10.3119  10.3119  10.3119  10.3306  10.3306  10.3306  10.7472  11.2079
    11.2079  11.2079  11.2902  11.2902  11.2902  11.4559  11.4559  11.4564
    11.4564  11.4564  11.8445  11.9409  11.9409  11.9409  12.1392  12.1392
    12.1393  12.1625  12.1625  12.1625  12.1706  12.1706

     occupation numbers 
     1.0000   1.0000   1.0000   1.0000   1.0000   1.0000   1.0000   1.0000
     1.0000   1.0000   1.0000   1.0000   1.0000   1.0000   1.0000   1.0000
     1.0000   1.0000   1.0000   1.0000   1.0000   1.0000   1.0000   1.0000
     1.0000   1.0000   1.0000   1.0000   1.0000   1.0000   1.0000   1.0000
     1.0000   1.0000   1.0000   1.0000   1.0000   1.0000   1.0000   1.0000
     1.0000   1.0000   1.0000   1.0000   1.0000   1.0000   1.0000   1.0000
     1.0000   1.0000   1.0000   1.0000   1.0000   1.0000   1.0000   1.0000
     1.0000   1.0000   1.0000   1.0000   1.0000   1.0000   1.0000   1.0000
     1.0000   1.0000   1.0000   1.0000   1.0000   1.0000   1.0000   1.0000
     1.0000   1.0000   1.0000   1.0000   1.0000   1.0000   1.0000   1.0000
     1.0000   1.0000   1.0000   1.0000   1.0000   1.0000   1.0000   1.0000
     1.0000   1.0000   1.0000   1.0000   1.0000   1.0000   1.0000   1.0000
     1.0000   1.0000   1.0000   1.0000   1.0000   1.0000   1.0000   1.0000
     1.0000   1.0000   1.0000   1.0000   1.0000   1.0000   1.0000   1.0000
     1.0000   1.0000   1.0000   1.0000   1.0000   1.0000   1.0000   1.0000
     1.0000   1.0000   1.0000   1.0000   1.0000   1.0000   1.0000   1.0000
     1.0000   1.0000   1.0000   1.0000   1.0000   1.0000   1.0000   1.0000
     1.0000   1.0000   1.0000   1.0000   1.0000   1.0000   1.0000   1.0000
     1.0000   1.0000   1.0000   1.0000   1.0000   1.0000   1.0000   1.0000
     1.0000   1.0000   1.0000   1.0000   1.0000   1.0000   1.0000   1.0000
     1.0000   1.0000   1.0000   1.0000   1.0000   1.0000   1.0000   1.0000
     1.0000   1.0000   1.0000   1.0000   1.0000   1.0000   1.0000   1.0000
     1.0000   1.0000   1.0000   1.0000   1.0000   1.0000   1.0000   1.0000
     1.0000   1.0000   1.0000   1.0000   1.0000   1.0000   1.0000   1.0000
     1.0000   1.0000   1.0000   1.0000   1.0000   1.0000   1.0000   1.0000
     1.0000   1.0000   1.0000   1.0000   1.0000   1.0000   1.0000   1.0000
     1.0000   1.0000   1.0000   1.0000   1.0000   1.0000   1.0000   1.0000
     1.0000   1.0000   1.0000   1.0000   1.0000   1.0000   1.0000   1.0000
     1.0000   1.0000   1.0000   1.0000   1.0000   1.0000   1.0000   1.0000
     1.0000   1.0000   1.0000   1.0000   1.0000   1.0000   1.0000   1.0000
     1.0000   1.0000   1.0000   1.0000   1.0000   1.0000   1.0000   1.0000
     1.0000   1.0000   1.0000   1.0000   1.0000   1.0000   1.0000   1.0000
     1.0000   1.0000   1.0000   1.0000   1.0000   1.0000   1.0000   1.0000
     1.0000   1.0000   1.0000   1.0000   1.0000   1.0000   1.0000   1.0000
     1.0000   1.0000   1.0000   1.0000   1.0000   1.0000   1.0000   1.0000
     1.0000   1.0000   1.0000   1.0000   1.0000   1.0000   1.0000   1.0000
     1.0000   1.0000   1.0000   1.0000   0.0000   0.0000   0.0000   0.0000
     0.0000   0.0000   0.0000   0.0000   0.0000   0.0000   0.0000   0.0000
     0.0000   0.0000   0.0000   0.0000   0.0000   0.0000   0.0000   0.0000
     0.0000   0.0000   0.0000   0.0000   0.0000   0.0000   0.0000   0.0000
     0.0000   0.0000   0.0000   0.0000   0.0000   0.0000   0.0000   0.0000
     0.0000   0.0000   0.0000   0.0000   0.0000   0.0000   0.0000   0.0000
     0.0000   0.0000   0.0000   0.0000   0.0000   0.0000   0.0000   0.0000
     0.0000   0.0000   0.0000   0.0000   0.0000   0.0000

          k = 0.0000 0.0000 0.2500 (269876 PWs)   bands (ev):

  -104.4307 -61.8330 -61.8330 -61.8330  -7.4154  -7.1269  -6.9016  -6.8912
    -6.8912  -6.8751  -6.7247  -6.7145  -6.7145  -6.6965  -6.6844  -6.6117
    -6.6079  -6.6058  -6.6058  -6.5535  -6.5423  -6.5423  -6.4917  -6.4747
    -6.4455  -6.4455  -6.3559  -6.3445  -6.3047  -6.3047  -6.2939  -6.2801
    -6.2801  -6.1538  -6.1319  -6.1319  -0.7398  -0.7331  -0.7289  -0.7289
    -0.7204  -0.7188  -0.6936  -0.6804  -0.6804  -0.6705  -0.6705  -0.6659
    -0.6308  -0.6308  -0.6244  -0.6188  -0.6178  -0.6119  -0.6119  -0.6085
    -0.6024  -0.6010  -0.6010  -0.5961  -0.5937  -0.5937  -0.5821  -0.5799
    -0.5768  -0.5768  -0.5728  -0.5711  -0.5698  -0.5698  -0.5657  -0.5626
    -0.5626  -0.5618  -0.5578  -0.5529  -0.5467  -0.5467  -0.5435  -0.5358
    -0.5358  -0.5312  -0.5312  -0.5267  -0.5216  -0.5168  -0.5128  -0.5111
    -0.4943  -0.4943  -0.4931  -0.4862  -0.4850  -0.4850  -0.4782  -0.4601
    -0.4601  -0.4555  -0.4537  -0.4411  -0.4319  -0.4310  -0.4310  -0.4171
    -0.4171  -0.4030  -0.4030  -0.3837  -0.3751  -0.3751  -0.3717  -0.3541
    -0.3315  -0.3315  -0.3241  -0.3239  -0.3151  -0.3102  -0.3088  -0.3088
    -0.2931  -0.2851  -0.2840  -0.2840  -0.2798  -0.2708  -0.2708  -0.2621
    -0.2587  -0.2583  -0.2575  -0.2575  -0.2502  -0.2483  -0.2446  -0.2415
    -0.2415  -0.2336  -0.2297  -0.2290  -0.2224  -0.2220  -0.2199  -0.2199
    -0.2198  -0.2169  -0.2159  -0.2087  -0.2040  -0.1983  -0.1983  -0.1954
    -0.1843  -0.1789  -0.1728  -0.1701  -0.1701  -0.1617  -0.1547  -0.1523
    -0.1523  -0.1471  -0.1411  -0.1411  -0.1299  -0.1292  -0.1284  -0.1284
    -0.1185  -0.1168  -0.1125  -0.1125  -0.1125  -0.1029  -0.0963  -0.0936
    -0.0881  -0.0881  -0.0824  -0.0739  -0.0739  -0.0625  -0.0501   0.0224
     0.0224   0.1115   0.1115   0.1136   0.1393   0.1474   0.1474   0.5766
     0.5766   0.5880   0.6067   1.0099   1.0268   1.0359   1.0537   1.0696
     1.0696   1.0784   1.1587   1.2482   1.3464   1.3464   1.3551   1.3747
     1.4004   1.4004   1.4229   1.6223   2.0104   2.0104   2.0334   2.1003
     2.3444   2.6410   2.6470   2.6608   2.6608   2.7446   2.7446   2.7769
     2.8094   2.8131   2.8131   2.8157   2.9309   2.9460   2.9742   2.9742
     2.9838   3.2716   3.2905   3.3010   3.3010   3.3094   3.3240   3.3240
     3.3560   3.3887   3.3940   3.4203   3.4203   3.4529   3.4529   3.4753
     3.4893   3.4893   3.5505   3.6831   3.9252   3.9252   4.0873   4.0873
     4.1017   4.2155   4.2416   4.3077   4.3077   4.3222   4.3303   4.4118
     4.4118   4.4344   4.4497   4.4862   4.4862   4.4895   4.5550   4.5795
     4.5795   4.6452   4.6465   4.6465   4.6734   4.6773   4.7206   4.7553
     4.7553   4.7691   4.7764   4.7764   5.1039   5.3231   5.3231   5.6135
     5.6397   6.2254   6.2866   6.2866   7.9732   9.0088   9.0155   9.0155
     9.0702   9.0901   9.2375   9.2375   9.5018   9.6421   9.6967   9.8064
     9.8197  10.0259  10.0259  10.0269  10.0429  10.0432  10.0888  10.0893
    10.0893  10.1644  10.2604  10.2800  10.2800  10.3062  10.3339  10.3453
    10.3453  10.3737  10.4197  10.4418  10.4418  10.6437  10.7063  10.7063
    10.7088  11.0290  11.0567  11.0593  11.0599  11.0599  11.3103  11.5601
    11.5744  11.5744  11.7265  11.8000  11.8326  11.8484  11.8485  11.8519
    11.9925  11.9982  11.9984  12.0197  12.0347  12.0478

     occupation numbers 
     1.0000   1.0000   1.0000   1.0000   1.0000   1.0000   1.0000   1.0000
     1.0000   1.0000   1.0000   1.0000   1.0000   1.0000   1.0000   1.0000
     1.0000   1.0000   1.0000   1.0000   1.0000   1.0000   1.0000   1.0000
     1.0000   1.0000   1.0000   1.0000   1.0000   1.0000   1.0000   1.0000
     1.0000   1.0000   1.0000   1.0000   1.0000   1.0000   1.0000   1.0000
     1.0000   1.0000   1.0000   1.0000   1.0000   1.0000   1.0000   1.0000
     1.0000   1.0000   1.0000   1.0000   1.0000   1.0000   1.0000   1.0000
     1.0000   1.0000   1.0000   1.0000   1.0000   1.0000   1.0000   1.0000
     1.0000   1.0000   1.0000   1.0000   1.0000   1.0000   1.0000   1.0000
     1.0000   1.0000   1.0000   1.0000   1.0000   1.0000   1.0000   1.0000
     1.0000   1.0000   1.0000   1.0000   1.0000   1.0000   1.0000   1.0000
     1.0000   1.0000   1.0000   1.0000   1.0000   1.0000   1.0000   1.0000
     1.0000   1.0000   1.0000   1.0000   1.0000   1.0000   1.0000   1.0000
     1.0000   1.0000   1.0000   1.0000   1.0000   1.0000   1.0000   1.0000
     1.0000   1.0000   1.0000   1.0000   1.0000   1.0000   1.0000   1.0000
     1.0000   1.0000   1.0000   1.0000   1.0000   1.0000   1.0000   1.0000
     1.0000   1.0000   1.0000   1.0000   1.0000   1.0000   1.0000   1.0000
     1.0000   1.0000   1.0000   1.0000   1.0000   1.0000   1.0000   1.0000
     1.0000   1.0000   1.0000   1.0000   1.0000   1.0000   1.0000   1.0000
     1.0000   1.0000   1.0000   1.0000   1.0000   1.0000   1.0000   1.0000
     1.0000   1.0000   1.0000   1.0000   1.0000   1.0000   1.0000   1.0000
     1.0000   1.0000   1.0000   1.0000   1.0000   1.0000   1.0000   1.0000
     1.0000   1.0000   1.0000   1.0000   1.0000   1.0000   1.0000   1.0000
     1.0000   1.0000   1.0000   1.0000   1.0000   1.0000   1.0000   1.0000
     1.0000   1.0000   1.0000   1.0000   1.0000   1.0000   1.0000   1.0000
     1.0000   1.0000   1.0000   1.0000   1.0000   1.0000   1.0000   1.0000
     1.0000   1.0000   1.0000   1.0000   1.0000   1.0000   1.0000   1.0000
     1.0000   1.0000   1.0000   1.0000   1.0000   1.0000   1.0000   1.0000
     1.0000   1.0000   1.0000   1.0000   1.0000   1.0000   1.0000   1.0000
     1.0000   1.0000   1.0000   1.0000   1.0000   1.0000   1.0000   1.0000
     1.0000   1.0000   1.0000   1.0000   1.0000   1.0000   1.0000   1.0000
     1.0000   1.0000   1.0000   1.0000   1.0000   1.0000   1.0000   1.0000
     1.0000   1.0000   1.0000   1.0000   1.0000   1.0000   1.0000   1.0000
     1.0000   1.0000   1.0000   1.0000   1.0000   1.0000   1.0000   1.0000
     1.0000   1.0000   1.0000   1.0000   1.0000   1.0000   1.0000   1.0000
     1.0000   1.0000   1.0000   1.0000   1.0000   1.0000   1.0000   1.0000
     1.0000   1.0000   1.0000   1.0000   0.0000   0.0000   0.0000   0.0000
     0.0000   0.0000   0.0000   0.0000   0.0000   0.0000   0.0000   0.0000
     0.0000   0.0000   0.0000   0.0000   0.0000   0.0000   0.0000   0.0000
     0.0000   0.0000   0.0000   0.0000   0.0000   0.0000   0.0000   0.0000
     0.0000   0.0000   0.0000   0.0000   0.0000   0.0000   0.0000   0.0000
     0.0000   0.0000   0.0000   0.0000   0.0000   0.0000   0.0000   0.0000
     0.0000   0.0000   0.0000   0.0000   0.0000   0.0000   0.0000   0.0000
     0.0000   0.0000   0.0000   0.0000   0.0000   0.0000

          k = 0.0000 0.0000-0.5000 (270152 PWs)   bands (ev):

  -104.4307 -61.8330 -61.8330 -61.8330  -7.3288  -7.2748  -6.8455  -6.8455
    -6.8446  -6.8403  -6.8171  -6.7928  -6.7928  -6.7590  -6.6116  -6.6077
    -6.6049  -6.6049  -6.5458  -6.5361  -6.5361  -6.5071  -6.4805  -6.4643
    -6.3799  -6.3799  -6.3795  -6.3536  -6.3326  -6.3326  -6.3075  -6.2882
    -6.2882  -6.1906  -6.1360  -6.1360  -0.7361  -0.7303  -0.7013  -0.7013
    -0.6938  -0.6906  -0.6866  -0.6823  -0.6676  -0.6676  -0.6573  -0.6560
    -0.6560  -0.6505  -0.6483  -0.6322  -0.6202  -0.6174  -0.6153  -0.6153
    -0.6090  -0.6090  -0.6032  -0.6031  -0.6023  -0.5972  -0.5972  -0.5936
    -0.5905  -0.5905  -0.5788  -0.5752  -0.5702  -0.5702  -0.5696  -0.5650
    -0.5627  -0.5627  -0.5567  -0.5543  -0.5543  -0.5540  -0.5471  -0.5415
    -0.5378  -0.5365  -0.5365  -0.5308  -0.5308  -0.5261  -0.5153  -0.5134
    -0.4940  -0.4940  -0.4869  -0.4822  -0.4817  -0.4742  -0.4742  -0.4717
    -0.4663  -0.4570  -0.4570  -0.4449  -0.4400  -0.4351  -0.4351  -0.4227
    -0.4227  -0.4049  -0.4049  -0.3685  -0.3648  -0.3478  -0.3478  -0.3295
    -0.3253  -0.3253  -0.3194  -0.3100  -0.3023  -0.2936  -0.2936  -0.2919
    -0.2905  -0.2905  -0.2863  -0.2812  -0.2772  -0.2758  -0.2747  -0.2747
    -0.2617  -0.2541  -0.2528  -0.2528  -0.2488  -0.2477  -0.2477  -0.2457
    -0.2428  -0.2428  -0.2409  -0.2371  -0.2360  -0.2296  -0.2251  -0.2246
    -0.2212  -0.2141  -0.2078  -0.2057  -0.2039  -0.2039  -0.1935  -0.1927
    -0.1877  -0.1762  -0.1761  -0.1761  -0.1744  -0.1696  -0.1647  -0.1567
    -0.1464  -0.1464  -0.1448  -0.1448  -0.1375  -0.1314  -0.1306  -0.1306
    -0.1290  -0.1248  -0.1198  -0.1127  -0.1074  -0.1073  -0.1066  -0.1066
    -0.0960  -0.0924  -0.0924   0.0112   0.0112   0.0151   0.0151   0.0191
     0.0199   0.0332   0.0364   0.0799   0.0799   0.0854   0.0854   0.9237
     0.9245   0.9245   0.9458   0.9798   0.9798   1.0047   1.0097   1.0169
     1.0458   1.0518   1.0804   1.1123   1.1479   1.1479   1.1527   1.1544
     1.1875   1.1875   1.4674   1.6697   1.8220   2.3473   2.3473   2.3746
     2.4327   2.4483   2.4535   2.4535   2.5945   2.6042   2.6365   2.6365
     2.6385   2.6668   2.6669   2.6669   2.7306   3.1003   3.1005   3.1005
     3.1019   3.1463   3.1836   3.1836   3.1885   3.5705   3.5705   3.6643
     3.6643   3.7128   3.7356   3.7356   3.7390   3.8413   3.8481   3.8567
     3.8567   3.8577   3.8623   3.8759   3.8759   3.8915   3.8915   3.8945
     3.9224   3.9432   3.9564   3.9625   3.9625   3.9822   3.9962   4.0198
     4.0198   4.3157   4.4513   4.4513   4.4845   4.5039   4.5513   4.6300
     4.6442   4.6442   4.6563   4.6566   4.6682   4.6682   4.6739   4.6798
     4.7133   4.7133   4.7442   5.0290   5.0290   5.1441   5.1441   5.5974
     5.6492   6.1684   6.2596   6.2596   8.7299   8.7678   9.2521   9.3361
     9.4941   9.5070   9.5225   9.5225   9.5451   9.5451   9.6013   9.6449
     9.8128   9.8128   9.8208   9.9010   9.9010   9.9330  10.1619  10.1640
    10.1698  10.1698  10.1716  10.2148  10.2148  10.2925  10.3156  10.3269
    10.3924  10.5257  10.6840  10.7053  10.7053  10.7233  10.7238  10.7238
    10.7258  10.9196  10.9206  10.9264  10.9264  10.9333  10.9653  11.0479
    11.0479  11.1591  11.2807  11.2959  11.7546  11.7575  11.7576  11.7674
    11.8139  11.8140  11.8561  12.0320  12.0371  12.0699

     occupation numbers 
     1.0000   1.0000   1.0000   1.0000   1.0000   1.0000   1.0000   1.0000
     1.0000   1.0000   1.0000   1.0000   1.0000   1.0000   1.0000   1.0000
     1.0000   1.0000   1.0000   1.0000   1.0000   1.0000   1.0000   1.0000
     1.0000   1.0000   1.0000   1.0000   1.0000   1.0000   1.0000   1.0000
     1.0000   1.0000   1.0000   1.0000   1.0000   1.0000   1.0000   1.0000
     1.0000   1.0000   1.0000   1.0000   1.0000   1.0000   1.0000   1.0000
     1.0000   1.0000   1.0000   1.0000   1.0000   1.0000   1.0000   1.0000
     1.0000   1.0000   1.0000   1.0000   1.0000   1.0000   1.0000   1.0000
     1.0000   1.0000   1.0000   1.0000   1.0000   1.0000   1.0000   1.0000
     1.0000   1.0000   1.0000   1.0000   1.0000   1.0000   1.0000   1.0000
     1.0000   1.0000   1.0000   1.0000   1.0000   1.0000   1.0000   1.0000
     1.0000   1.0000   1.0000   1.0000   1.0000   1.0000   1.0000   1.0000
     1.0000   1.0000   1.0000   1.0000   1.0000   1.0000   1.0000   1.0000
     1.0000   1.0000   1.0000   1.0000   1.0000   1.0000   1.0000   1.0000
     1.0000   1.0000   1.0000   1.0000   1.0000   1.0000   1.0000   1.0000
     1.0000   1.0000   1.0000   1.0000   1.0000   1.0000   1.0000   1.0000
     1.0000   1.0000   1.0000   1.0000   1.0000   1.0000   1.0000   1.0000
     1.0000   1.0000   1.0000   1.0000   1.0000   1.0000   1.0000   1.0000
     1.0000   1.0000   1.0000   1.0000   1.0000   1.0000   1.0000   1.0000
     1.0000   1.0000   1.0000   1.0000   1.0000   1.0000   1.0000   1.0000
     1.0000   1.0000   1.0000   1.0000   1.0000   1.0000   1.0000   1.0000
     1.0000   1.0000   1.0000   1.0000   1.0000   1.0000   1.0000   1.0000
     1.0000   1.0000   1.0000   1.0000   1.0000   1.0000   1.0000   1.0000
     1.0000   1.0000   1.0000   1.0000   1.0000   1.0000   1.0000   1.0000
     1.0000   1.0000   1.0000   1.0000   1.0000   1.0000   1.0000   1.0000
     1.0000   1.0000   1.0000   1.0000   1.0000   1.0000   1.0000   1.0000
     1.0000   1.0000   1.0000   1.0000   1.0000   1.0000   1.0000   1.0000
     1.0000   1.0000   1.0000   1.0000   1.0000   1.0000   1.0000   1.0000
     1.0000   1.0000   1.0000   1.0000   1.0000   1.0000   1.0000   1.0000
     1.0000   1.0000   1.0000   1.0000   1.0000   1.0000   1.0000   1.0000
     1.0000   1.0000   1.0000   1.0000   1.0000   1.0000   1.0000   1.0000
     1.0000   1.0000   1.0000   1.0000   1.0000   1.0000   1.0000   1.0000
     1.0000   1.0000   1.0000   1.0000   1.0000   1.0000   1.0000   1.0000
     1.0000   1.0000   1.0000   1.0000   1.0000   1.0000   1.0000   1.0000
     1.0000   1.0000   1.0000   1.0000   1.0000   1.0000   1.0000   1.0000
     1.0000   1.0000   1.0000   1.0000   1.0000   1.0000   1.0000   1.0000
     1.0000   1.0000   1.0000   1.0000   0.0000   0.0000   0.0000   0.0000
     0.0000   0.0000   0.0000   0.0000   0.0000   0.0000   0.0000   0.0000
     0.0000   0.0000   0.0000   0.0000   0.0000   0.0000   0.0000   0.0000
     0.0000   0.0000   0.0000   0.0000   0.0000   0.0000   0.0000   0.0000
     0.0000   0.0000   0.0000   0.0000   0.0000   0.0000   0.0000   0.0000
     0.0000   0.0000   0.0000   0.0000   0.0000   0.0000   0.0000   0.0000
     0.0000   0.0000   0.0000   0.0000   0.0000   0.0000   0.0000   0.0000
     0.0000   0.0000   0.0000   0.0000   0.0000   0.0000

          k = 0.0000 0.2500 0.2500 (269929 PWs)   bands (ev):

  -104.4307 -61.8330 -61.8330 -61.8330  -7.3790  -7.1054  -7.0897  -6.8811
    -6.8686  -6.8572  -6.7121  -6.7064  -6.7049  -6.6934  -6.6726  -6.6635
    -6.6103  -6.5920  -6.5657  -6.5633  -6.5149  -6.4975  -6.4798  -6.4503
    -6.4421  -6.4095  -6.3468  -6.3458  -6.3300  -6.3115  -6.3092  -6.3008
    -6.2906  -6.1577  -6.1569  -6.1362  -0.7278  -0.7260  -0.7164  -0.7163
    -0.7154  -0.7046  -0.6799  -0.6796  -0.6749  -0.6642  -0.6632  -0.6563
    -0.6344  -0.6329  -0.6311  -0.6279  -0.6231  -0.6172  -0.6163  -0.6157
    -0.6109  -0.6085  -0.6037  -0.6032  -0.5953  -0.5929  -0.5915  -0.5853
    -0.5817  -0.5813  -0.5784  -0.5752  -0.5750  -0.5715  -0.5715  -0.5683
    -0.5663  -0.5614  -0.5594  -0.5571  -0.5529  -0.5447  -0.5431  -0.5429
    -0.5390  -0.5334  -0.5308  -0.5217  -0.5206  -0.5157  -0.5151  -0.5012
    -0.5000  -0.4923  -0.4891  -0.4862  -0.4827  -0.4709  -0.4697  -0.4662
    -0.4635  -0.4606  -0.4522  -0.4427  -0.4419  -0.4383  -0.4313  -0.4303
    -0.4240  -0.4193  -0.4073  -0.4040  -0.3998  -0.3874  -0.3781  -0.3484
    -0.3360  -0.3282  -0.3280  -0.3143  -0.3083  -0.3076  -0.3042  -0.2970
    -0.2954  -0.2894  -0.2894  -0.2877  -0.2768  -0.2763  -0.2697  -0.2616
    -0.2576  -0.2561  -0.2533  -0.2498  -0.2461  -0.2460  -0.2442  -0.2418
    -0.2348  -0.2337  -0.2321  -0.2296  -0.2257  -0.2252  -0.2237  -0.2213
    -0.2168  -0.2153  -0.2151  -0.2137  -0.2102  -0.2054  -0.2023  -0.1910
    -0.1891  -0.1774  -0.1749  -0.1721  -0.1626  -0.1620  -0.1579  -0.1507
    -0.1504  -0.1487  -0.1374  -0.1344  -0.1343  -0.1303  -0.1290  -0.1267
    -0.1266  -0.1160  -0.1126  -0.1098  -0.1065  -0.1006  -0.0944  -0.0904
    -0.0772  -0.0748  -0.0673  -0.0422  -0.0386  -0.0140   0.0015   0.0200
     0.0438   0.0750   0.0791   0.1072   0.1088   0.1346   0.1418   0.5011
     0.5181   0.8845   0.8913   1.0012   1.0171   1.0194   1.0297   1.0696
     1.0971   1.1028   1.1435   1.1440   1.1476   1.1519   1.2029   1.2330
     1.4265   1.6087   1.6725   1.7410   1.7583   1.8044   1.9234   2.1919
     2.2425   2.4726   2.5659   2.5699   2.6120   2.6397   2.6715   2.6914
     2.7425   2.8424   2.8463   3.0297   3.0424   3.0753   3.0940   3.1133
     3.1264   3.1595   3.2673   3.2791   3.3424   3.3462   3.3762   3.4077
     3.4133   3.4251   3.4352   3.4964   3.5126   3.5238   3.5361   3.6746
     3.7251   3.7424   3.7590   3.7931   3.8461   3.9055   3.9587   4.0219
     4.0767   4.1281   4.1861   4.1866   4.2045   4.2548   4.2969   4.3271
     4.3354   4.3440   4.3478   4.3689   4.4220   4.4492   4.5127   4.5188
     4.5890   4.5929   4.6112   4.6314   4.6431   4.6533   4.7125   4.7225
     4.7587   4.7781   4.8728   4.8992   4.9871   5.2313   5.3656   5.6244
     5.6348   6.2035   6.2582   6.2973   8.2291   9.0401   9.0623   9.2972
     9.3069   9.3121   9.3671   9.3775   9.5291   9.5576   9.8615   9.8659
     9.8807   9.8847   9.9099   9.9242   9.9303   9.9520   9.9747   9.9759
    10.0468  10.1079  10.1393  10.1654  10.1867  10.2859  10.2883  10.3176
    10.3349  10.3882  10.4833  10.6762  10.6774  10.6854  10.7588  10.7888
    10.8219  10.8574  10.8722  10.9792  10.9998  11.0541  11.2785  11.4123
    11.4227  11.4409  11.4886  11.5087  11.7006  11.7727  11.7936  11.7955
    11.8233  11.8728  11.9071  11.9096  11.9253  11.9692

     occupation numbers 
     1.0000   1.0000   1.0000   1.0000   1.0000   1.0000   1.0000   1.0000
     1.0000   1.0000   1.0000   1.0000   1.0000   1.0000   1.0000   1.0000
     1.0000   1.0000   1.0000   1.0000   1.0000   1.0000   1.0000   1.0000
     1.0000   1.0000   1.0000   1.0000   1.0000   1.0000   1.0000   1.0000
     1.0000   1.0000   1.0000   1.0000   1.0000   1.0000   1.0000   1.0000
     1.0000   1.0000   1.0000   1.0000   1.0000   1.0000   1.0000   1.0000
     1.0000   1.0000   1.0000   1.0000   1.0000   1.0000   1.0000   1.0000
     1.0000   1.0000   1.0000   1.0000   1.0000   1.0000   1.0000   1.0000
     1.0000   1.0000   1.0000   1.0000   1.0000   1.0000   1.0000   1.0000
     1.0000   1.0000   1.0000   1.0000   1.0000   1.0000   1.0000   1.0000
     1.0000   1.0000   1.0000   1.0000   1.0000   1.0000   1.0000   1.0000
     1.0000   1.0000   1.0000   1.0000   1.0000   1.0000   1.0000   1.0000
     1.0000   1.0000   1.0000   1.0000   1.0000   1.0000   1.0000   1.0000
     1.0000   1.0000   1.0000   1.0000   1.0000   1.0000   1.0000   1.0000
     1.0000   1.0000   1.0000   1.0000   1.0000   1.0000   1.0000   1.0000
     1.0000   1.0000   1.0000   1.0000   1.0000   1.0000   1.0000   1.0000
     1.0000   1.0000   1.0000   1.0000   1.0000   1.0000   1.0000   1.0000
     1.0000   1.0000   1.0000   1.0000   1.0000   1.0000   1.0000   1.0000
     1.0000   1.0000   1.0000   1.0000   1.0000   1.0000   1.0000   1.0000
     1.0000   1.0000   1.0000   1.0000   1.0000   1.0000   1.0000   1.0000
     1.0000   1.0000   1.0000   1.0000   1.0000   1.0000   1.0000   1.0000
     1.0000   1.0000   1.0000   1.0000   1.0000   1.0000   1.0000   1.0000
     1.0000   1.0000   1.0000   1.0000   1.0000   1.0000   1.0000   1.0000
     1.0000   1.0000   1.0000   1.0000   1.0000   1.0000   1.0000   1.0000
     1.0000   1.0000   1.0000   1.0000   1.0000   1.0000   1.0000   1.0000
     1.0000   1.0000   1.0000   1.0000   1.0000   1.0000   1.0000   1.0000
     1.0000   1.0000   1.0000   1.0000   1.0000   1.0000   1.0000   1.0000
     1.0000   1.0000   1.0000   1.0000   1.0000   1.0000   1.0000   1.0000
     1.0000   1.0000   1.0000   1.0000   1.0000   1.0000   1.0000   1.0000
     1.0000   1.0000   1.0000   1.0000   1.0000   1.0000   1.0000   1.0000
     1.0000   1.0000   1.0000   1.0000   1.0000   1.0000   1.0000   1.0000
     1.0000   1.0000   1.0000   1.0000   1.0000   1.0000   1.0000   1.0000
     1.0000   1.0000   1.0000   1.0000   1.0000   1.0000   1.0000   1.0000
     1.0000   1.0000   1.0000   1.0000   1.0000   1.0000   1.0000   1.0000
     1.0000   1.0000   1.0000   1.0000   1.0000   1.0000   1.0000   1.0000
     1.0000   1.0000   1.0000   1.0000   1.0000   1.0000   1.0000   1.0000
     1.0000   1.0000   1.0000   1.0000   0.0000   0.0000   0.0000   0.0000
     0.0000   0.0000   0.0000   0.0000   0.0000   0.0000   0.0000   0.0000
     0.0000   0.0000   0.0000   0.0000   0.0000   0.0000   0.0000   0.0000
     0.0000   0.0000   0.0000   0.0000   0.0000   0.0000   0.0000   0.0000
     0.0000   0.0000   0.0000   0.0000   0.0000   0.0000   0.0000   0.0000
     0.0000   0.0000   0.0000   0.0000   0.0000   0.0000   0.0000   0.0000
     0.0000   0.0000   0.0000   0.0000   0.0000   0.0000   0.0000   0.0000
     0.0000   0.0000   0.0000   0.0000   0.0000   0.0000

          k = 0.0000 0.2500-0.5000 (269962 PWs)   bands (ev):

  -104.4307 -61.8330 -61.8330 -61.8330  -7.2944  -7.2420  -7.0348  -6.9794
    -6.8258  -6.8242  -6.7787  -6.7733  -6.6901  -6.6883  -6.6457  -6.6342
    -6.6195  -6.5944  -6.5110  -6.5034  -6.4890  -6.4765  -6.4586  -6.4414
    -6.4109  -6.3973  -6.3749  -6.3635  -6.3557  -6.3276  -6.3218  -6.3004
    -6.2960  -6.1910  -6.1608  -6.1403  -0.7249  -0.7119  -0.7035  -0.6930
    -0.6861  -0.6778  -0.6772  -0.6763  -0.6692  -0.6607  -0.6517  -0.6492
    -0.6491  -0.6466  -0.6435  -0.6324  -0.6312  -0.6302  -0.6216  -0.6175
    -0.6150  -0.6134  -0.6119  -0.6110  -0.6053  -0.5990  -0.5975  -0.5931
    -0.5916  -0.5892  -0.5868  -0.5825  -0.5789  -0.5760  -0.5727  -0.5699
    -0.5665  -0.5662  -0.5580  -0.5554  -0.5539  -0.5515  -0.5473  -0.5442
    -0.5380  -0.5371  -0.5314  -0.5281  -0.5179  -0.5170  -0.5096  -0.5041
    -0.4981  -0.4886  -0.4850  -0.4832  -0.4791  -0.4788  -0.4713  -0.4665
    -0.4599  -0.4516  -0.4485  -0.4417  -0.4393  -0.4365  -0.4316  -0.4205
    -0.4197  -0.4160  -0.4141  -0.4106  -0.4048  -0.3868  -0.3866  -0.3749
    -0.3675  -0.3558  -0.3456  -0.3412  -0.3250  -0.3216  -0.3132  -0.2982
    -0.2905  -0.2893  -0.2776  -0.2752  -0.2733  -0.2703  -0.2684  -0.2627
    -0.2587  -0.2487  -0.2478  -0.2441  -0.2433  -0.2410  -0.2396  -0.2394
    -0.2353  -0.2339  -0.2304  -0.2280  -0.2260  -0.2249  -0.2219  -0.2186
    -0.2159  -0.2141  -0.2134  -0.2101  -0.2097  -0.2057  -0.1914  -0.1904
    -0.1859  -0.1769  -0.1703  -0.1685  -0.1598  -0.1576  -0.1507  -0.1471
    -0.1420  -0.1418  -0.1397  -0.1369  -0.1352  -0.1311  -0.1308  -0.1261
    -0.1234  -0.1169  -0.1095  -0.1077  -0.1046  -0.1042  -0.0975  -0.0601
    -0.0563  -0.0419  -0.0312  -0.0274  -0.0099  -0.0000   0.0163   0.0294
     0.0336   0.0411   0.0480   0.0878   0.0950   0.0992   0.0995   0.7390
     0.7459   0.7716   0.7771   0.9706   0.9884   0.9992   1.0204   1.0269
     1.0346   1.0357   1.1040   1.1889   1.2473   1.3053   1.3118   1.3289
     1.3322   1.3504   1.4799   1.6241   1.7561   1.9438   2.0036   2.1520
     2.1914   2.2180   2.3370   2.4786   2.5035   2.7539   2.7628   2.8222
     2.8500   2.8525   2.8654   2.9214   2.9328   2.9588   2.9886   3.0977
     3.1436   3.3039   3.3417   3.4585   3.4971   3.5064   3.5194   3.5408
     3.5577   3.5707   3.6006   3.6471   3.6591   3.6600   3.6781   3.6991
     3.7598   3.8381   3.8410   3.8595   3.8931   3.9082   3.9339   3.9896
     3.9972   4.0730   4.0947   4.1053   4.1393   4.1652   4.1658   4.1758
     4.2374   4.2406   4.2661   4.2796   4.3062   4.3927   4.4080   4.4104
     4.4406   4.5156   4.5311   4.5743   4.6103   4.6646   4.6771   4.6918
     4.7141   4.9338   4.9942   5.0236   5.0244   5.1692   5.2635   5.6109
     5.6468   6.2122   6.2362   6.2683   8.8238   8.8668   9.4053   9.4110
     9.4339   9.4530   9.4901   9.5783   9.6485   9.6532   9.6869   9.7122
     9.8394   9.8530   9.8768   9.8794   9.8936   9.8957   9.9024   9.9365
     9.9819   9.9941   9.9961  10.0664  10.1012  10.1993  10.3533  10.4103
    10.4430  10.4954  10.5368  10.5633  10.6406  10.6557  10.6845  10.7716
    10.7726  10.8613  10.9066  10.9972  11.1009  11.1924  11.2909  11.3180
    11.3345  11.3596  11.3857  11.3935  11.4298  11.4828  11.5444  11.5969
    11.6030  11.6711  11.7429  11.7649  11.8022  11.8153

     occupation numbers 
     1.0000   1.0000   1.0000   1.0000   1.0000   1.0000   1.0000   1.0000
     1.0000   1.0000   1.0000   1.0000   1.0000   1.0000   1.0000   1.0000
     1.0000   1.0000   1.0000   1.0000   1.0000   1.0000   1.0000   1.0000
     1.0000   1.0000   1.0000   1.0000   1.0000   1.0000   1.0000   1.0000
     1.0000   1.0000   1.0000   1.0000   1.0000   1.0000   1.0000   1.0000
     1.0000   1.0000   1.0000   1.0000   1.0000   1.0000   1.0000   1.0000
     1.0000   1.0000   1.0000   1.0000   1.0000   1.0000   1.0000   1.0000
     1.0000   1.0000   1.0000   1.0000   1.0000   1.0000   1.0000   1.0000
     1.0000   1.0000   1.0000   1.0000   1.0000   1.0000   1.0000   1.0000
     1.0000   1.0000   1.0000   1.0000   1.0000   1.0000   1.0000   1.0000
     1.0000   1.0000   1.0000   1.0000   1.0000   1.0000   1.0000   1.0000
     1.0000   1.0000   1.0000   1.0000   1.0000   1.0000   1.0000   1.0000
     1.0000   1.0000   1.0000   1.0000   1.0000   1.0000   1.0000   1.0000
     1.0000   1.0000   1.0000   1.0000   1.0000   1.0000   1.0000   1.0000
     1.0000   1.0000   1.0000   1.0000   1.0000   1.0000   1.0000   1.0000
     1.0000   1.0000   1.0000   1.0000   1.0000   1.0000   1.0000   1.0000
     1.0000   1.0000   1.0000   1.0000   1.0000   1.0000   1.0000   1.0000
     1.0000   1.0000   1.0000   1.0000   1.0000   1.0000   1.0000   1.0000
     1.0000   1.0000   1.0000   1.0000   1.0000   1.0000   1.0000   1.0000
     1.0000   1.0000   1.0000   1.0000   1.0000   1.0000   1.0000   1.0000
     1.0000   1.0000   1.0000   1.0000   1.0000   1.0000   1.0000   1.0000
     1.0000   1.0000   1.0000   1.0000   1.0000   1.0000   1.0000   1.0000
     1.0000   1.0000   1.0000   1.0000   1.0000   1.0000   1.0000   1.0000
     1.0000   1.0000   1.0000   1.0000   1.0000   1.0000   1.0000   1.0000
     1.0000   1.0000   1.0000   1.0000   1.0000   1.0000   1.0000   1.0000
     1.0000   1.0000   1.0000   1.0000   1.0000   1.0000   1.0000   1.0000
     1.0000   1.0000   1.0000   1.0000   1.0000   1.0000   1.0000   1.0000
     1.0000   1.0000   1.0000   1.0000   1.0000   1.0000   1.0000   1.0000
     1.0000   1.0000   1.0000   1.0000   1.0000   1.0000   1.0000   1.0000
     1.0000   1.0000   1.0000   1.0000   1.0000   1.0000   1.0000   1.0000
     1.0000   1.0000   1.0000   1.0000   1.0000   1.0000   1.0000   1.0000
     1.0000   1.0000   1.0000   1.0000   1.0000   1.0000   1.0000   1.0000
     1.0000   1.0000   1.0000   1.0000   1.0000   1.0000   1.0000   1.0000
     1.0000   1.0000   1.0000   1.0000   1.0000   1.0000   1.0000   1.0000
     1.0000   1.0000   1.0000   1.0000   1.0000   1.0000   1.0000   1.0000
     1.0000   1.0000   1.0000   1.0000   1.0000   1.0000   1.0000   1.0000
     1.0000   1.0000   1.0000   1.0000   0.0000   0.0000   0.0000   0.0000
     0.0000   0.0000   0.0000   0.0000   0.0000   0.0000   0.0000   0.0000
     0.0000   0.0000   0.0000   0.0000   0.0000   0.0000   0.0000   0.0000
     0.0000   0.0000   0.0000   0.0000   0.0000   0.0000   0.0000   0.0000
     0.0000   0.0000   0.0000   0.0000   0.0000   0.0000   0.0000   0.0000
     0.0000   0.0000   0.0000   0.0000   0.0000   0.0000   0.0000   0.0000
     0.0000   0.0000   0.0000   0.0000   0.0000   0.0000   0.0000   0.0000
     0.0000   0.0000   0.0000   0.0000   0.0000   0.0000

          k = 0.0000-0.5000-0.5000 (269920 PWs)   bands (ev):

  -104.4307 -61.8330 -61.8330 -61.8330  -7.2106  -7.1736  -7.1736  -7.1007
    -6.7892  -6.7852  -6.7569  -6.7569  -6.7467  -6.7467  -6.6862  -6.6566
    -6.4864  -6.4864  -6.4604  -6.4587  -6.4580  -6.4547  -6.4400  -6.4400
    -6.4307  -6.4307  -6.4168  -6.4145  -6.3886  -6.3483  -6.3186  -6.3186
    -6.2840  -6.1914  -6.1914  -6.1441  -0.7049  -0.7049  -0.6879  -0.6829
    -0.6775  -0.6773  -0.6671  -0.6593  -0.6581  -0.6529  -0.6529  -0.6478
    -0.6478  -0.6403  -0.6403  -0.6353  -0.6343  -0.6329  -0.6329  -0.6310
    -0.6142  -0.6142  -0.6119  -0.6119  -0.6101  -0.6075  -0.6049  -0.6041
    -0.5947  -0.5947  -0.5922  -0.5858  -0.5858  -0.5827  -0.5785  -0.5716
    -0.5716  -0.5619  -0.5597  -0.5597  -0.5586  -0.5502  -0.5445  -0.5442
    -0.5419  -0.5266  -0.5266  -0.5206  -0.5106  -0.5106  -0.5049  -0.5001
    -0.4942  -0.4919  -0.4892  -0.4892  -0.4870  -0.4750  -0.4625  -0.4625
    -0.4608  -0.4581  -0.4555  -0.4555  -0.4503  -0.4503  -0.4479  -0.4279
    -0.4262  -0.4262  -0.4159  -0.4148  -0.4114  -0.4053  -0.4053  -0.3860
    -0.3711  -0.3711  -0.3685  -0.3644  -0.3455  -0.3201  -0.3053  -0.3053
    -0.2955  -0.2894  -0.2810  -0.2723  -0.2723  -0.2700  -0.2691  -0.2653
    -0.2653  -0.2425  -0.2425  -0.2416  -0.2377  -0.2377  -0.2359  -0.2326
    -0.2321  -0.2316  -0.2316  -0.2274  -0.2265  -0.2189  -0.2189  -0.2189
    -0.2178  -0.2097  -0.2073  -0.2066  -0.2066  -0.2028  -0.1892  -0.1892
    -0.1725  -0.1723  -0.1723  -0.1571  -0.1571  -0.1537  -0.1478  -0.1466
    -0.1363  -0.1363  -0.1306  -0.1266  -0.1219  -0.1217  -0.1217  -0.1172
    -0.1172  -0.1160  -0.1105  -0.1031  -0.1015  -0.1015  -0.0909  -0.0876
    -0.0839  -0.0786  -0.0786   0.0216   0.0216   0.0255   0.0493   0.0516
     0.0516   0.0612   0.0733   0.1093   0.1199   0.1199   0.1230   0.7277
     0.7575   0.7660   0.7660   0.7882   0.7882   0.8179   0.8659   0.9804
     1.0159   1.0159   1.1286   1.4687   1.4687   1.4985   1.5039   1.5315
     1.5315   1.5491   1.6581   1.6963   1.7372   1.7372   1.7543   1.7734
     1.7894   1.7894   2.1165   2.4826   2.5367   2.5465   2.5465   3.1560
     3.1560   3.1697   3.1998   3.2003   3.2358   3.2417   3.2417   3.2637
     3.2726   3.2752   3.2752   3.2875   3.3033   3.3255   3.3255   3.4372
     3.4372   3.5805   3.6402   3.6491   3.6737   3.6737   3.6747   3.6851
     3.6851   3.7225   3.7610   3.7710   3.7967   3.7967   3.8166   3.8903
     4.0780   4.0962   4.0962   4.0980   4.1039   4.1570   4.1570   4.2862
     4.2862   4.2969   4.3502   4.4301   4.4301   4.4312   4.4586   4.4586
     4.4673   4.4817   4.5080   4.5096   4.5343   4.5720   4.5720   4.6240
     4.6923   4.7252   4.7252   5.1463   5.1463   5.2273   5.3529   5.5970
     5.6829   6.1932   6.2735   6.2735   9.1285   9.1488   9.1488   9.2226
     9.5304   9.5393   9.5454   9.5454   9.5580   9.5580   9.5851   9.6205
     9.6700   9.6700   9.7620   9.8308  10.1074  10.1074  10.1292  10.1317
    10.1558  10.1726  10.2404  10.2404  10.2787  10.3043  10.3104  10.3104
    10.3453  10.3656  10.3881  10.3881  10.4127  10.4452  10.4582  10.4582
    10.4806  10.4806  10.5702  11.0671  11.4182  11.4185  11.4479  11.4827
    11.4848  11.4849  11.4859  11.5180  11.5449  11.5595  11.5595  11.5681
    11.6420  11.6616  11.6617  11.6645  11.7931  11.8324

     occupation numbers 
     1.0000   1.0000   1.0000   1.0000   1.0000   1.0000   1.0000   1.0000
     1.0000   1.0000   1.0000   1.0000   1.0000   1.0000   1.0000   1.0000
     1.0000   1.0000   1.0000   1.0000   1.0000   1.0000   1.0000   1.0000
[...]
     1.0000   1.0000   1.0000   1.0000   1.0000   1.0000   1.0000   1.0000
     1.0000   1.0000   1.0000   1.0000   1.0000   1.0000   1.0000   1.0000
     1.0000   1.0000   1.0000   1.0000   1.0000   1.0000   1.0000   1.0000
     1.0000   1.0000   1.0000   1.0000   1.0000   1.0000   1.0000   1.0000
     1.0000   1.0000   1.0000   1.0000   1.0000   1.0000   1.0000   1.0000
     1.0000   1.0000   1.0000   1.0000   1.0000   1.0000   1.0000   1.0000
     1.0000   1.0000   1.0000   1.0000   1.0000   1.0000   1.0000   1.0000
     1.0000   1.0000   1.0000   1.0000   1.0000   1.0000   1.0000   1.0000
     1.0000   1.0000   1.0000   1.0000   1.0000   1.0000   1.0000   1.0000
     1.0000   1.0000   1.0000   1.0000   1.0000   1.0000   1.0000   1.0000
     1.0000   1.0000   1.0000   1.0000   1.0000   1.0000   1.0000   1.0000
     1.0000   1.0000   1.0000   1.0000   1.0000   1.0000   1.0000   1.0000
     1.0000   1.0000   1.0000   1.0000   1.0000   1.0000   1.0000   1.0000
     1.0000   1.0000   1.0000   1.0000   1.0000   1.0000   1.0000   1.0000
     1.0000   1.0000   1.0000   1.0000   1.0000   1.0000   1.0000   1.0000
     1.0000   1.0000   1.0000   1.0000   1.0000   1.0000   1.0000   1.0000
     1.0000   1.0000   1.0000   1.0000   0.0000   0.0000   0.0000   0.0000
     0.0000   0.0000   0.0000   0.0000   0.0000   0.0000   0.0000   0.0000
     0.0000   0.0000   0.0000   0.0000   0.0000   0.0000   0.0000   0.0000
     0.0000   0.0000   0.0000   0.0000   0.0000   0.0000   0.0000   0.0000
     0.0000   0.0000   0.0000   0.0000   0.0000   0.0000   0.0000   0.0000
     0.0000   0.0000   0.0000   0.0000   0.0000   0.0000   0.0000   0.0000
     0.0000   0.0000   0.0000   0.0000   0.0000   0.0000   0.0000   0.0000
     0.0000   0.0000   0.0000   0.0000   0.0000   0.0000

          k = 0.2500-0.5000-0.5000 (269956 PWs)   bands (ev):

  -104.4306 -61.8330 -61.8330 -61.8330  -7.1801  -7.1435  -7.1435  -7.0753
    -6.9517  -6.9151  -6.9151  -6.8228  -6.6170  -6.5851  -6.5851  -6.5237
    -6.4853  -6.4853  -6.4593  -6.4584  -6.4569  -6.4542  -6.4408  -6.4408
    -6.4304  -6.4304  -6.4174  -6.4156  -6.3939  -6.3717  -6.3455  -6.3455
    -6.2894  -6.1984  -6.1984  -6.1687  -0.6977  -0.6977  -0.6852  -0.6759
    -0.6714  -0.6702  -0.6618  -0.6559  -0.6540  -0.6540  -0.6539  -0.6419
    -0.6419  -0.6362  -0.6353  -0.6353  -0.6325  -0.6325  -0.6319  -0.6272
    -0.6258  -0.6258  -0.6235  -0.6137  -0.6125  -0.6125  -0.6057  -0.6029
    -0.6010  -0.6010  -0.5972  -0.5909  -0.5885  -0.5885  -0.5868  -0.5783
    -0.5778  -0.5778  -0.5709  -0.5666  -0.5657  -0.5657  -0.5428  -0.5417
    -0.5327  -0.5264  -0.5160  -0.5160  -0.5098  -0.5018  -0.5018  -0.5013
    -0.4941  -0.4941  -0.4930  -0.4855  -0.4765  -0.4690  -0.4690  -0.4665
    -0.4537  -0.4478  -0.4478  -0.4430  -0.4380  -0.4287  -0.4287  -0.4242
    -0.4162  -0.4162  -0.4050  -0.3975  -0.3975  -0.3965  -0.3951  -0.3767
    -0.3711  -0.3708  -0.3708  -0.3674  -0.3514  -0.3279  -0.3252  -0.3187
    -0.3187  -0.3154  -0.3088  -0.3088  -0.2934  -0.2934  -0.2879  -0.2680
    -0.2671  -0.2624  -0.2468  -0.2414  -0.2414  -0.2337  -0.2331  -0.2331
    -0.2318  -0.2279  -0.2224  -0.2179  -0.2179  -0.2141  -0.2134  -0.2117
    -0.2117  -0.2022  -0.1999  -0.1999  -0.1995  -0.1933  -0.1774  -0.1774
    -0.1720  -0.1720  -0.1711  -0.1538  -0.1538  -0.1466  -0.1422  -0.1333
    -0.1333  -0.1308  -0.1252  -0.1227  -0.1153  -0.1153  -0.1133  -0.1098
    -0.1098  -0.1061  -0.1021  -0.1013  -0.0942  -0.0942  -0.0801  -0.0755
    -0.0728  -0.0684  -0.0684  -0.0098  -0.0047  -0.0047   0.0115   0.0181
     0.0181   0.0269   0.0399   0.0605   0.0733   0.0733   0.0872   0.8493
     0.8737   0.8783   0.8783   0.8970   0.8970   0.9341   0.9624   1.0029
     1.0372   1.0372   1.1003   1.3623   1.3683   1.3683   1.3838   1.4073
     1.4073   1.4125   1.4250   1.4257   1.4257   1.4447   1.7566   2.2047
     2.2047   2.2234   2.3087   2.6762   2.7362   2.7362   2.7411   3.1029
     3.1029   3.1401   3.1501   3.1783   3.2030   3.2079   3.2079   3.2397
     3.2397   3.2399   3.2425   3.2508   3.2537   3.2537   3.2711   3.3049
     3.3049   3.3081   3.4201   3.7061   3.7264   3.7264   3.7589   3.7752
     3.8087   3.8087   3.8105   3.8258   3.8258   3.8291   3.8305   3.8485
     3.8617   3.8617   3.8911   4.0053   4.0633   4.0633   4.0746   4.0765
     4.0843   4.1268   4.1268   4.1970   4.1970   4.2226   4.2392   4.6165
     4.6601   4.6601   4.7797   4.8202   4.8313   4.8623   4.8623   4.8960
     4.9129   4.9280   4.9280   5.1431   5.1431   5.1795   5.2841   5.6132
     5.6599   6.2474   6.2868   6.2868   9.0105   9.0308   9.0308   9.0783
     9.1261   9.1423   9.1423   9.2807   9.7220   9.7220   9.7454   9.7536
     9.8489   9.8489   9.8704   9.8762   9.8772   9.8772   9.9151   9.9280
     9.9351   9.9677   9.9677   9.9879  10.0544  10.0757  10.0757  10.0879
    10.1308  10.1612  10.1613  10.3756  10.8713  10.8908  10.8908  10.8926
    10.9560  10.9618  10.9618  11.1421  11.4285  11.4286  11.4474  11.4690
    11.5194  11.5195  11.5749  11.6141  11.6179  11.6180  11.6295  11.6431
    11.6562  11.7029  11.7032  11.8247  11.8956  11.9160

     occupation numbers 
     1.0000   1.0000   1.0000   1.0000   1.0000   1.0000   1.0000   1.0000
     1.0000   1.0000   1.0000   1.0000   1.0000   1.0000   1.0000   1.0000
     1.0000   1.0000   1.0000   1.0000   1.0000   1.0000   1.0000   1.0000
     1.0000   1.0000   1.0000   1.0000   1.0000   1.0000   1.0000   1.0000
     1.0000   1.0000   1.0000   1.0000   1.0000   1.0000   1.0000   1.0000
     1.0000   1.0000   1.0000   1.0000   1.0000   1.0000   1.0000   1.0000
     1.0000   1.0000   1.0000   1.0000   1.0000   1.0000   1.0000   1.0000
     1.0000   1.0000   1.0000   1.0000   1.0000   1.0000   1.0000   1.0000
     1.0000   1.0000   1.0000   1.0000   1.0000   1.0000   1.0000   1.0000
     1.0000   1.0000   1.0000   1.0000   1.0000   1.0000   1.0000   1.0000
     1.0000   1.0000   1.0000   1.0000   1.0000   1.0000   1.0000   1.0000
     1.0000   1.0000   1.0000   1.0000   1.0000   1.0000   1.0000   1.0000
     1.0000   1.0000   1.0000   1.0000   1.0000   1.0000   1.0000   1.0000
     1.0000   1.0000   1.0000   1.0000   1.0000   1.0000   1.0000   1.0000
     1.0000   1.0000   1.0000   1.0000   1.0000   1.0000   1.0000   1.0000
     1.0000   1.0000   1.0000   1.0000   1.0000   1.0000   1.0000   1.0000
     1.0000   1.0000   1.0000   1.0000   1.0000   1.0000   1.0000   1.0000
     1.0000   1.0000   1.0000   1.0000   1.0000   1.0000   1.0000   1.0000
     1.0000   1.0000   1.0000   1.0000   1.0000   1.0000   1.0000   1.0000
     1.0000   1.0000   1.0000   1.0000   1.0000   1.0000   1.0000   1.0000
     1.0000   1.0000   1.0000   1.0000   1.0000   1.0000   1.0000   1.0000
     1.0000   1.0000   1.0000   1.0000   1.0000   1.0000   1.0000   1.0000
     1.0000   1.0000   1.0000   1.0000   1.0000   1.0000   1.0000   1.0000
     1.0000   1.0000   1.0000   1.0000   1.0000   1.0000   1.0000   1.0000
     1.0000   1.0000   1.0000   1.0000   1.0000   1.0000   1.0000   1.0000
     1.0000   1.0000   1.0000   1.0000   1.0000   1.0000   1.0000   1.0000
     1.0000   1.0000   1.0000   1.0000   1.0000   1.0000   1.0000   1.0000
     1.0000   1.0000   1.0000   1.0000   1.0000   1.0000   1.0000   1.0000
     1.0000   1.0000   1.0000   1.0000   1.0000   1.0000   1.0000   1.0000
     1.0000   1.0000   1.0000   1.0000   1.0000   1.0000   1.0000   1.0000
     1.0000   1.0000   1.0000   1.0000   1.0000   1.0000   1.0000   1.0000
     1.0000   1.0000   1.0000   1.0000   1.0000   1.0000   1.0000   1.0000
     1.0000   1.0000   1.0000   1.0000   1.0000   1.0000   1.0000   1.0000
     1.0000   1.0000   1.0000   1.0000   1.0000   1.0000   1.0000   1.0000
     1.0000   1.0000   1.0000   1.0000   1.0000   1.0000   1.0000   1.0000
     1.0000   1.0000   1.0000   1.0000   1.0000   1.0000   1.0000   1.0000
     1.0000   1.0000   1.0000   1.0000   0.0000   0.0000   0.0000   0.0000
     0.0000   0.0000   0.0000   0.0000   0.0000   0.0000   0.0000   0.0000
     0.0000   0.0000   0.0000   0.0000   0.0000   0.0000   0.0000   0.0000
     0.0000   0.0000   0.0000   0.0000   0.0000   0.0000   0.0000   0.0000
     0.0000   0.0000   0.0000   0.0000   0.0000   0.0000   0.0000   0.0000
     0.0000   0.0000   0.0000   0.0000   0.0000   0.0000   0.0000   0.0000
     0.0000   0.0000   0.0000   0.0000   0.0000   0.0000   0.0000   0.0000
     0.0000   0.0000   0.0000   0.0000   0.0000   0.0000

          k =-0.5000-0.5000-0.5000 (269968 PWs)   bands (ev):

  -104.4306 -61.8330 -61.8330 -61.8330  -7.1066  -7.0735  -7.0735  -7.0735
    -7.0319  -7.0319  -7.0319  -6.9094  -6.4901  -6.4901  -6.4901  -6.4678
    -6.4555  -6.4555  -6.4539  -6.4539  -6.4539  -6.4484  -6.4484  -6.4484
    -6.4247  -6.4247  -6.4247  -6.4176  -6.4176  -6.4171  -6.4171  -6.4171
    -6.2818  -6.2046  -6.2046  -6.2046  -0.6852  -0.6852  -0.6852  -0.6609
    -0.6609  -0.6609  -0.6555  -0.6555  -0.6555  -0.6521  -0.6521  -0.6521
    -0.6442  -0.6326  -0.6326  -0.6322  -0.6322  -0.6322  -0.6320  -0.6320
    -0.6320  -0.6280  -0.6280  -0.6280  -0.6108  -0.6102  -0.6102  -0.6102
    -0.6018  -0.6018  -0.6003  -0.6003  -0.6003  -0.5876  -0.5876  -0.5876
    -0.5828  -0.5828  -0.5828  -0.5786  -0.5786  -0.5786  -0.5431  -0.5307
    -0.5307  -0.5108  -0.5088  -0.5088  -0.5088  -0.4912  -0.4912  -0.4912
    -0.4864  -0.4864  -0.4864  -0.4769  -0.4769  -0.4769  -0.4742  -0.4742
    -0.4438  -0.4438  -0.4438  -0.4341  -0.4341  -0.4325  -0.4325  -0.4325
    -0.4002  -0.3887  -0.3887  -0.3887  -0.3684  -0.3684  -0.3684  -0.3664
    -0.3664  -0.3605  -0.3605  -0.3605  -0.3513  -0.3513  -0.3513  -0.3486
    -0.3419  -0.3419  -0.3419  -0.3320  -0.3320  -0.3320  -0.3050  -0.2892
    -0.2892  -0.2622  -0.2622  -0.2397  -0.2397  -0.2397  -0.2315  -0.2315
    -0.2315  -0.2198  -0.2198  -0.2157  -0.2157  -0.2157  -0.2061  -0.2061
    -0.2061  -0.1998  -0.1945  -0.1945  -0.1945  -0.1722  -0.1722  -0.1722
    -0.1622  -0.1622  -0.1622  -0.1457  -0.1457  -0.1457  -0.1194  -0.1194
    -0.1192  -0.1192  -0.1192  -0.1068  -0.1068  -0.1068  -0.0987  -0.0819
    -0.0819  -0.0819  -0.0767  -0.0767  -0.0767  -0.0736  -0.0596  -0.0596
    -0.0486  -0.0486  -0.0486  -0.0322  -0.0322  -0.0322  -0.0313  -0.0313
    -0.0203  -0.0203  -0.0203  -0.0135  -0.0135  -0.0135   0.0268   1.0732
     1.0732   1.0732   1.1020   1.1032   1.1032   1.1251   1.1251   1.1251
     1.1267   1.1267   1.1267   1.1612   1.1612   1.1612   1.1922   1.1922
     1.2008   1.2008   1.2008   1.2076   1.2076   1.2076   1.6847   2.6438
     2.6438   2.6438   2.7513   2.7636   2.7636   2.7636   2.9072   3.1102
     3.1102   3.1349   3.1349   3.1349   3.1767   3.1767   3.1767   3.1819
     3.1948   3.1948   3.2157   3.2157   3.2157   3.2160   3.2160   3.2160
     3.2283   3.2283   3.2283   3.3009   3.3009   3.3009   3.4074   3.8270
     3.8270   3.8270   3.9363   3.9363   3.9525   3.9730   3.9730   3.9730
     3.9773   3.9773   3.9773   3.9842   3.9842   4.0101   4.0101   4.0101
     4.0285   4.0285   4.0285   4.0572   4.0630   4.0630   4.0630   4.7168
     4.7168   4.7168   4.9747   4.9747   5.0670   5.0670   5.0670   5.0747
     5.0747   5.0747   5.0785   5.0785   5.1118   5.1118   5.1118   5.6353
     5.6353   6.3037   6.3037   6.3037   8.9065   8.9275   8.9275   8.9275
     8.9434   8.9434   8.9434   9.1235   9.8105   9.8105   9.8114   9.8114
     9.8114   9.8246   9.8246   9.8246   9.8330   9.8330   9.8330   9.8402
     9.8655   9.8655   9.8655   9.8695   9.8695   9.8695   9.9297   9.9297
     9.9795   9.9795   9.9795  10.2660  11.4147  11.4147  11.4147  11.4293
    11.4293  11.4293  11.4350  11.4350  11.4408  11.4408  11.4408  11.4421
    11.4600  11.4600  11.4600  11.4612  11.4612  11.4612  11.4871  11.4871
    11.5970  11.5970  11.5970  12.1083  12.3864  12.3876

     occupation numbers 
     1.0000   1.0000   1.0000   1.0000   1.0000   1.0000   1.0000   1.0000
     1.0000   1.0000   1.0000   1.0000   1.0000   1.0000   1.0000   1.0000
     1.0000   1.0000   1.0000   1.0000   1.0000   1.0000   1.0000   1.0000
     1.0000   1.0000   1.0000   1.0000   1.0000   1.0000   1.0000   1.0000
     1.0000   1.0000   1.0000   1.0000   1.0000   1.0000   1.0000   1.0000
     1.0000   1.0000   1.0000   1.0000   1.0000   1.0000   1.0000   1.0000
     1.0000   1.0000   1.0000   1.0000   1.0000   1.0000   1.0000   1.0000
     1.0000   1.0000   1.0000   1.0000   1.0000   1.0000   1.0000   1.0000
     1.0000   1.0000   1.0000   1.0000   1.0000   1.0000   1.0000   1.0000
     1.0000   1.0000   1.0000   1.0000   1.0000   1.0000   1.0000   1.0000
     1.0000   1.0000   1.0000   1.0000   1.0000   1.0000   1.0000   1.0000
     1.0000   1.0000   1.0000   1.0000   1.0000   1.0000   1.0000   1.0000
     1.0000   1.0000   1.0000   1.0000   1.0000   1.0000   1.0000   1.0000
     1.0000   1.0000   1.0000   1.0000   1.0000   1.0000   1.0000   1.0000
     1.0000   1.0000   1.0000   1.0000   1.0000   1.0000   1.0000   1.0000
     1.0000   1.0000   1.0000   1.0000   1.0000   1.0000   1.0000   1.0000
     1.0000   1.0000   1.0000   1.0000   1.0000   1.0000   1.0000   1.0000
     1.0000   1.0000   1.0000   1.0000   1.0000   1.0000   1.0000   1.0000
     1.0000   1.0000   1.0000   1.0000   1.0000   1.0000   1.0000   1.0000
     1.0000   1.0000   1.0000   1.0000   1.0000   1.0000   1.0000   1.0000
     1.0000   1.0000   1.0000   1.0000   1.0000   1.0000   1.0000   1.0000
     1.0000   1.0000   1.0000   1.0000   1.0000   1.0000   1.0000   1.0000
     1.0000   1.0000   1.0000   1.0000   1.0000   1.0000   1.0000   1.0000
     1.0000   1.0000   1.0000   1.0000   1.0000   1.0000   1.0000   1.0000
     1.0000   1.0000   1.0000   1.0000   1.0000   1.0000   1.0000   1.0000
     1.0000   1.0000   1.0000   1.0000   1.0000   1.0000   1.0000   1.0000
     1.0000   1.0000   1.0000   1.0000   1.0000   1.0000   1.0000   1.0000
     1.0000   1.0000   1.0000   1.0000   1.0000   1.0000   1.0000   1.0000
     1.0000   1.0000   1.0000   1.0000   1.0000   1.0000   1.0000   1.0000
     1.0000   1.0000   1.0000   1.0000   1.0000   1.0000   1.0000   1.0000
     1.0000   1.0000   1.0000   1.0000   1.0000   1.0000   1.0000   1.0000
     1.0000   1.0000   1.0000   1.0000   1.0000   1.0000   1.0000   1.0000
     1.0000   1.0000   1.0000   1.0000   1.0000   1.0000   1.0000   1.0000
     1.0000   1.0000   1.0000   1.0000   1.0000   1.0000   1.0000   1.0000
     1.0000   1.0000   1.0000   1.0000   1.0000   1.0000   1.0000   1.0000
     1.0000   1.0000   1.0000   1.0000   1.0000   1.0000   1.0000   1.0000
     1.0000   1.0000   1.0000   1.0000   0.0000   0.0000   0.0000   0.0000
     0.0000   0.0000   0.0000   0.0000   0.0000   0.0000   0.0000   0.0000
     0.0000   0.0000   0.0000   0.0000   0.0000   0.0000   0.0000   0.0000
     0.0000   0.0000   0.0000   0.0000   0.0000   0.0000   0.0000   0.0000
     0.0000   0.0000   0.0000   0.0000   0.0000   0.0000   0.0000   0.0000
     0.0000   0.0000   0.0000   0.0000   0.0000   0.0000   0.0000   0.0000
     0.0000   0.0000   0.0000   0.0000   0.0000   0.0000   0.0000   0.0000
     0.0000   0.0000   0.0000   0.0000   0.0000   0.0000

     the Fermi energy is     7.0351 ev

!    total energy              =  -10166.97328425 Ry
     total all-electron energy =   -140217.603453 Ry
     estimated scf accuracy    <          1.9E-09 Ry
     smearing contrib. (-TS)   =      -0.00000000 Ry
     internal energy E=F+TS    =  -10166.97328425 Ry

     The total energy is F=E-TS. E is the sum of the following terms:
     one-electron contribution =   -3072.49205394 Ry
     hartree contribution      =    2116.32870898 Ry
     xc contribution           =   -1666.53782845 Ry
     ewald contribution        =   -3011.12474655 Ry
     one-center paw contrib.   =   -4533.14736429 Ry
      -> PAW hartree energy AE =     123.37484419 Ry
      -> PAW hartree energy PS =    -122.73329219 Ry
      -> PAW xc energy AE      =    -143.21728725 Ry
      -> PAW xc energy PS      =      47.15571846 Ry
      -> total E_H with PAW    =    2116.97026097 Ry
      -> total E_XC with PAW   =   -1762.59939724 Ry

     total magnetization       =    -0.00 Bohr mag/cell
     absolute magnetization    =     0.00 Bohr mag/cell

     convergence has been achieved in  13 iterations

     Writing all to output data dir ./out/Cu_qn1.save/
 
     init_run     :     10.18s CPU     11.34s WALL (       1 calls)
     electrons    :    134.21s CPU    146.10s WALL (       1 calls)

     Called by init_run:
     wfcinit      :      6.95s CPU      7.59s WALL (       1 calls)
     wfcinit:atom :      0.02s CPU      0.02s WALL (       2 calls)
     wfcinit:wfcr :      6.83s CPU      7.14s WALL (       2 calls)
     potinit      :      0.67s CPU      0.80s WALL (       1 calls)
     hinit0       :      0.37s CPU      0.54s WALL (       1 calls)

     Called by electrons:
     c_bands      :    117.50s CPU    121.25s WALL (      14 calls)
     sum_band     :     12.93s CPU     13.08s WALL (      14 calls)
     v_of_rho     :      1.13s CPU      1.21s WALL (      14 calls)
     v_h          :      0.05s CPU      0.05s WALL (      14 calls)
     v_xc         :      1.08s CPU      1.16s WALL (      14 calls)
     newd         :      0.44s CPU      0.50s WALL (      14 calls)
     PAW_pot      :      1.40s CPU      1.44s WALL (      14 calls)
     mix_rho      :      0.33s CPU      0.36s WALL (      14 calls)

     Called by c_bands:
     init_us_2    :      1.62s CPU      1.64s WALL (      58 calls)
     init_us_2:cp :      1.62s CPU      1.64s WALL (      58 calls)
     cegterg      :    104.74s CPU    106.40s WALL (      28 calls)

     Called by sum_band:
     sum_band:wei :      0.03s CPU      0.03s WALL (      14 calls)
     sum_band:loo :     10.94s CPU     11.04s WALL (      14 calls)
     sum_band:buf :      0.25s CPU      0.27s WALL (      28 calls)
     sum_band:ini :      0.80s CPU      0.80s WALL (      28 calls)
     sum_band:cal :      4.10s CPU      4.13s WALL (      28 calls)
     sum_band:bec :      0.11s CPU      0.12s WALL (      28 calls)
     addusdens    :      0.57s CPU      0.58s WALL (      14 calls)
                                        0.00s GPU  (      14 calls)
     addusd:skk   :      0.01s CPU      0.01s WALL (      42 calls)
                                        0.00s GPU  (      42 calls)

     Called by *egterg:
     cdiaghg      :     10.81s CPU     11.01s WALL (     201 calls)
     cegterg:over :      8.13s CPU      8.19s WALL (     175 calls)
     cegterg:upda :      7.94s CPU      8.01s WALL (     175 calls)
     cegterg:last :     12.13s CPU     12.23s WALL (      56 calls)
     cdiaghg:chol :      0.64s CPU      0.67s WALL (     201 calls)
     cdiaghg:inve :      0.53s CPU      0.54s WALL (     201 calls)
     cdiaghg:para :      1.45s CPU      1.46s WALL (     402 calls)
     h_psi        :     56.98s CPU     57.98s WALL (     205 calls)
     s_psi        :     11.94s CPU     12.02s WALL (     205 calls)
     g_psi        :      0.26s CPU      0.27s WALL (     175 calls)

     Called by h_psi:
     h_psi:calbec :     11.83s CPU     11.97s WALL (     205 calls)
     vloc_psi     :     32.44s CPU     32.79s WALL (     205 calls)
     add_vuspsi   :     12.26s CPU     12.46s WALL (     205 calls)

     General routines
     calbec       :     15.93s CPU     16.09s WALL (     233 calls)
     fft          :      0.90s CPU      1.13s WALL (     294 calls)
     ffts         :      0.04s CPU      0.05s WALL (      28 calls)
     fftw         :     35.56s CPU     35.93s WALL (   58744 calls)
 
     Parallel routines

     PAW routines
     PAW_pot      :      1.40s CPU      1.44s WALL (      14 calls)
     PAW_symme    :      0.14s CPU      0.15s WALL (      28 calls)
 
     PWSCF        :   2m27.14s CPU   3m15.20s WALL

 
   This run was terminated on:   0:17:39   5Jul2024            

=------------------------------------------------------------------------------=
   JOB DONE.
=------------------------------------------------------------------------------=
