
     Program PWSCF v.7.2 starts on  1Jul2024 at  4:16:41 

     This program is part of the open-source Quantum ESPRESSO suite
     for quantum simulation of materials; please cite
         "P. Giannozzi et al., J. Phys.:Condens. Matter 21 395502 (2009);
         "P. Giannozzi et al., J. Phys.:Condens. Matter 29 465901 (2017);
         "P. Giannozzi et al., J. Chem. Phys. 152 154105 (2020);
          URL http://www.quantum-espresso.org", 
     in publications or presentations arising from this work. More details at
     http://www.quantum-espresso.org/quote

     Parallel version (MPI), running on  1120 processors

     MPI processes distributed on    10 nodes
     227954 MiB available memory on the printing compute node when the environment starts
 
     Waiting for input...
     Reading input from standard input

     Current dimensions of program PWSCF are:
     Max number of different atomic species (ntypx) = 10
     Max number of k-points (npk) =  40000
     Max angular momentum in pseudopotentials (lmaxx) =  4

     Atomic positions and unit cell read from directory:
     ./out/ZnS_hub.save/
 
     file S.pbe-n-kjpaw_psl.1.0.0.UPF: wavefunction(s)  3S 3P renormalized
     file Zn.pbe-dnl-kjpaw_psl.1.0.0.UPF: wavefunction(s)  4S 3D renormalized
     Found identity + (  0.0000  0.2500  0.2500) symmetry
     This is a supercell, fractional translations are disabled
     [opt_tetra]  Optimized tetrahedron method is used.
 
     K-points division:     npool     =      10
     R & G space division:  proc/nbgrp/npool/nimage =     112
     Subspace diagonalization in iterative solution of the eigenvalue problem:
     one sub-group per band group will be used
     scalapack distributed-memory algorithm (size of sub-group:  3*  3 procs)

 
     Parallelization info
     --------------------
     sticks:   dense  smooth     PW     G-vecs:    dense   smooth      PW
     Min         126     126     33                11287    11287    1523
     Max         128     128     34                11292    11292    1528
     Sum       14137   14137   3721              1264415  1264415  170709
 
     Using Slab Decomposition
 


     bravais-lattice index     =            1
     lattice parameter (alat)  =      20.5686  a.u.
     unit-cell volume          =    8701.8437 (a.u.)^3
     number of atoms/cell      =           64
     number of atomic types    =            2
     number of electrons       =       576.00
     number of Kohn-Sham states=          345
     kinetic-energy cutoff     =     105.0000  Ry
     charge density cutoff     =     420.0000  Ry
     Exchange-correlation= SLA  PW   PBX  PBC
                           (   1   4   3   4   0   0   0)
     Hubbard projectors: ortho-atomic
     Hubbard parameters of DFT+U (Dudarev formulation) in eV:
     U(S-3p) =  9.0000
     U(Zn-3d) =  0.0000

     Internal variables: lda_plus_u = T, lda_plus_u_kind = 0

     celldm(1)=  20.568554  celldm(2)=   0.000000  celldm(3)=   0.000000
     celldm(4)=   0.000000  celldm(5)=   0.000000  celldm(6)=   0.000000

     crystal axes: (cart. coord. in units of alat)
               a(1) = (   1.000000   0.000000   0.000000 )  
               a(2) = (   0.000000   1.000000   0.000000 )  
               a(3) = (   0.000000   0.000000   1.000000 )  

     reciprocal axes: (cart. coord. in units 2 pi/alat)
               b(1) = (  1.000000  0.000000  0.000000 )  
               b(2) = (  0.000000  1.000000  0.000000 )  
               b(3) = (  0.000000  0.000000  1.000000 )  


     PseudoPot. # 1 for S  read from file:
     /arf/home/amuhaymin/pseudo/S.pbe-n-kjpaw_psl.1.0.0.UPF
     MD5 check sum: fb45dfebcf3e72a4e1bd4a866ec2e262
     Pseudo is Projector augmented-wave + core cor, Zval =  6.0
     Generated using &quot;atomic&quot; code by A. Dal Corso  v.6.3
     Shape of augmentation charge: PSQ
     Using radial grid of 1151 points,  6 beta functions with: 
                l(1) =   0
                l(2) =   0
                l(3) =   1
                l(4) =   1
                l(5) =   2
                l(6) =   2
     Q(r) pseudized with 0 coefficients 


     PseudoPot. # 2 for Zn read from file:
     /arf/home/amuhaymin/pseudo/Zn.pbe-dnl-kjpaw_psl.1.0.0.UPF
     MD5 check sum: c608214d9520ac179f507641260889e3
     Pseudo is Projector augmented-wave + core cor, Zval = 12.0
     Generated using &quot;atomic&quot; code by A. Dal Corso  v.6.2.2
     Shape of augmentation charge: PSQ
     Using radial grid of 1201 points,  6 beta functions with: 
                l(1) =   0
                l(2) =   0
                l(3) =   1
                l(4) =   1
                l(5) =   2
                l(6) =   2
     Q(r) pseudized with 0 coefficients 


     atomic species   valence    mass     pseudopotential
        S              6.00    32.06500     S ( 1.00)
        Zn            12.00    65.38000     Zn( 1.00)

     24 Sym. Ops. (no inversion) found


                                    s                        frac. trans.

      isym =  1     identity                                     

 cryst.   s( 1) = (     1          0          0      )
                  (     0          1          0      )
                  (     0          0          1      )

 cart.    s( 1) = (  1.0000000  0.0000000  0.0000000 )
                  (  0.0000000  1.0000000  0.0000000 )
                  (  0.0000000  0.0000000  1.0000000 )


      isym =  2     180 deg rotation - cart. axis [0,0,1]        

 cryst.   s( 2) = (    -1          0          0      )
                  (     0         -1          0      )
                  (     0          0          1      )

 cart.    s( 2) = ( -1.0000000  0.0000000  0.0000000 )
                  (  0.0000000 -1.0000000  0.0000000 )
                  (  0.0000000  0.0000000  1.0000000 )


      isym =  3     180 deg rotation - cart. axis [0,1,0]        

 cryst.   s( 3) = (    -1          0          0      )
                  (     0          1          0      )
                  (     0          0         -1      )

 cart.    s( 3) = ( -1.0000000  0.0000000  0.0000000 )
                  (  0.0000000  1.0000000  0.0000000 )
                  (  0.0000000  0.0000000 -1.0000000 )


      isym =  4     180 deg rotation - cart. axis [1,0,0]        

 cryst.   s( 4) = (     1          0          0      )
                  (     0         -1          0      )
                  (     0          0         -1      )

 cart.    s( 4) = (  1.0000000  0.0000000  0.0000000 )
                  (  0.0000000 -1.0000000  0.0000000 )
                  (  0.0000000  0.0000000 -1.0000000 )


      isym =  5     120 deg rotation - cart. axis [-1,-1,-1]     

 cryst.   s( 5) = (     0          0          1      )
                  (     1          0          0      )
                  (     0          1          0      )

 cart.    s( 5) = (  0.0000000  1.0000000  0.0000000 )
                  (  0.0000000  0.0000000  1.0000000 )
                  (  1.0000000  0.0000000  0.0000000 )


      isym =  6     120 deg rotation - cart. axis [-1,1,1]       

 cryst.   s( 6) = (     0          0         -1      )
                  (    -1          0          0      )
                  (     0          1          0      )

 cart.    s( 6) = (  0.0000000 -1.0000000  0.0000000 )
                  (  0.0000000  0.0000000  1.0000000 )
                  ( -1.0000000  0.0000000  0.0000000 )


      isym =  7     120 deg rotation - cart. axis [1,1,-1]       

 cryst.   s( 7) = (     0          0         -1      )
                  (     1          0          0      )
                  (     0         -1          0      )

 cart.    s( 7) = (  0.0000000  1.0000000  0.0000000 )
                  (  0.0000000  0.0000000 -1.0000000 )
                  ( -1.0000000  0.0000000  0.0000000 )


      isym =  8     120 deg rotation - cart. axis [1,-1,1]       

 cryst.   s( 8) = (     0          0          1      )
                  (    -1          0          0      )
                  (     0         -1          0      )

 cart.    s( 8) = (  0.0000000 -1.0000000  0.0000000 )
                  (  0.0000000  0.0000000 -1.0000000 )
                  (  1.0000000  0.0000000  0.0000000 )


      isym =  9     120 deg rotation - cart. axis [1,1,1]        

 cryst.   s( 9) = (     0          1          0      )
                  (     0          0          1      )
                  (     1          0          0      )

 cart.    s( 9) = (  0.0000000  0.0000000  1.0000000 )
                  (  1.0000000  0.0000000  0.0000000 )
                  (  0.0000000  1.0000000  0.0000000 )


      isym = 10     120 deg rotation - cart. axis [-1,1,-1]      

 cryst.   s(10) = (     0         -1          0      )
                  (     0          0         -1      )
                  (     1          0          0      )

 cart.    s(10) = (  0.0000000  0.0000000  1.0000000 )
                  ( -1.0000000  0.0000000  0.0000000 )
                  (  0.0000000 -1.0000000  0.0000000 )


      isym = 11     120 deg rotation - cart. axis [1,-1,-1]      

 cryst.   s(11) = (     0         -1          0      )
                  (     0          0          1      )
                  (    -1          0          0      )

 cart.    s(11) = (  0.0000000  0.0000000 -1.0000000 )
                  ( -1.0000000  0.0000000  0.0000000 )
                  (  0.0000000  1.0000000  0.0000000 )


      isym = 12     120 deg rotation - cart. axis [-1,-1,1]      

 cryst.   s(12) = (     0          1          0      )
                  (     0          0         -1      )
                  (    -1          0          0      )

 cart.    s(12) = (  0.0000000  0.0000000 -1.0000000 )
                  (  1.0000000  0.0000000  0.0000000 )
                  (  0.0000000 -1.0000000  0.0000000 )


      isym = 13     inv. 180 deg rotation - cart. axis [1,1,0]   

 cryst.   s(13) = (     0         -1          0      )
                  (    -1          0          0      )
                  (     0          0          1      )

 cart.    s(13) = (  0.0000000 -1.0000000  0.0000000 )
                  ( -1.0000000  0.0000000  0.0000000 )
                  (  0.0000000  0.0000000  1.0000000 )


      isym = 14     inv. 180 deg rotation - cart. axis [1,-1,0]  

 cryst.   s(14) = (     0          1          0      )
                  (     1          0          0      )
                  (     0          0          1      )

 cart.    s(14) = (  0.0000000  1.0000000  0.0000000 )
                  (  1.0000000  0.0000000  0.0000000 )
                  (  0.0000000  0.0000000  1.0000000 )


      isym = 15     inv.  90 deg rotation - cart. axis [0,0,-1]  

 cryst.   s(15) = (     0          1          0      )
                  (    -1          0          0      )
                  (     0          0         -1      )

 cart.    s(15) = (  0.0000000 -1.0000000  0.0000000 )
                  (  1.0000000  0.0000000  0.0000000 )
                  (  0.0000000  0.0000000 -1.0000000 )


      isym = 16     inv.  90 deg rotation - cart. axis [0,0,1]   

 cryst.   s(16) = (     0         -1          0      )
                  (     1          0          0      )
                  (     0          0         -1      )

 cart.    s(16) = (  0.0000000  1.0000000  0.0000000 )
                  ( -1.0000000  0.0000000  0.0000000 )
                  (  0.0000000  0.0000000 -1.0000000 )


      isym = 17     inv. 180 deg rotation - cart. axis [1,0,1]   

 cryst.   s(17) = (     0          0         -1      )
                  (     0          1          0      )
                  (    -1          0          0      )

 cart.    s(17) = (  0.0000000  0.0000000 -1.0000000 )
                  (  0.0000000  1.0000000  0.0000000 )
                  ( -1.0000000  0.0000000  0.0000000 )


      isym = 18     inv. 180 deg rotation - cart. axis [-1,0,1]  

 cryst.   s(18) = (     0          0          1      )
                  (     0          1          0      )
                  (     1          0          0      )

 cart.    s(18) = (  0.0000000  0.0000000  1.0000000 )
                  (  0.0000000  1.0000000  0.0000000 )
                  (  1.0000000  0.0000000  0.0000000 )


      isym = 19     inv.  90 deg rotation - cart. axis [0,1,0]   

 cryst.   s(19) = (     0          0          1      )
                  (     0         -1          0      )
                  (    -1          0          0      )

 cart.    s(19) = (  0.0000000  0.0000000 -1.0000000 )
                  (  0.0000000 -1.0000000  0.0000000 )
                  (  1.0000000  0.0000000  0.0000000 )


      isym = 20     inv.  90 deg rotation - cart. axis [0,-1,0]  

 cryst.   s(20) = (     0          0         -1      )
                  (     0         -1          0      )
                  (     1          0          0      )

 cart.    s(20) = (  0.0000000  0.0000000  1.0000000 )
                  (  0.0000000 -1.0000000  0.0000000 )
                  ( -1.0000000  0.0000000  0.0000000 )


      isym = 21     inv. 180 deg rotation - cart. axis [0,1,1]   

 cryst.   s(21) = (     1          0          0      )
                  (     0          0         -1      )
                  (     0         -1          0      )

 cart.    s(21) = (  1.0000000  0.0000000  0.0000000 )
                  (  0.0000000  0.0000000 -1.0000000 )
                  (  0.0000000 -1.0000000  0.0000000 )


      isym = 22     inv. 180 deg rotation - cart. axis [0,1,-1]  

 cryst.   s(22) = (     1          0          0      )
                  (     0          0          1      )
                  (     0          1          0      )

 cart.    s(22) = (  1.0000000  0.0000000  0.0000000 )
                  (  0.0000000  0.0000000  1.0000000 )
                  (  0.0000000  1.0000000  0.0000000 )


      isym = 23     inv.  90 deg rotation - cart. axis [-1,0,0]  

 cryst.   s(23) = (    -1          0          0      )
                  (     0          0          1      )
                  (     0         -1          0      )

 cart.    s(23) = ( -1.0000000  0.0000000  0.0000000 )
                  (  0.0000000  0.0000000 -1.0000000 )
                  (  0.0000000  1.0000000  0.0000000 )


      isym = 24     inv.  90 deg rotation - cart. axis [1,0,0]   

 cryst.   s(24) = (    -1          0          0      )
                  (     0          0         -1      )
                  (     0          1          0      )

 cart.    s(24) = ( -1.0000000  0.0000000  0.0000000 )
                  (  0.0000000  0.0000000  1.0000000 )
                  (  0.0000000 -1.0000000  0.0000000 )


     point group T_d (-43m) 
     there are  5 classes
     the character table:

       E     8C3   3C2   6S4   6s_d 
A_1    1.00  1.00  1.00  1.00  1.00
A_2    1.00  1.00  1.00 -1.00 -1.00
E      2.00 -1.00  2.00  0.00  0.00
T_1    3.00  0.00 -1.00  1.00 -1.00
T_2    3.00  0.00 -1.00 -1.00  1.00

     the symmetry operations in each class and the name of the first element:

     E        1
          identity                                               
     8C3      5    7    8    6   12    9   10   11
          120 deg rotation - cart. axis [-1,-1,-1]               
     3C2      2    3    4
          180 deg rotation - cart. axis [0,0,1]                  
     6S4     15   16   20   19   23   24
          inv.  90 deg rotation - cart. axis [0,0,-1]            
     6s_d    13   14   17   18   21   22
          inv. 180 deg rotation - cart. axis [1,1,0]             

   Cartesian axes

     site n.     atom                  positions (alat units)
         1           Zn  tau(   1) = (   0.0000000   0.0000000   0.0000000  )
         2           Zn  tau(   2) = (   0.0000000   0.2500000   0.2500000  )
         3           Zn  tau(   3) = (   0.2500000   0.0000000   0.2500000  )
         4           Zn  tau(   4) = (   0.2500000   0.2500000   0.0000000  )
         5           S   tau(   5) = (   0.1250000   0.3750000   0.3750000  )
         6           S   tau(   6) = (   0.1250000   0.1250000   0.1250000  )
         7           S   tau(   7) = (   0.3750000   0.3750000   0.1250000  )
         8           S   tau(   8) = (   0.3750000   0.1250000   0.3750000  )
         9           Zn  tau(   9) = (   0.0000000   0.0000000   0.5000000  )
        10           Zn  tau(  10) = (   0.0000000   0.2500000   0.7500000  )
        11           Zn  tau(  11) = (   0.2500000   0.0000000   0.7500000  )
        12           Zn  tau(  12) = (   0.2500000   0.2500000   0.5000000  )
        13           S   tau(  13) = (   0.1250000   0.3750000   0.8750000  )
        14           S   tau(  14) = (   0.1250000   0.1250000   0.6250000  )
        15           S   tau(  15) = (   0.3750000   0.3750000   0.6250000  )
        16           S   tau(  16) = (   0.3750000   0.1250000   0.8750000  )
        17           Zn  tau(  17) = (   0.0000000   0.5000000   0.0000000  )
        18           Zn  tau(  18) = (   0.0000000   0.7500000   0.2500000  )
        19           Zn  tau(  19) = (   0.2500000   0.5000000   0.2500000  )
        20           Zn  tau(  20) = (   0.2500000   0.7500000   0.0000000  )
        21           S   tau(  21) = (   0.1250000   0.8750000   0.3750000  )
        22           S   tau(  22) = (   0.1250000   0.6250000   0.1250000  )
        23           S   tau(  23) = (   0.3750000   0.8750000   0.1250000  )
        24           S   tau(  24) = (   0.3750000   0.6250000   0.3750000  )
        25           Zn  tau(  25) = (   0.0000000   0.5000000   0.5000000  )
        26           Zn  tau(  26) = (   0.0000000   0.7500000   0.7500000  )
        27           Zn  tau(  27) = (   0.2500000   0.5000000   0.7500000  )
        28           Zn  tau(  28) = (   0.2500000   0.7500000   0.5000000  )
        29           S   tau(  29) = (   0.1250000   0.8750000   0.8750000  )
        30           S   tau(  30) = (   0.1250000   0.6250000   0.6250000  )
        31           S   tau(  31) = (   0.3750000   0.8750000   0.6250000  )
        32           S   tau(  32) = (   0.3750000   0.6250000   0.8750000  )
        33           Zn  tau(  33) = (   0.5000000   0.0000000   0.0000000  )
        34           Zn  tau(  34) = (   0.5000000   0.2500000   0.2500000  )
        35           Zn  tau(  35) = (   0.7500000   0.0000000   0.2500000  )
        36           Zn  tau(  36) = (   0.7500000   0.2500000   0.0000000  )
        37           S   tau(  37) = (   0.6250000   0.3750000   0.3750000  )
        38           S   tau(  38) = (   0.6250000   0.1250000   0.1250000  )
        39           S   tau(  39) = (   0.8750000   0.3750000   0.1250000  )
        40           S   tau(  40) = (   0.8750000   0.1250000   0.3750000  )
        41           Zn  tau(  41) = (   0.5000000   0.0000000   0.5000000  )
        42           Zn  tau(  42) = (   0.5000000   0.2500000   0.7500000  )
        43           Zn  tau(  43) = (   0.7500000   0.0000000   0.7500000  )
        44           Zn  tau(  44) = (   0.7500000   0.2500000   0.5000000  )
        45           S   tau(  45) = (   0.6250000   0.3750000   0.8750000  )
        46           S   tau(  46) = (   0.6250000   0.1250000   0.6250000  )
        47           S   tau(  47) = (   0.8750000   0.3750000   0.6250000  )
        48           S   tau(  48) = (   0.8750000   0.1250000   0.8750000  )
        49           Zn  tau(  49) = (   0.5000000   0.5000000   0.0000000  )
        50           Zn  tau(  50) = (   0.5000000   0.7500000   0.2500000  )
        51           Zn  tau(  51) = (   0.7500000   0.5000000   0.2500000  )
        52           Zn  tau(  52) = (   0.7500000   0.7500000   0.0000000  )
        53           S   tau(  53) = (   0.6250000   0.8750000   0.3750000  )
        54           S   tau(  54) = (   0.6250000   0.6250000   0.1250000  )
        55           S   tau(  55) = (   0.8750000   0.8750000   0.1250000  )
        56           S   tau(  56) = (   0.8750000   0.6250000   0.3750000  )
        57           Zn  tau(  57) = (   0.5000000   0.5000000   0.5000000  )
        58           Zn  tau(  58) = (   0.5000000   0.7500000   0.7500000  )
        59           Zn  tau(  59) = (   0.7500000   0.5000000   0.7500000  )
        60           Zn  tau(  60) = (   0.7500000   0.7500000   0.5000000  )
        61           S   tau(  61) = (   0.6250000   0.8750000   0.8750000  )
        62           S   tau(  62) = (   0.6250000   0.6250000   0.6250000  )
        63           S   tau(  63) = (   0.8750000   0.8750000   0.6250000  )
        64           S   tau(  64) = (   0.8750000   0.6250000   0.8750000  )

   Crystallographic axes

     site n.     atom                  positions (cryst. coord.)
         1           Zn  tau(   1) = (  0.0000000  0.0000000  0.0000000  )
         2           Zn  tau(   2) = (  0.0000000  0.2500000  0.2500000  )
         3           Zn  tau(   3) = (  0.2500000  0.0000000  0.2500000  )
         4           Zn  tau(   4) = (  0.2500000  0.2500000  0.0000000  )
         5           S   tau(   5) = (  0.1250000  0.3750000  0.3750000  )
         6           S   tau(   6) = (  0.1250000  0.1250000  0.1250000  )
         7           S   tau(   7) = (  0.3750000  0.3750000  0.1250000  )
         8           S   tau(   8) = (  0.3750000  0.1250000  0.3750000  )
         9           Zn  tau(   9) = (  0.0000000  0.0000000  0.5000000  )
        10           Zn  tau(  10) = (  0.0000000  0.2500000  0.7500000  )
        11           Zn  tau(  11) = (  0.2500000  0.0000000  0.7500000  )
        12           Zn  tau(  12) = (  0.2500000  0.2500000  0.5000000  )
        13           S   tau(  13) = (  0.1250000  0.3750000  0.8750000  )
        14           S   tau(  14) = (  0.1250000  0.1250000  0.6250000  )
        15           S   tau(  15) = (  0.3750000  0.3750000  0.6250000  )
        16           S   tau(  16) = (  0.3750000  0.1250000  0.8750000  )
        17           Zn  tau(  17) = (  0.0000000  0.5000000  0.0000000  )
        18           Zn  tau(  18) = (  0.0000000  0.7500000  0.2500000  )
        19           Zn  tau(  19) = (  0.2500000  0.5000000  0.2500000  )
        20           Zn  tau(  20) = (  0.2500000  0.7500000  0.0000000  )
        21           S   tau(  21) = (  0.1250000  0.8750000  0.3750000  )
        22           S   tau(  22) = (  0.1250000  0.6250000  0.1250000  )
        23           S   tau(  23) = (  0.3750000  0.8750000  0.1250000  )
        24           S   tau(  24) = (  0.3750000  0.6250000  0.3750000  )
        25           Zn  tau(  25) = (  0.0000000  0.5000000  0.5000000  )
        26           Zn  tau(  26) = (  0.0000000  0.7500000  0.7500000  )
        27           Zn  tau(  27) = (  0.2500000  0.5000000  0.7500000  )
        28           Zn  tau(  28) = (  0.2500000  0.7500000  0.5000000  )
        29           S   tau(  29) = (  0.1250000  0.8750000  0.8750000  )
        30           S   tau(  30) = (  0.1250000  0.6250000  0.6250000  )
        31           S   tau(  31) = (  0.3750000  0.8750000  0.6250000  )
        32           S   tau(  32) = (  0.3750000  0.6250000  0.8750000  )
        33           Zn  tau(  33) = (  0.5000000  0.0000000  0.0000000  )
        34           Zn  tau(  34) = (  0.5000000  0.2500000  0.2500000  )
        35           Zn  tau(  35) = (  0.7500000  0.0000000  0.2500000  )
        36           Zn  tau(  36) = (  0.7500000  0.2500000  0.0000000  )
        37           S   tau(  37) = (  0.6250000  0.3750000  0.3750000  )
        38           S   tau(  38) = (  0.6250000  0.1250000  0.1250000  )
        39           S   tau(  39) = (  0.8750000  0.3750000  0.1250000  )
        40           S   tau(  40) = (  0.8750000  0.1250000  0.3750000  )
        41           Zn  tau(  41) = (  0.5000000  0.0000000  0.5000000  )
        42           Zn  tau(  42) = (  0.5000000  0.2500000  0.7500000  )
        43           Zn  tau(  43) = (  0.7500000  0.0000000  0.7500000  )
        44           Zn  tau(  44) = (  0.7500000  0.2500000  0.5000000  )
        45           S   tau(  45) = (  0.6250000  0.3750000  0.8750000  )
        46           S   tau(  46) = (  0.6250000  0.1250000  0.6250000  )
        47           S   tau(  47) = (  0.8750000  0.3750000  0.6250000  )
        48           S   tau(  48) = (  0.8750000  0.1250000  0.8750000  )
        49           Zn  tau(  49) = (  0.5000000  0.5000000  0.0000000  )
        50           Zn  tau(  50) = (  0.5000000  0.7500000  0.2500000  )
        51           Zn  tau(  51) = (  0.7500000  0.5000000  0.2500000  )
        52           Zn  tau(  52) = (  0.7500000  0.7500000  0.0000000  )
        53           S   tau(  53) = (  0.6250000  0.8750000  0.3750000  )
        54           S   tau(  54) = (  0.6250000  0.6250000  0.1250000  )
        55           S   tau(  55) = (  0.8750000  0.8750000  0.1250000  )
        56           S   tau(  56) = (  0.8750000  0.6250000  0.3750000  )
        57           Zn  tau(  57) = (  0.5000000  0.5000000  0.5000000  )
        58           Zn  tau(  58) = (  0.5000000  0.7500000  0.7500000  )
        59           Zn  tau(  59) = (  0.7500000  0.5000000  0.7500000  )
        60           Zn  tau(  60) = (  0.7500000  0.7500000  0.5000000  )
        61           S   tau(  61) = (  0.6250000  0.8750000  0.8750000  )
        62           S   tau(  62) = (  0.6250000  0.6250000  0.6250000  )
        63           S   tau(  63) = (  0.8750000  0.8750000  0.6250000  )
        64           S   tau(  64) = (  0.8750000  0.6250000  0.8750000  )

     number of k points=    10 (tetrahedron method)
                       cart. coord. in units 2pi/alat
        k(    1) = (   0.0000000   0.0000000   0.0000000), wk =   0.0312500
        k(    2) = (   0.0000000   0.0000000   0.2500000), wk =   0.1875000
        k(    3) = (   0.0000000   0.0000000  -0.5000000), wk =   0.0937500
        k(    4) = (   0.0000000   0.2500000   0.2500000), wk =   0.3750000
        k(    5) = (   0.0000000   0.2500000  -0.5000000), wk =   0.3750000
        k(    6) = (   0.0000000  -0.5000000  -0.5000000), wk =   0.0937500
        k(    7) = (   0.2500000   0.2500000   0.2500000), wk =   0.2500000
        k(    8) = (   0.2500000   0.2500000  -0.5000000), wk =   0.3750000
        k(    9) = (   0.2500000  -0.5000000  -0.5000000), wk =   0.1875000
        k(   10) = (  -0.5000000  -0.5000000  -0.5000000), wk =   0.0312500

                       cryst. coord.
        k(    1) = (   0.0000000   0.0000000   0.0000000), wk =   0.0312500
        k(    2) = (   0.0000000   0.0000000   0.2500000), wk =   0.1875000
        k(    3) = (   0.0000000   0.0000000  -0.5000000), wk =   0.0937500
        k(    4) = (   0.0000000   0.2500000   0.2500000), wk =   0.3750000
        k(    5) = (   0.0000000   0.2500000  -0.5000000), wk =   0.3750000
        k(    6) = (   0.0000000  -0.5000000  -0.5000000), wk =   0.0937500
        k(    7) = (   0.2500000   0.2500000   0.2500000), wk =   0.2500000
        k(    8) = (   0.2500000   0.2500000  -0.5000000), wk =   0.3750000
        k(    9) = (   0.2500000  -0.5000000  -0.5000000), wk =   0.1875000
        k(   10) = (  -0.5000000  -0.5000000  -0.5000000), wk =   0.0312500

     Dense  grid:  1264415 G-vectors     FFT dimensions: ( 135, 135, 135)

     Dynamical RAM for                 wfc:       7.43 MB

     Dynamical RAM for     wfc (w. buffer):       7.43 MB

     Dynamical RAM for             U proj.:       5.51 MB

     Dynamical RAM for  U proj. (w. buff.):       5.51 MB

     Dynamical RAM for           str. fact:       0.34 MB

     Dynamical RAM for           local pot:       0.00 MB

     Dynamical RAM for          nlocal pot:      24.80 MB

     Dynamical RAM for                qrad:       3.29 MB

     Dynamical RAM for          rho,v,vnew:       1.35 MB

     Dynamical RAM for           G-vectors:       0.73 MB

     Dynamical RAM for          h,s,v(r/c):       2.42 MB

     Dynamical RAM for          <psi|beta>:       6.06 MB

     Dynamical RAM for                 psi:      14.86 MB

     Dynamical RAM for                hpsi:      14.86 MB

     Dynamical RAM for                spsi:      14.86 MB

     Dynamical RAM for      wfcinit/wfcrot:      17.58 MB

     Dynamical RAM for           addusdens:       3.91 MB

     Estimated static dynamical RAM per process >      45.37 MB

     Estimated max dynamical RAM per process >      98.42 MB

     Estimated total dynamical RAM >     107.65 GB

     The potential is recalculated from file :
     ./out/ZnS_hub.save/charge-density


     HUBBARD ENERGY =    9.8449  (Ry)

     STARTING HUBBARD OCCUPATIONS:

     =================== HUBBARD OCCUPATIONS ===================
     ------------------------ ATOM    1 ------------------------
     Tr[ns(  1)] =   9.96184
     eigenvalues:
       0.995  0.995  0.995  0.998  0.998
     eigenvectors (columns):
       0.000  0.000 -0.000 -0.053 -0.999
       0.345 -0.048 -0.938  0.000  0.000
       0.613 -0.745  0.263  0.000  0.000
      -0.000 -0.000  0.000  0.999 -0.053
      -0.711 -0.666 -0.228 -0.000 -0.000
     occupation matrix ns (before diag.):
       0.998 -0.000 -0.000  0.000  0.000
      -0.000  0.995 -0.000  0.000  0.000
      -0.000 -0.000  0.995  0.000  0.000
       0.000  0.000  0.000  0.998 -0.000
       0.000  0.000  0.000 -0.000  0.995
     ------------------------ ATOM    2 ------------------------
     Tr[ns(  2)] =   9.96184
     eigenvalues:
       0.995  0.995  0.995  0.998  0.998
     eigenvectors (columns):
      -0.000 -0.000 -0.000 -0.866 -0.500
       0.609 -0.707  0.360  0.000 -0.000
       0.509 -0.000 -0.861 -0.000  0.000
       0.000 -0.000  0.000 -0.500  0.866
      -0.609 -0.707 -0.360  0.000  0.000
     occupation matrix ns (before diag.):
       0.998 -0.000 -0.000 -0.000 -0.000
      -0.000  0.995 -0.000 -0.000  0.000
      -0.000 -0.000  0.995  0.000  0.000
      -0.000 -0.000  0.000  0.998  0.000
      -0.000  0.000  0.000  0.000  0.995
     ------------------------ ATOM    3 ------------------------
     Tr[ns(  3)] =   9.96184
     eigenvalues:
       0.995  0.995  0.995  0.998  0.998
     eigenvectors (columns):
      -0.000 -0.000 -0.000 -0.866 -0.500
       0.509 -0.000 -0.861  0.000  0.000
       0.609 -0.707  0.360  0.000 -0.000
      -0.000  0.000 -0.000  0.500 -0.866
      -0.609 -0.707 -0.360  0.000  0.000
     occupation matrix ns (before diag.):
       0.998 -0.000 -0.000  0.000 -0.000
      -0.000  0.995 -0.000 -0.000  0.000
      -0.000 -0.000  0.995  0.000  0.000
       0.000 -0.000  0.000  0.998 -0.000
      -0.000  0.000  0.000 -0.000  0.995
     ------------------------ ATOM    4 ------------------------
     Tr[ns(  4)] =   9.96184
     eigenvalues:
       0.995  0.995  0.995  0.998  0.998
     eigenvectors (columns):
       0.000 -0.000  0.000 -0.000  1.000
       0.609 -0.707  0.360 -0.000 -0.000
       0.609  0.707  0.360  0.000 -0.000
      -0.000 -0.000  0.000  1.000  0.000
      -0.509  0.000  0.861 -0.000 -0.000
     occupation matrix ns (before diag.):
       0.998 -0.000 -0.000  0.000 -0.000
      -0.000  0.995 -0.000 -0.000  0.000
      -0.000 -0.000  0.995  0.000  0.000
       0.000 -0.000  0.000  0.998 -0.000
      -0.000  0.000  0.000 -0.000  0.995
     ------------------------ ATOM    5 ------------------------
     Tr[ns(  5)] =   4.84902
     eigenvalues:
       0.808  0.808  0.808
     eigenvectors (columns):
       0.555  0.707 -0.438
      -0.619 -0.000 -0.785
      -0.555  0.707  0.438
     occupation matrix ns (before diag.):
       0.808  0.000 -0.000
       0.000  0.808 -0.000
      -0.000 -0.000  0.808
     ------------------------ ATOM    6 ------------------------
     Tr[ns(  6)] =   4.84902
     eigenvalues:
       0.808  0.808  0.808
     eigenvectors (columns):
      -0.577  0.707  0.408
       0.577  0.707 -0.408
       0.577  0.000  0.816
     occupation matrix ns (before diag.):
       0.808  0.000  0.000
       0.000  0.808 -0.000
       0.000 -0.000  0.808
     ------------------------ ATOM    7 ------------------------
     Tr[ns(  7)] =   4.84902
     eigenvalues:
       0.808  0.808  0.808
     eigenvectors (columns):
      -0.619  0.000  0.785
       0.555 -0.707  0.438
       0.555  0.707  0.438
     occupation matrix ns (before diag.):
       0.808  0.000  0.000
       0.000  0.808  0.000
       0.000  0.000  0.808
     ------------------------ ATOM    8 ------------------------
     Tr[ns(  8)] =   4.84902
     eigenvalues:
       0.808  0.808  0.808
     eigenvectors (columns):
      -0.555  0.707  0.438
       0.555  0.707 -0.438
       0.619 -0.000  0.785
     occupation matrix ns (before diag.):
       0.808 -0.000  0.000
      -0.000  0.808 -0.000
       0.000 -0.000  0.808
     ------------------------ ATOM    9 ------------------------
     Tr[ns(  9)] =   9.96184
     eigenvalues:
       0.995  0.995  0.995  0.998  0.998
     eigenvectors (columns):
      -0.000  0.000 -0.000 -1.000  0.000
      -0.000  0.479 -0.878  0.000  0.000
      -0.000  0.878  0.479  0.000  0.000
       0.000 -0.000  0.000  0.000  1.000
       1.000  0.000 -0.000 -0.000 -0.000
     occupation matrix ns (before diag.):
       0.998 -0.000 -0.000  0.000  0.000
      -0.000  0.995 -0.000  0.000  0.000
      -0.000 -0.000  0.995  0.000  0.000
       0.000  0.000  0.000  0.998 -0.000
       0.000  0.000  0.000 -0.000  0.995
     ------------------------ ATOM   10 ------------------------
     Tr[ns( 10)] =   9.96184
     eigenvalues:
       0.995  0.995  0.995  0.998  0.998
     eigenvectors (columns):
      -0.000 -0.000 -0.000 -0.866 -0.500
       0.609 -0.707  0.360  0.000 -0.000
      -0.509  0.000  0.861  0.000 -0.000
       0.000 -0.000  0.000 -0.500  0.866
       0.609  0.707  0.360 -0.000 -0.000
     occupation matrix ns (before diag.):
       0.998 -0.000  0.000 -0.000  0.000
      -0.000  0.995  0.000 -0.000 -0.000
       0.000  0.000  0.995 -0.000  0.000
      -0.000 -0.000 -0.000  0.998 -0.000
       0.000 -0.000  0.000 -0.000  0.995
     ------------------------ ATOM   11 ------------------------
     Tr[ns( 11)] =   9.96184
     eigenvalues:
       0.995  0.995  0.995  0.998  0.998
     eigenvectors (columns):
      -0.000 -0.000 -0.000 -0.866 -0.500
      -0.509 -0.000  0.861  0.000 -0.000
       0.609 -0.707  0.360  0.000 -0.000
      -0.000  0.000 -0.000  0.500 -0.866
       0.609  0.707  0.360 -0.000 -0.000
     occupation matrix ns (before diag.):
       0.998  0.000 -0.000  0.000  0.000
       0.000  0.995  0.000  0.000  0.000
      -0.000  0.000  0.995  0.000 -0.000
       0.000  0.000  0.000  0.998  0.000
       0.000  0.000 -0.000  0.000  0.995
     ------------------------ ATOM   12 ------------------------
     Tr[ns( 12)] =   9.96184
     eigenvalues:
       0.995  0.995  0.995  0.998  0.998
     eigenvectors (columns):
      -0.000  0.000  0.000  0.000  1.000
      -0.487  0.707  0.513  0.000 -0.000
      -0.487 -0.707  0.513 -0.000 -0.000
       0.000  0.000  0.000 -1.000  0.000
       0.725 -0.000  0.689  0.000  0.000
     occupation matrix ns (before diag.):
       0.998 -0.000 -0.000  0.000  0.000
      -0.000  0.995  0.000 -0.000  0.000
      -0.000  0.000  0.995  0.000  0.000
       0.000 -0.000  0.000  0.998 -0.000
       0.000  0.000  0.000 -0.000  0.995
     ------------------------ ATOM   13 ------------------------
     Tr[ns( 13)] =   4.84902
     eigenvalues:
       0.808  0.808  0.808
     eigenvectors (columns):
       0.603  0.369 -0.707
       0.603  0.369  0.707
      -0.522  0.853 -0.000
     occupation matrix ns (before diag.):
       0.808 -0.000  0.000
      -0.000  0.808  0.000
       0.000  0.000  0.808
     ------------------------ ATOM   14 ------------------------
     Tr[ns( 14)] =   4.84902
     eigenvalues:
       0.808  0.808  0.808
     eigenvectors (columns):
      -0.522  0.853 -0.000
       0.603  0.369  0.707
       0.603  0.369 -0.707
     occupation matrix ns (before diag.):
       0.808  0.000  0.000
       0.000  0.808 -0.000
       0.000 -0.000  0.808
     ------------------------ ATOM   15 ------------------------
     Tr[ns( 15)] =   4.84902
     eigenvalues:
       0.808  0.808  0.808
     eigenvectors (columns):
       0.617  0.534  0.577
       0.154 -0.802  0.577
      -0.771  0.267  0.577
     occupation matrix ns (before diag.):
       0.808  0.000  0.000
       0.000  0.808  0.000
       0.000  0.000  0.808
     ------------------------ ATOM   16 ------------------------
     Tr[ns( 16)] =   4.84902
     eigenvalues:
       0.808  0.808  0.808
     eigenvectors (columns):
       0.603  0.369 -0.707
      -0.522  0.853  0.000
       0.603  0.369  0.707
     occupation matrix ns (before diag.):
       0.808  0.000 -0.000
       0.000  0.808  0.000
      -0.000  0.000  0.808
     ------------------------ ATOM   17 ------------------------
     Tr[ns( 17)] =   9.96184
     eigenvalues:
       0.995  0.995  0.995  0.998  0.998
     eigenvectors (columns):
       0.000 -0.000  0.000 -0.500  0.866
       1.000  0.000 -0.000 -0.000 -0.000
       0.000 -0.723 -0.691 -0.000 -0.000
      -0.000  0.000 -0.000 -0.866 -0.500
      -0.000  0.691 -0.723  0.000  0.000
     occupation matrix ns (before diag.):
       0.998 -0.000 -0.000 -0.000  0.000
      -0.000  0.995 -0.000  0.000  0.000
      -0.000 -0.000  0.995  0.000  0.000
      -0.000  0.000  0.000  0.998 -0.000
       0.000  0.000  0.000 -0.000  0.995
     ------------------------ ATOM   18 ------------------------
     Tr[ns( 18)] =   9.96184
     eigenvalues:
       0.995  0.995  0.995  0.998  0.998
     eigenvectors (columns):
      -0.000 -0.000 -0.000 -0.866 -0.500
      -0.609  0.707 -0.360 -0.000  0.000
      -0.509  0.000  0.861  0.000 -0.000
       0.000 -0.000  0.000 -0.500  0.866
      -0.609 -0.707 -0.360  0.000  0.000
     occupation matrix ns (before diag.):
       0.998  0.000  0.000 -0.000 -0.000
       0.000  0.995 -0.000  0.000 -0.000
       0.000 -0.000  0.995 -0.000 -0.000
      -0.000  0.000 -0.000  0.998  0.000
      -0.000 -0.000 -0.000  0.000  0.995
     ------------------------ ATOM   19 ------------------------
     Tr[ns( 19)] =   9.96184
     eigenvalues:
       0.995  0.995  0.995  0.998  0.998
     eigenvectors (columns):
      -0.000 -0.000 -0.000  0.866  0.500
       0.725 -0.000 -0.689 -0.000  0.000
       0.487 -0.707  0.513 -0.000  0.000
      -0.000  0.000 -0.000 -0.500  0.866
      -0.487 -0.707 -0.513 -0.000 -0.000
     occupation matrix ns (before diag.):
       0.998  0.000 -0.000  0.000 -0.000
       0.000  0.995 -0.000  0.000  0.000
      -0.000 -0.000  0.995  0.000 -0.000
       0.000  0.000  0.000  0.998 -0.000
      -0.000  0.000 -0.000 -0.000  0.995
     ------------------------ ATOM   20 ------------------------
     Tr[ns( 20)] =   9.96184
     eigenvalues:
       0.995  0.995  0.995  0.998  0.998
     eigenvectors (columns):
      -0.000 -0.000 -0.000 -0.000  1.000
       0.609 -0.707  0.360 -0.000  0.000
      -0.609 -0.707 -0.360 -0.000 -0.000
      -0.000  0.000  0.000 -1.000 -0.000
      -0.509  0.000  0.861  0.000  0.000
     occupation matrix ns (before diag.):
       0.998  0.000 -0.000  0.000  0.000
       0.000  0.995  0.000  0.000  0.000
      -0.000  0.000  0.995  0.000 -0.000
       0.000  0.000  0.000  0.998 -0.000
       0.000  0.000 -0.000 -0.000  0.995
     ------------------------ ATOM   21 ------------------------
     Tr[ns( 21)] =   4.84902
     eigenvalues:
       0.808  0.808  0.808
     eigenvectors (columns):
      -0.522  0.853 -0.000
      -0.603 -0.369  0.707
       0.603  0.369  0.707
     occupation matrix ns (before diag.):
       0.808 -0.000  0.000
      -0.000  0.808  0.000
       0.000  0.000  0.808
     ------------------------ ATOM   22 ------------------------
     Tr[ns( 22)] =   4.84902
     eigenvalues:
       0.808  0.808  0.808
     eigenvectors (columns):
      -0.603  0.369 -0.707
       0.603 -0.369 -0.707
       0.522  0.853  0.000
     occupation matrix ns (before diag.):
       0.808  0.000  0.000
       0.000  0.808 -0.000
       0.000 -0.000  0.808
     ------------------------ ATOM   23 ------------------------
     Tr[ns( 23)] =   4.84902
     eigenvalues:
       0.808  0.808  0.808
     eigenvectors (columns):
       0.603  0.369  0.707
       0.522 -0.853 -0.000
       0.603  0.369 -0.707
     occupation matrix ns (before diag.):
       0.808 -0.000 -0.000
      -0.000  0.808 -0.000
      -0.000 -0.000  0.808
     ------------------------ ATOM   24 ------------------------
     Tr[ns( 24)] =   4.84902
     eigenvalues:
       0.808  0.808  0.808
     eigenvectors (columns):
       0.247 -0.778  0.577
       0.798 -0.175 -0.577
       0.550  0.603  0.577
     occupation matrix ns (before diag.):
       0.808 -0.000  0.000
      -0.000  0.808 -0.000
       0.000 -0.000  0.808
     ------------------------ ATOM   25 ------------------------
     Tr[ns( 25)] =   9.96184
     eigenvalues:
       0.995  0.995  0.995  0.998  0.998
     eigenvectors (columns):
      -0.000 -0.000  0.000 -0.866  0.500
      -0.374 -0.927 -0.000  0.000 -0.000
      -0.000 -0.000  1.000  0.000 -0.000
       0.000  0.000 -0.000 -0.500 -0.866
       0.927 -0.374  0.000  0.000  0.000
     occupation matrix ns (before diag.):
       0.998 -0.000 -0.000 -0.000  0.000
      -0.000  0.995 -0.000  0.000  0.000
      -0.000 -0.000  0.995  0.000  0.000
      -0.000  0.000  0.000  0.998 -0.000
       0.000  0.000  0.000 -0.000  0.995
     ------------------------ ATOM   26 ------------------------
     Tr[ns( 26)] =   9.96184
     eigenvalues:
       0.995  0.995  0.995  0.998  0.998
     eigenvectors (columns):
      -0.000 -0.000 -0.000 -0.866 -0.500
      -0.609  0.707 -0.360 -0.000  0.000
       0.509 -0.000 -0.861 -0.000  0.000
       0.000 -0.000  0.000 -0.500  0.866
       0.609  0.707  0.360 -0.000 -0.000
     occupation matrix ns (before diag.):
       0.998  0.000 -0.000 -0.000  0.000
       0.000  0.995  0.000  0.000  0.000
      -0.000  0.000  0.995  0.000 -0.000
      -0.000  0.000  0.000  0.998 -0.000
       0.000  0.000 -0.000 -0.000  0.995
     ------------------------ ATOM   27 ------------------------
     Tr[ns( 27)] =   9.96184
     eigenvalues:
       0.995  0.995  0.995  0.998  0.998
     eigenvectors (columns):
      -0.000 -0.000 -0.000  0.866  0.500
      -0.725  0.000  0.689 -0.000 -0.000
       0.487 -0.707  0.513 -0.000  0.000
      -0.000  0.000 -0.000 -0.500  0.866
       0.487  0.707  0.513  0.000  0.000
     occupation matrix ns (before diag.):
       0.998 -0.000 -0.000  0.000  0.000
      -0.000  0.995  0.000 -0.000  0.000
      -0.000  0.000  0.995  0.000  0.000
       0.000 -0.000  0.000  0.998  0.000
       0.000  0.000  0.000  0.000  0.995
     ------------------------ ATOM   28 ------------------------
     Tr[ns( 28)] =   9.96184
     eigenvalues:
       0.995  0.995  0.995  0.998  0.998
     eigenvectors (columns):
      -0.000  0.000  0.000  0.000  1.000
       0.487  0.707 -0.513  0.000  0.000
      -0.487  0.707  0.513  0.000 -0.000
      -0.000 -0.000 -0.000  1.000 -0.000
      -0.725 -0.000 -0.689 -0.000 -0.000
     occupation matrix ns (before diag.):
       0.998  0.000 -0.000  0.000 -0.000
       0.000  0.995 -0.000  0.000  0.000
      -0.000 -0.000  0.995  0.000 -0.000
       0.000  0.000  0.000  0.998 -0.000
      -0.000  0.000 -0.000 -0.000  0.995
     ------------------------ ATOM   29 ------------------------
     Tr[ns( 29)] =   4.84902
     eigenvalues:
       0.808  0.808  0.808
     eigenvectors (columns):
       0.577  0.334 -0.745
       0.577  0.478  0.662
      -0.577  0.812 -0.083
     occupation matrix ns (before diag.):
       0.808 -0.000  0.000
      -0.000  0.808  0.000
       0.000  0.000  0.808
     ------------------------ ATOM   30 ------------------------
     Tr[ns( 30)] =   4.84902
     eigenvalues:
       0.808  0.808  0.808
     eigenvectors (columns):
      -0.555  0.707 -0.438
      -0.619 -0.000  0.785
       0.555  0.707  0.438
     occupation matrix ns (before diag.):
       0.808 -0.000 -0.000
      -0.000  0.808  0.000
      -0.000  0.000  0.808
     ------------------------ ATOM   31 ------------------------
     Tr[ns( 31)] =   4.84902
     eigenvalues:
       0.808  0.808  0.808
     eigenvectors (columns):
       0.555  0.707  0.438
       0.555 -0.707  0.438
      -0.619 -0.000  0.785
     occupation matrix ns (before diag.):
       0.808  0.000  0.000
       0.000  0.808  0.000
       0.000  0.000  0.808
     ------------------------ ATOM   32 ------------------------
     Tr[ns( 32)] =   4.84902
     eigenvalues:
       0.808  0.808  0.808
     eigenvectors (columns):
       0.619 -0.000  0.785
       0.555  0.707 -0.438
      -0.555  0.707  0.438
     occupation matrix ns (before diag.):
       0.808 -0.000  0.000
      -0.000  0.808 -0.000
       0.000 -0.000  0.808
     ------------------------ ATOM   33 ------------------------
     Tr[ns( 33)] =   9.96184
     eigenvalues:
       0.995  0.995  0.995  0.998  0.998
     eigenvectors (columns):
      -0.000 -0.000 -0.000  0.500 -0.866
      -0.000 -0.374 -0.927 -0.000  0.000
      -1.000  0.000  0.000 -0.000  0.000
       0.000  0.000  0.000 -0.866 -0.500
       0.000  0.927 -0.374  0.000  0.000
     occupation matrix ns (before diag.):
       0.998 -0.000 -0.000  0.000  0.000
      -0.000  0.995 -0.000  0.000  0.000
      -0.000 -0.000  0.995  0.000  0.000
       0.000  0.000  0.000  0.998 -0.000
       0.000  0.000  0.000 -0.000  0.995
     ------------------------ ATOM   34 ------------------------
     Tr[ns( 34)] =   9.96184
     eigenvalues:
       0.995  0.995  0.995  0.998  0.998
     eigenvectors (columns):
      -0.000 -0.000 -0.000  0.866  0.500
       0.487 -0.707  0.513 -0.000  0.000
       0.725 -0.000 -0.689 -0.000  0.000
       0.000 -0.000  0.000  0.500 -0.866
      -0.487 -0.707 -0.513 -0.000 -0.000
     occupation matrix ns (before diag.):
       0.998 -0.000  0.000 -0.000 -0.000
      -0.000  0.995 -0.000 -0.000 -0.000
       0.000 -0.000  0.995 -0.000  0.000
      -0.000 -0.000 -0.000  0.998  0.000
      -0.000 -0.000  0.000  0.000  0.995
     ------------------------ ATOM   35 ------------------------
     Tr[ns( 35)] =   9.96184
     eigenvalues:
       0.995  0.995  0.995  0.998  0.998
     eigenvectors (columns):
      -0.000 -0.000 -0.000 -0.866 -0.500
      -0.509  0.000  0.861  0.000 -0.000
      -0.609  0.707 -0.360 -0.000  0.000
      -0.000  0.000 -0.000  0.500 -0.866
      -0.609 -0.707 -0.360  0.000  0.000
     occupation matrix ns (before diag.):
       0.998  0.000  0.000  0.000 -0.000
       0.000  0.995 -0.000  0.000 -0.000
       0.000 -0.000  0.995 -0.000 -0.000
       0.000  0.000 -0.000  0.998 -0.000
      -0.000 -0.000 -0.000 -0.000  0.995
     ------------------------ ATOM   36 ------------------------
     Tr[ns( 36)] =   9.96184
     eigenvalues:
       0.995  0.995  0.995  0.998  0.998
     eigenvectors (columns):
      -0.000  0.000 -0.000 -0.000  1.000
      -0.609  0.707 -0.360  0.000 -0.000
       0.609  0.707  0.360  0.000  0.000
       0.000  0.000  0.000 -1.000 -0.000
      -0.509 -0.000  0.861  0.000  0.000
     occupation matrix ns (before diag.):
       0.998 -0.000  0.000  0.000  0.000
      -0.000  0.995  0.000 -0.000 -0.000
       0.000  0.000  0.995 -0.000  0.000
       0.000 -0.000 -0.000  0.998 -0.000
       0.000 -0.000  0.000 -0.000  0.995
     ------------------------ ATOM   37 ------------------------
     Tr[ns( 37)] =   4.84902
     eigenvalues:
       0.808  0.808  0.808
     eigenvectors (columns):
       0.341  0.742 -0.577
       0.472 -0.666 -0.577
       0.813  0.075  0.577
     occupation matrix ns (before diag.):
       0.808  0.000 -0.000
       0.000  0.808 -0.000
      -0.000 -0.000  0.808
     ------------------------ ATOM   38 ------------------------
     Tr[ns( 38)] =   4.84902
     eigenvalues:
       0.808  0.808  0.808
     eigenvectors (columns):
       0.603  0.369  0.707
      -0.522  0.853 -0.000
      -0.603 -0.369  0.707
     occupation matrix ns (before diag.):
       0.808  0.000  0.000
       0.000  0.808 -0.000
       0.000 -0.000  0.808
     ------------------------ ATOM   39 ------------------------
     Tr[ns( 39)] =   4.84902
     eigenvalues:
       0.808  0.808  0.808
     eigenvectors (columns):
       0.603 -0.369 -0.707
       0.603 -0.369  0.707
       0.522  0.853 -0.000
     occupation matrix ns (before diag.):
       0.808 -0.000 -0.000
      -0.000  0.808 -0.000
      -0.000 -0.000  0.808
     ------------------------ ATOM   40 ------------------------
     Tr[ns( 40)] =   4.84902
     eigenvalues:
       0.808  0.808  0.808
     eigenvectors (columns):
      -0.522  0.853  0.000
       0.603  0.369 -0.707
      -0.603 -0.369 -0.707
     occupation matrix ns (before diag.):
       0.808  0.000 -0.000
       0.000  0.808  0.000
      -0.000  0.000  0.808
     ------------------------ ATOM   41 ------------------------
     Tr[ns( 41)] =   9.96184
     eigenvalues:
       0.995  0.995  0.995  0.998  0.998
     eigenvectors (columns):
      -0.000 -0.000 -0.000  0.866 -0.500
      -0.000  0.000 -1.000 -0.000 -0.000
      -0.666  0.746  0.000 -0.000 -0.000
       0.000  0.000  0.000 -0.500 -0.866
       0.746  0.666 -0.000  0.000  0.000
     occupation matrix ns (before diag.):
       0.998 -0.000 -0.000  0.000  0.000
      -0.000  0.995 -0.000  0.000  0.000
      -0.000 -0.000  0.995  0.000  0.000
       0.000  0.000  0.000  0.998 -0.000
       0.000  0.000  0.000 -0.000  0.995
     ------------------------ ATOM   42 ------------------------
     Tr[ns( 42)] =   9.96184
     eigenvalues:
       0.995  0.995  0.995  0.998  0.998
     eigenvectors (columns):
      -0.000 -0.000 -0.000  0.866  0.500
       0.487 -0.707  0.513 -0.000  0.000
      -0.725  0.000  0.689 -0.000 -0.000
       0.000 -0.000  0.000  0.500 -0.866
       0.487  0.707  0.513  0.000  0.000
     occupation matrix ns (before diag.):
       0.998 -0.000 -0.000 -0.000  0.000
      -0.000  0.995  0.000 -0.000  0.000
      -0.000  0.000  0.995  0.000  0.000
      -0.000 -0.000  0.000  0.998 -0.000
       0.000  0.000  0.000 -0.000  0.995
     ------------------------ ATOM   43 ------------------------
     Tr[ns( 43)] =   9.96184
     eigenvalues:
       0.995  0.995  0.995  0.998  0.998
     eigenvectors (columns):
      -0.000 -0.000 -0.000 -0.866 -0.500
       0.509 -0.000 -0.861  0.000  0.000
      -0.609  0.707 -0.360 -0.000  0.000
      -0.000  0.000 -0.000  0.500 -0.866
       0.609  0.707  0.360 -0.000 -0.000
     occupation matrix ns (before diag.):
       0.998 -0.000  0.000  0.000  0.000
      -0.000  0.995  0.000 -0.000 -0.000
       0.000  0.000  0.995 -0.000  0.000
       0.000 -0.000 -0.000  0.998  0.000
       0.000 -0.000  0.000  0.000  0.995
     ------------------------ ATOM   44 ------------------------
     Tr[ns( 44)] =   9.96184
     eigenvalues:
       0.995  0.995  0.995  0.998  0.998
     eigenvectors (columns):
       0.000 -0.000 -0.000 -0.000  1.000
       0.487 -0.707 -0.513 -0.000 -0.000
      -0.487 -0.707  0.513 -0.000  0.000
       0.000 -0.000  0.000  1.000  0.000
       0.725 -0.000  0.689 -0.000 -0.000
     occupation matrix ns (before diag.):
       0.998 -0.000  0.000  0.000 -0.000
      -0.000  0.995 -0.000 -0.000 -0.000
       0.000 -0.000  0.995 -0.000  0.000
       0.000 -0.000 -0.000  0.998 -0.000
      -0.000 -0.000  0.000 -0.000  0.995
     ------------------------ ATOM   45 ------------------------
     Tr[ns( 45)] =   4.84902
     eigenvalues:
       0.808  0.808  0.808
     eigenvectors (columns):
       0.619 -0.000 -0.785
      -0.555  0.707 -0.438
       0.555  0.707  0.438
     occupation matrix ns (before diag.):
       0.808  0.000 -0.000
       0.000  0.808 -0.000
      -0.000 -0.000  0.808
     ------------------------ ATOM   46 ------------------------
     Tr[ns( 46)] =   4.84902
     eigenvalues:
       0.808  0.808  0.808
     eigenvectors (columns):
      -0.555  0.707 -0.438
       0.555  0.707  0.438
      -0.619  0.000  0.785
     occupation matrix ns (before diag.):
       0.808 -0.000 -0.000
      -0.000  0.808  0.000
      -0.000  0.000  0.808
     ------------------------ ATOM   47 ------------------------
     Tr[ns( 47)] =   4.84902
     eigenvalues:
       0.808  0.808  0.808
     eigenvectors (columns):
      -0.555 -0.707  0.438
       0.619  0.000  0.785
      -0.555  0.707  0.438
     occupation matrix ns (before diag.):
       0.808  0.000  0.000
       0.000  0.808  0.000
       0.000  0.000  0.808
     ------------------------ ATOM   48 ------------------------
     Tr[ns( 48)] =   4.84902
     eigenvalues:
       0.808  0.808  0.808
     eigenvectors (columns):
      -0.577 -0.499 -0.646
       0.577 -0.809  0.109
      -0.577 -0.310  0.755
     occupation matrix ns (before diag.):
       0.808  0.000 -0.000
       0.000  0.808  0.000
      -0.000  0.000  0.808
     ------------------------ ATOM   49 ------------------------
     Tr[ns( 49)] =   9.96184
     eigenvalues:
       0.995  0.995  0.995  0.998  0.998
     eigenvectors (columns):
      -0.000 -0.000  0.000  0.000  1.000
      -0.402 -0.916 -0.000  0.000 -0.000
      -0.916  0.402 -0.000  0.000 -0.000
       0.000  0.000 -0.000  1.000 -0.000
       0.000  0.000 -1.000 -0.000  0.000
     occupation matrix ns (before diag.):
       0.998 -0.000 -0.000  0.000  0.000
      -0.000  0.995 -0.000  0.000  0.000
      -0.000 -0.000  0.995  0.000  0.000
       0.000  0.000  0.000  0.998 -0.000
       0.000  0.000  0.000 -0.000  0.995
     ------------------------ ATOM   50 ------------------------
     Tr[ns( 50)] =   9.96184
     eigenvalues:
       0.995  0.995  0.995  0.998  0.998
     eigenvectors (columns):
      -0.000 -0.000 -0.000  0.866  0.500
      -0.487  0.707 -0.513  0.000 -0.000
      -0.725  0.000  0.689 -0.000 -0.000
       0.000 -0.000  0.000  0.500 -0.866
      -0.487 -0.707 -0.513 -0.000 -0.000
     occupation matrix ns (before diag.):
       0.998  0.000 -0.000 -0.000 -0.000
       0.000  0.995 -0.000  0.000  0.000
      -0.000 -0.000  0.995  0.000 -0.000
      -0.000  0.000  0.000  0.998  0.000
      -0.000  0.000 -0.000  0.000  0.995
     ------------------------ ATOM   51 ------------------------
     Tr[ns( 51)] =   9.96184
     eigenvalues:
       0.995  0.995  0.995  0.998  0.998
     eigenvectors (columns):
      -0.000 -0.000 -0.000  0.866  0.500
      -0.725  0.000  0.689 -0.000 -0.000
      -0.487  0.707 -0.513  0.000 -0.000
      -0.000  0.000 -0.000 -0.500  0.866
      -0.487 -0.707 -0.513 -0.000 -0.000
     occupation matrix ns (before diag.):
       0.998 -0.000  0.000  0.000 -0.000
      -0.000  0.995 -0.000 -0.000 -0.000
       0.000 -0.000  0.995 -0.000  0.000
       0.000 -0.000 -0.000  0.998 -0.000
      -0.000 -0.000  0.000 -0.000  0.995
     ------------------------ ATOM   52 ------------------------
     Tr[ns( 52)] =   9.96184
     eigenvalues:
       0.995  0.995  0.995  0.998  0.998
     eigenvectors (columns):
       0.000  0.000  0.000 -0.000  1.000
      -0.609  0.707 -0.360  0.000  0.000
      -0.609 -0.707 -0.360 -0.000  0.000
       0.000 -0.000  0.000  1.000  0.000
      -0.509  0.000  0.861 -0.000 -0.000
     occupation matrix ns (before diag.):
       0.998  0.000  0.000  0.000 -0.000
       0.000  0.995 -0.000  0.000 -0.000
       0.000 -0.000  0.995 -0.000 -0.000
       0.000  0.000 -0.000  0.998 -0.000
      -0.000 -0.000 -0.000 -0.000  0.995
     ------------------------ ATOM   53 ------------------------
     Tr[ns( 53)] =   4.84902
     eigenvalues:
       0.808  0.808  0.808
     eigenvectors (columns):
       0.555  0.707 -0.438
       0.555 -0.707 -0.438
       0.619  0.000  0.785
     occupation matrix ns (before diag.):
       0.808  0.000 -0.000
       0.000  0.808 -0.000
      -0.000 -0.000  0.808
     ------------------------ ATOM   54 ------------------------
     Tr[ns( 54)] =   4.84902
     eigenvalues:
       0.808  0.808  0.808
     eigenvectors (columns):
      -0.619  0.000 -0.785
      -0.555 -0.707  0.438
      -0.555  0.707  0.438
     occupation matrix ns (before diag.):
       0.808 -0.000 -0.000
      -0.000  0.808  0.000
      -0.000  0.000  0.808
     ------------------------ ATOM   55 ------------------------
     Tr[ns( 55)] =   4.84902
     eigenvalues:
       0.808  0.808  0.808
     eigenvectors (columns):
       0.577 -0.593 -0.562
       0.577 -0.190  0.794
       0.577  0.783 -0.233
     occupation matrix ns (before diag.):
       0.808 -0.000 -0.000
      -0.000  0.808 -0.000
      -0.000 -0.000  0.808
     ------------------------ ATOM   56 ------------------------
     Tr[ns( 56)] =   4.84902
     eigenvalues:
       0.808  0.808  0.808
     eigenvectors (columns):
       0.555 -0.707  0.438
       0.619 -0.000 -0.785
       0.555  0.707  0.438
     occupation matrix ns (before diag.):
       0.808 -0.000  0.000
      -0.000  0.808 -0.000
       0.000 -0.000  0.808
     ------------------------ ATOM   57 ------------------------
     Tr[ns( 57)] =   9.96184
     eigenvalues:
       0.995  0.995  0.995  0.998  0.998
     eigenvectors (columns):
      -0.000  0.000  0.000 -0.086 -0.996
      -0.374 -0.113  0.920  0.000  0.000
      -0.605 -0.722 -0.335  0.000  0.000
       0.000 -0.000 -0.000  0.996 -0.086
       0.703 -0.682  0.202 -0.000 -0.000
     occupation matrix ns (before diag.):
       0.998 -0.000 -0.000  0.000  0.000
      -0.000  0.995 -0.000  0.000  0.000
      -0.000 -0.000  0.995  0.000  0.000
       0.000  0.000  0.000  0.998 -0.000
       0.000  0.000  0.000 -0.000  0.995
     ------------------------ ATOM   58 ------------------------
     Tr[ns( 58)] =   9.96184
     eigenvalues:
       0.995  0.995  0.995  0.998  0.998
     eigenvectors (columns):
      -0.000 -0.000 -0.000  0.866  0.500
      -0.487  0.707 -0.513  0.000 -0.000
       0.725 -0.000 -0.689 -0.000  0.000
       0.000 -0.000  0.000  0.500 -0.866
       0.487  0.707  0.513  0.000  0.000
     occupation matrix ns (before diag.):
       0.998  0.000  0.000 -0.000  0.000
       0.000  0.995  0.000  0.000 -0.000
       0.000  0.000  0.995 -0.000 -0.000
      -0.000  0.000 -0.000  0.998 -0.000
       0.000 -0.000 -0.000 -0.000  0.995
     ------------------------ ATOM   59 ------------------------
     Tr[ns( 59)] =   9.96184
     eigenvalues:
       0.995  0.995  0.995  0.998  0.998
     eigenvectors (columns):
      -0.000 -0.000 -0.000  0.866  0.500
       0.725 -0.000 -0.689 -0.000  0.000
      -0.487  0.707 -0.513  0.000 -0.000
      -0.000  0.000 -0.000 -0.500  0.866
       0.487  0.707  0.513  0.000  0.000
     occupation matrix ns (before diag.):
       0.998  0.000  0.000  0.000  0.000
       0.000  0.995  0.000  0.000 -0.000
       0.000  0.000  0.995 -0.000 -0.000
       0.000  0.000 -0.000  0.998  0.000
       0.000 -0.000 -0.000  0.000  0.995
     ------------------------ ATOM   60 ------------------------
     Tr[ns( 60)] =   9.96184
     eigenvalues:
       0.995  0.995  0.995  0.998  0.998
     eigenvectors (columns):
       0.000 -0.000 -0.000  0.000  1.000
      -0.487 -0.707  0.513 -0.000  0.000
      -0.487  0.707  0.513  0.000  0.000
      -0.000  0.000 -0.000 -1.000  0.000
      -0.725 -0.000 -0.689  0.000  0.000
     occupation matrix ns (before diag.):
       0.998  0.000  0.000  0.000  0.000
       0.000  0.995  0.000  0.000 -0.000
       0.000  0.000  0.995 -0.000 -0.000
       0.000  0.000 -0.000  0.998 -0.000
       0.000 -0.000 -0.000 -0.000  0.995
     ------------------------ ATOM   61 ------------------------
     Tr[ns( 61)] =   4.84902
     eigenvalues:
       0.808  0.808  0.808
     eigenvectors (columns):
       0.603  0.369 -0.707
       0.522 -0.853  0.000
      -0.603 -0.369 -0.707
     occupation matrix ns (before diag.):
       0.808 -0.000  0.000
      -0.000  0.808  0.000
       0.000  0.000  0.808
     ------------------------ ATOM   62 ------------------------
     Tr[ns( 62)] =   4.84902
     eigenvalues:
       0.808  0.808  0.808
     eigenvectors (columns):
       0.779 -0.246 -0.577
       0.602  0.551  0.577
       0.176 -0.797  0.577
     occupation matrix ns (before diag.):
       0.808 -0.000 -0.000
      -0.000  0.808  0.000
      -0.000  0.000  0.808
     ------------------------ ATOM   63 ------------------------
     Tr[ns( 63)] =   4.84902
     eigenvalues:
       0.808  0.808  0.808
     eigenvectors (columns):
      -0.522  0.853  0.000
      -0.603 -0.369 -0.707
      -0.603 -0.369  0.707
     occupation matrix ns (before diag.):
       0.808 -0.000 -0.000
      -0.000  0.808 -0.000
      -0.000 -0.000  0.808
     ------------------------ ATOM   64 ------------------------
     Tr[ns( 64)] =   4.84902
     eigenvalues:
       0.808  0.808  0.808
     eigenvectors (columns):
      -0.603 -0.369 -0.707
       0.603  0.369 -0.707
      -0.522  0.853  0.000
     occupation matrix ns (before diag.):
       0.808  0.000 -0.000
       0.000  0.808  0.000
      -0.000  0.000  0.808

     Number of occupied Hubbard levels =  473.9476

     Atomic wfc used for Hubbard projectors are orthogonalized

     Starting wfcs from file
     Checking if some PAW data can be deallocated... 
       PAW data deallocated on  560 nodes for type:  1
       PAW data deallocated on  560 nodes for type:  2

     Band Structure Calculation
     Davidson diagonalization with overlap

     Computing kpt #:     1  of     1 on this pool
     total cpu time spent up to now is       33.2 secs

     ethr =  1.74E-10,  avg # of iterations = 63.6

     total cpu time spent up to now is       33.2 secs

     End of band structure calculation

          k = 0.0000 0.0000 0.0000 (158355 PWs)   bands (ev):

    -6.8790  -6.3108  -6.3108  -6.3108  -6.3108  -6.3108  -6.3108  -5.9498
    -5.9498  -5.9498  -5.9498  -5.9497  -5.9497  -5.9497  -5.9497  -5.9497
    -5.9497  -5.9497  -5.9497  -5.9325  -5.9325  -5.9325  -5.9325  -5.5828
    -5.5828  -5.5828  -5.5777  -5.5777  -5.5777  -5.5777  -5.5777  -5.5777
    -1.7179  -1.7179  -1.7179  -1.4880  -1.4880  -1.4880  -1.4880  -1.4880
    -1.4880  -1.3347  -1.3347  -1.3347  -1.2592  -1.2592  -1.2592  -1.2592
    -1.2592  -1.2592  -1.2170  -1.2170  -1.2170  -1.2170  -1.2170  -1.2170
    -1.2170  -1.2170  -1.2170  -1.2170  -1.2170  -1.2170  -1.1910  -1.1910
    -1.1910  -1.1910  -1.1910  -1.1910  -1.1910  -1.1910  -1.1630  -1.1630
    -1.1630  -1.1630  -1.1630  -1.1630  -1.1630  -1.1630  -1.1630  -1.1630
    -1.1630  -1.1630  -1.1577  -1.1577  -1.1577  -1.1577  -1.1577  -1.1577
    -1.1577  -1.1577  -1.1577  -1.1577  -1.1577  -1.1577  -1.1507  -1.1507
    -1.1507  -1.1507  -1.1507  -1.1507  -1.1507  -1.1507  -1.1507  -1.1507
    -1.1507  -1.1507  -0.9978  -0.9978  -0.9978  -0.9978  -0.9694  -0.9694
    -0.9694  -0.9694  -0.9694  -0.9694  -0.9324  -0.9324  -0.9324  -0.9324
    -0.9324  -0.9324  -0.9019  -0.9019  -0.9019  -0.9019  -0.9019  -0.9019
    -0.6713  -0.6713  -0.6713  -0.6713  -0.6713  -0.6713  -0.6697  -0.6697
    -0.6697  -0.6697  -0.6697  -0.6697  -0.6548  -0.6548  -0.6548  -0.6548
    -0.6548  -0.6548  -0.6548  -0.6548  -0.6548  -0.6548  -0.6548  -0.6548
    -0.6401  -0.6401  -0.6127  -0.6127  -0.6127  -0.6127  -0.6127  -0.6127
    -0.6127  -0.6127  -0.6072  -0.6072  -0.6072  -0.6072  -0.6072  -0.6072
    -0.5989  -0.5989  -0.5989  -0.5989  -0.5989  -0.5989  -0.5989  -0.5989
    -0.5989  -0.5989  -0.5989  -0.5989  -0.5742  -0.5742  -0.5742  -0.4099
    -0.4099  -0.4099  -0.4099  -0.3760  -0.3760  -0.3760  -0.2090  -0.2090
    -0.2090  -0.2090  -0.2090  -0.2090  -0.1858  -0.1858  -0.1858  -0.1858
    -0.1858  -0.1858   0.0494   0.0494   0.0494   0.5921   0.5921   0.5921
     0.5921   0.5921   0.5921   0.5921   0.5921   0.5921   0.5921   0.5921
     0.5921   1.4100   1.4100   1.4100   1.4101   1.4101   1.4101   1.4384
     1.4384   1.4384   1.4384   1.4384   1.4384   1.6438   1.6438   1.6438
     1.6438   1.6438   1.6438   1.6438   1.6438   1.6438   1.6438   1.6438
     1.6438   1.7214   1.7214   1.7214   1.7214   1.7214   1.7214   1.8001
     1.8001   1.8001   1.8001   1.8001   1.8001   2.6522   2.6522   2.6522
     2.6522   2.6522   2.6522   2.6522   2.6522   2.6522   2.6522   2.6522
     2.6522   2.9181   2.9181   2.9181   2.9181   2.9181   2.9181   2.9181
     2.9181   2.9181   2.9181   2.9181   2.9181   2.9517   2.9517   2.9517
     2.9517   2.9517   2.9517   2.9517   2.9517   3.6847   3.6847   3.6847
     7.7845   8.8060   8.8060   8.8060   8.8060   9.0528   9.0528   9.0528
     9.0798   9.0798   9.0798   9.5353   9.5353   9.5353   9.5353   9.5353
     9.5353  10.0182  10.0182  10.0182  10.0182  10.0182  10.0182  10.0182
    10.0182  10.0182  10.0182  10.0182  10.0182  10.1702  10.1702  10.1702
    10.1702  10.1702  10.1702  10.8199  10.8199  10.8199  10.8199  10.8199
    10.8199  10.8451  10.8451  10.8451  10.8451  10.8451  10.8451  11.8076
    11.8076  11.8076  11.8076  11.8076  11.8076  11.8076  11.8076  11.8076
    11.8076

     occupation numbers 
     1.0000   1.0000   1.0000   1.0000   1.0000   1.0000   1.0000   1.0000
     1.0000   1.0000   1.0000   1.0000   1.0000   1.0000   1.0000   1.0000
     1.0000   1.0000   1.0000   1.0000   1.0000   1.0000   1.0000   1.0000
     1.0000   1.0000   1.0000   1.0000   1.0000   1.0000   1.0000   1.0000
     1.0000   1.0000   1.0000   1.0000   1.0000   1.0000   1.0000   1.0000
     1.0000   1.0000   1.0000   1.0000   1.0000   1.0000   1.0000   1.0000
     1.0000   1.0000   1.0000   1.0000   1.0000   1.0000   1.0000   1.0000
     1.0000   1.0000   1.0000   1.0000   1.0000   1.0000   1.0000   1.0000
     1.0000   1.0000   1.0000   1.0000   1.0000   1.0000   1.0000   1.0000
     1.0000   1.0000   1.0000   1.0000   1.0000   1.0000   1.0000   1.0000
     1.0000   1.0000   1.0000   1.0000   1.0000   1.0000   1.0000   1.0000
     1.0000   1.0000   1.0000   1.0000   1.0000   1.0000   1.0000   1.0000
     1.0000   1.0000   1.0000   1.0000   1.0000   1.0000   1.0000   1.0000
     1.0000   1.0000   1.0000   1.0000   1.0000   1.0000   1.0000   1.0000
     1.0000   1.0000   1.0000   1.0000   1.0000   1.0000   1.0000   1.0000
     1.0000   1.0000   1.0000   1.0000   1.0000   1.0000   1.0000   1.0000
     1.0000   1.0000   1.0000   1.0000   1.0000   1.0000   1.0000   1.0000
     1.0000   1.0000   1.0000   1.0000   1.0000   1.0000   1.0000   1.0000
     1.0000   1.0000   1.0000   1.0000   1.0000   1.0000   1.0000   1.0000
     1.0000   1.0000   1.0000   1.0000   1.0000   1.0000   1.0000   1.0000
     1.0000   1.0000   1.0000   1.0000   1.0000   1.0000   1.0000   1.0000
     1.0000   1.0000   1.0000   1.0000   1.0000   1.0000   1.0000   1.0000
     1.0000   1.0000   1.0000   1.0000   1.0000   1.0000   1.0000   1.0000
     1.0000   1.0000   1.0000   1.0000   1.0000   1.0000   1.0000   1.0000
     1.0000   1.0000   1.0000   1.0000   1.0000   1.0000   1.0000   1.0000
     1.0000   1.0000   1.0000   1.0000   1.0000   1.0000   1.0000   1.0000
     1.0000   1.0000   1.0000   1.0000   1.0000   1.0000   1.0000   1.0000
     1.0000   1.0000   1.0000   1.0000   1.0000   1.0000   1.0000   1.0000
     1.0000   1.0000   1.0000   1.0000   1.0000   1.0000   1.0000   1.0000
     1.0000   1.0000   1.0000   1.0000   1.0000   1.0000   1.0000   1.0000
     1.0000   1.0000   1.0000   1.0000   1.0000   1.0000   1.0000   1.0000
     1.0000   1.0000   1.0000   1.0000   1.0000   1.0000   1.0000   1.0000
     1.0000   1.0000   1.0000   1.0000   1.0000   1.0000   1.0000   1.0000
     1.0000   1.0000   1.0000   1.0000   1.0000   1.0000   1.0000   1.0000
     1.0000   1.0000   1.0000   1.0000   1.0000   1.0000   1.0000   1.0000
     1.0000   1.0000   1.0000   1.0000   1.0000   1.0000   1.0000   1.0000
     0.0000   0.0000   0.0000   0.0000   0.0000   0.0000   0.0000   0.0000
     0.0000   0.0000   0.0000   0.0000   0.0000   0.0000   0.0000   0.0000
     0.0000   0.0000   0.0000   0.0000   0.0000   0.0000   0.0000   0.0000
     0.0000   0.0000   0.0000   0.0000   0.0000   0.0000   0.0000   0.0000
     0.0000   0.0000   0.0000   0.0000   0.0000   0.0000   0.0000   0.0000
     0.0000   0.0000   0.0000   0.0000   0.0000   0.0000   0.0000   0.0000
     0.0000   0.0000   0.0000   0.0000   0.0000   0.0000   0.0000   0.0000
     0.0000

          k = 0.0000 0.0000 0.2500 (158119 PWs)   bands (ev):

    -6.8423  -6.5467  -6.2834  -6.2834  -6.2834  -6.2834  -6.0886  -6.0886
    -6.0886  -6.0885  -6.0533  -5.9468  -5.9468  -5.9468  -5.9468  -5.9346
    -5.9346  -5.9346  -5.9346  -5.8092  -5.8092  -5.8092  -5.8092  -5.6452
    -5.6066  -5.6066  -5.6066  -5.6066  -5.5821  -5.5821  -5.5785  -5.5785
    -1.6878  -1.6676  -1.6676  -1.5511  -1.4685  -1.4685  -1.4685  -1.4685
    -1.4310  -1.3591  -1.3591  -1.3476  -1.3237  -1.3237  -1.3052  -1.3052
    -1.3052  -1.3052  -1.2513  -1.2513  -1.2513  -1.2513  -1.2363  -1.2363
    -1.2237  -1.2237  -1.2237  -1.2237  -1.2122  -1.2122  -1.2122  -1.2122
    -1.2040  -1.2040  -1.2040  -1.2040  -1.1941  -1.1941  -1.1941  -1.1941
    -1.1855  -1.1855  -1.1855  -1.1855  -1.1697  -1.1697  -1.1697  -1.1697
    -1.1617  -1.1617  -1.1617  -1.1617  -1.1570  -1.1570  -1.1570  -1.1570
    -1.1549  -1.1549  -1.1549  -1.1549  -1.1460  -1.1460  -1.1460  -1.1459
    -1.1434  -1.1434  -1.1434  -1.1434  -1.0775  -1.0775  -1.0449  -1.0449
    -1.0449  -1.0449  -1.0409  -1.0409  -1.0409  -1.0409  -0.9780  -0.9780
    -0.9780  -0.9780  -0.9409  -0.9409  -0.9284  -0.9284  -0.9269  -0.9269
    -0.9070  -0.9070  -0.9048  -0.9048  -0.8579  -0.8579  -0.8579  -0.8579
    -0.6746  -0.6746  -0.6746  -0.6746  -0.6666  -0.6654  -0.6654  -0.6654
    -0.6654  -0.6563  -0.6563  -0.6563  -0.6563  -0.6487  -0.6482  -0.6482
    -0.6482  -0.6482  -0.6445  -0.6445  -0.6442  -0.6419  -0.6419  -0.6419
    -0.6419  -0.6376  -0.6198  -0.6185  -0.6185  -0.6185  -0.6185  -0.6094
    -0.6094  -0.6094  -0.6094  -0.6076  -0.6076  -0.6076  -0.6076  -0.6045
    -0.6045  -0.6045  -0.6045  -0.5997  -0.5997  -0.5997  -0.5997  -0.5989
    -0.5989  -0.5989  -0.5989  -0.5945  -0.5809  -0.5809  -0.5767  -0.4697
    -0.3591  -0.3591  -0.3591  -0.3591  -0.3531  -0.3531  -0.2948  -0.2948
    -0.2948  -0.2948  -0.2355  -0.2355  -0.1463  -0.1463  -0.0706  -0.0706
    -0.0706  -0.0706   0.0208   0.0208   0.2475   0.3029   0.3029   0.3029
     0.3029   0.3656   0.3656   0.3656   0.3656   0.9327   0.9327   0.9327
     0.9327   1.2038   1.2465   1.2465   1.2465   1.2465   1.3962   1.3962
     1.3962   1.3962   1.4567   1.4567   1.4740   1.4740   1.6338   1.6338
     1.6338   1.6338   1.6739   1.6739   1.6763   1.6763   1.7770   1.7770
     1.7770   1.7770   1.7929   1.7929   1.9158   1.9158   1.9158   1.9158
     1.9582   1.9582   1.9582   1.9582   2.2940   2.2940   2.4154   2.5492
     2.5492   2.5492   2.5492   2.6330   2.6330   2.6330   2.6330   2.7688
     2.7688   2.7688   2.7688   2.7954   2.7954   2.7954   2.7954   2.9229
     2.9229   2.9229   2.9229   2.9468   2.9468   2.9468   2.9468   3.0194
     3.0194   3.0194   3.0194   3.0247   3.0247   3.4844   3.5977   3.5977
     8.0262   8.9673   8.9673   8.9673   8.9673   9.1042   9.1790   9.1878
     9.2550   9.2550   9.2608   9.2608   9.4906   9.6074   9.6074   9.6074
     9.6074   9.7621   9.8177   9.8177   9.8177   9.8177   9.9294   9.9294
     9.9294   9.9294  10.1231  10.1231  10.1231  10.1231  10.3674  10.3674
    10.3674  10.3674  10.4375  10.4375  10.4621  10.4621  10.5775  10.5775
    10.5775  10.5775  10.6852  11.0701  11.0701  11.0701  11.0701  11.5853
    11.5853  11.5853  11.5853  11.6516  11.6516  11.6516  11.6516  11.7395
    11.7821

     occupation numbers 
     1.0000   1.0000   1.0000   1.0000   1.0000   1.0000   1.0000   1.0000
     1.0000   1.0000   1.0000   1.0000   1.0000   1.0000   1.0000   1.0000
     1.0000   1.0000   1.0000   1.0000   1.0000   1.0000   1.0000   1.0000
     1.0000   1.0000   1.0000   1.0000   1.0000   1.0000   1.0000   1.0000
     1.0000   1.0000   1.0000   1.0000   1.0000   1.0000   1.0000   1.0000
     1.0000   1.0000   1.0000   1.0000   1.0000   1.0000   1.0000   1.0000
     1.0000   1.0000   1.0000   1.0000   1.0000   1.0000   1.0000   1.0000
     1.0000   1.0000   1.0000   1.0000   1.0000   1.0000   1.0000   1.0000
     1.0000   1.0000   1.0000   1.0000   1.0000   1.0000   1.0000   1.0000
     1.0000   1.0000   1.0000   1.0000   1.0000   1.0000   1.0000   1.0000
     1.0000   1.0000   1.0000   1.0000   1.0000   1.0000   1.0000   1.0000
     1.0000   1.0000   1.0000   1.0000   1.0000   1.0000   1.0000   1.0000
     1.0000   1.0000   1.0000   1.0000   1.0000   1.0000   1.0000   1.0000
     1.0000   1.0000   1.0000   1.0000   1.0000   1.0000   1.0000   1.0000
     1.0000   1.0000   1.0000   1.0000   1.0000   1.0000   1.0000   1.0000
     1.0000   1.0000   1.0000   1.0000   1.0000   1.0000   1.0000   1.0000
     1.0000   1.0000   1.0000   1.0000   1.0000   1.0000   1.0000   1.0000
     1.0000   1.0000   1.0000   1.0000   1.0000   1.0000   1.0000   1.0000
     1.0000   1.0000   1.0000   1.0000   1.0000   1.0000   1.0000   1.0000
     1.0000   1.0000   1.0000   1.0000   1.0000   1.0000   1.0000   1.0000
     1.0000   1.0000   1.0000   1.0000   1.0000   1.0000   1.0000   1.0000
     1.0000   1.0000   1.0000   1.0000   1.0000   1.0000   1.0000   1.0000
     1.0000   1.0000   1.0000   1.0000   1.0000   1.0000   1.0000   1.0000
     1.0000   1.0000   1.0000   1.0000   1.0000   1.0000   1.0000   1.0000
     1.0000   1.0000   1.0000   1.0000   1.0000   1.0000   1.0000   1.0000
     1.0000   1.0000   1.0000   1.0000   1.0000   1.0000   1.0000   1.0000
     1.0000   1.0000   1.0000   1.0000   1.0000   1.0000   1.0000   1.0000
     1.0000   1.0000   1.0000   1.0000   1.0000   1.0000   1.0000   1.0000
     1.0000   1.0000   1.0000   1.0000   1.0000   1.0000   1.0000   1.0000
     1.0000   1.0000   1.0000   1.0000   1.0000   1.0000   1.0000   1.0000
     1.0000   1.0000   1.0000   1.0000   1.0000   1.0000   1.0000   1.0000
     1.0000   1.0000   1.0000   1.0000   1.0000   1.0000   1.0000   1.0000
     1.0000   1.0000   1.0000   1.0000   1.0000   1.0000   1.0000   1.0000
     1.0000   1.0000   1.0000   1.0000   1.0000   1.0000   1.0000   1.0000
     1.0000   1.0000   1.0000   1.0000   1.0000   1.0000   1.0000   1.0000
     1.0000   1.0000   1.0000   1.0000   1.0000   1.0000   1.0000   1.0000
     0.0000   0.0000   0.0000   0.0000   0.0000   0.0000   0.0000   0.0000
     0.0000   0.0000   0.0000   0.0000   0.0000   0.0000   0.0000   0.0000
     0.0000   0.0000   0.0000   0.0000   0.0000   0.0000   0.0000   0.0000
     0.0000   0.0000   0.0000   0.0000   0.0000   0.0000   0.0000   0.0000
     0.0000   0.0000   0.0000   0.0000   0.0000   0.0000   0.0000   0.0000
     0.0000   0.0000   0.0000   0.0000   0.0000   0.0000   0.0000   0.0000
     0.0000   0.0000   0.0000   0.0000   0.0000   0.0000   0.0000   0.0000
     0.0000

          k = 0.0000 0.0000-0.5000 (157924 PWs)   bands (ev):

    -6.7300  -6.7300  -6.2055  -6.2055  -6.2055  -6.2054  -6.2054  -6.2054
    -6.2054  -6.2054  -5.9403  -5.9403  -5.9403  -5.9403  -5.9403  -5.9403
    -5.9403  -5.9403  -5.8157  -5.8157  -5.6884  -5.6884  -5.6884  -5.6884
    -5.6883  -5.6883  -5.6883  -5.6883  -5.5803  -5.5803  -5.5803  -5.5803
    -1.6210  -1.6210  -1.5322  -1.5322  -1.5321  -1.5321  -1.4086  -1.4086
    -1.4086  -1.4086  -1.4086  -1.4086  -1.4086  -1.4086  -1.3823  -1.3822
    -1.2907  -1.2907  -1.2907  -1.2907  -1.2351  -1.2351  -1.2351  -1.2351
    -1.2351  -1.2351  -1.2351  -1.2351  -1.2023  -1.2022  -1.2022  -1.2022
    -1.2022  -1.2022  -1.2022  -1.2022  -1.1861  -1.1861  -1.1861  -1.1861
    -1.1861  -1.1861  -1.1861  -1.1861  -1.1717  -1.1717  -1.1717  -1.1717
    -1.1717  -1.1716  -1.1716  -1.1716  -1.1584  -1.1584  -1.1584  -1.1584
    -1.1583  -1.1583  -1.1583  -1.1583  -1.1108  -1.1107  -1.1107  -1.1107
    -1.1107  -1.1107  -1.1107  -1.1107  -1.1065  -1.1065  -1.1065  -1.1065
    -1.1064  -1.1064  -1.1064  -1.1064  -0.9924  -0.9924  -0.9923  -0.9923
    -0.9183  -0.9183  -0.9183  -0.9183  -0.9153  -0.9153  -0.9153  -0.9153
    -0.8444  -0.8444  -0.8444  -0.8444  -0.8444  -0.8444  -0.8444  -0.8444
    -0.6628  -0.6628  -0.6628  -0.6628  -0.6628  -0.6628  -0.6628  -0.6628
    -0.6581  -0.6581  -0.6581  -0.6581  -0.6581  -0.6580  -0.6580  -0.6580
    -0.6548  -0.6548  -0.6330  -0.6329  -0.6329  -0.6329  -0.6329  -0.6329
    -0.6329  -0.6329  -0.6305  -0.6305  -0.6060  -0.6060  -0.6059  -0.6059
    -0.6059  -0.6059  -0.6059  -0.6059  -0.6037  -0.6037  -0.6037  -0.6037
    -0.5997  -0.5997  -0.5997  -0.5997  -0.5997  -0.5997  -0.5997  -0.5997
    -0.5848  -0.5848  -0.5838  -0.5838  -0.5351  -0.5351  -0.5351  -0.5351
    -0.5351  -0.5351  -0.5351  -0.5351  -0.2960  -0.2960  -0.2960  -0.2960
    -0.0570  -0.0569  -0.0569  -0.0569  -0.0035  -0.0035  -0.0035  -0.0035
    -0.0035  -0.0035  -0.0035  -0.0035   0.0827   0.0827   0.0827   0.0827
     0.0827   0.0827   0.0827   0.0827   0.6685   0.6685   1.2512   1.2512
     1.2512   1.2512   1.2512   1.2512   1.2512   1.2512   1.2972   1.2972
     1.2972   1.2972   1.2972   1.2972   1.2972   1.2972   1.5673   1.5673
     1.5673   1.5673   1.5680   1.5680   1.5680   1.5680   1.9944   1.9944
     1.9945   1.9945   2.2185   2.2185   2.2185   2.2185   2.2185   2.2185
     2.2186   2.2186   2.2867   2.2867   2.2867   2.2867   2.2868   2.2868
     2.2868   2.2868   2.3961   2.3962   2.3962   2.3962   2.3962   2.3962
     2.3962   2.3962   2.9348   2.9348   2.9348   2.9348   2.9348   2.9348
     2.9348   2.9348   2.9464   2.9464   2.9464   2.9464   2.9464   2.9464
     2.9464   2.9464   3.0052   3.0052   3.3596   3.3596   3.3596   3.3596
     8.5900   8.5900   9.2701   9.2702   9.3726   9.3726   9.3726   9.3726
     9.3726   9.3726   9.3727   9.3727   9.4289   9.4289   9.7618   9.7618
     9.7619   9.7619   9.7751   9.7751   9.7751   9.7751   9.7751   9.7751
     9.7752   9.7752   9.7936   9.7936   9.7936   9.7936  10.3188  10.3188
    10.3188  10.3188  10.3188  10.3188  10.3188  10.3188  10.9141  10.9141
    10.9141  10.9141  10.9141  10.9141  10.9141  10.9141  11.2504  11.2504
    11.3207  11.3207  11.3207  11.3207  11.3207  11.3207  11.3207  11.3207
    11.9236

     occupation numbers 
     1.0000   1.0000   1.0000   1.0000   1.0000   1.0000   1.0000   1.0000
     1.0000   1.0000   1.0000   1.0000   1.0000   1.0000   1.0000   1.0000
     1.0000   1.0000   1.0000   1.0000   1.0000   1.0000   1.0000   1.0000
     1.0000   1.0000   1.0000   1.0000   1.0000   1.0000   1.0000   1.0000
     1.0000   1.0000   1.0000   1.0000   1.0000   1.0000   1.0000   1.0000
     1.0000   1.0000   1.0000   1.0000   1.0000   1.0000   1.0000   1.0000
     1.0000   1.0000   1.0000   1.0000   1.0000   1.0000   1.0000   1.0000
     1.0000   1.0000   1.0000   1.0000   1.0000   1.0000   1.0000   1.0000
     1.0000   1.0000   1.0000   1.0000   1.0000   1.0000   1.0000   1.0000
     1.0000   1.0000   1.0000   1.0000   1.0000   1.0000   1.0000   1.0000
     1.0000   1.0000   1.0000   1.0000   1.0000   1.0000   1.0000   1.0000
     1.0000   1.0000   1.0000   1.0000   1.0000   1.0000   1.0000   1.0000
     1.0000   1.0000   1.0000   1.0000   1.0000   1.0000   1.0000   1.0000
     1.0000   1.0000   1.0000   1.0000   1.0000   1.0000   1.0000   1.0000
     1.0000   1.0000   1.0000   1.0000   1.0000   1.0000   1.0000   1.0000
     1.0000   1.0000   1.0000   1.0000   1.0000   1.0000   1.0000   1.0000
     1.0000   1.0000   1.0000   1.0000   1.0000   1.0000   1.0000   1.0000
     1.0000   1.0000   1.0000   1.0000   1.0000   1.0000   1.0000   1.0000
     1.0000   1.0000   1.0000   1.0000   1.0000   1.0000   1.0000   1.0000
     1.0000   1.0000   1.0000   1.0000   1.0000   1.0000   1.0000   1.0000
     1.0000   1.0000   1.0000   1.0000   1.0000   1.0000   1.0000   1.0000
     1.0000   1.0000   1.0000   1.0000   1.0000   1.0000   1.0000   1.0000
     1.0000   1.0000   1.0000   1.0000   1.0000   1.0000   1.0000   1.0000
     1.0000   1.0000   1.0000   1.0000   1.0000   1.0000   1.0000   1.0000
     1.0000   1.0000   1.0000   1.0000   1.0000   1.0000   1.0000   1.0000
     1.0000   1.0000   1.0000   1.0000   1.0000   1.0000   1.0000   1.0000
     1.0000   1.0000   1.0000   1.0000   1.0000   1.0000   1.0000   1.0000
     1.0000   1.0000   1.0000   1.0000   1.0000   1.0000   1.0000   1.0000
[...]
     3.2675   3.2675   3.2675   3.2676   3.3487   3.3488   3.4526   3.4526
     8.7379   8.7379   9.0472   9.0472   9.2524   9.2524   9.2525   9.2525
     9.4231   9.4231   9.5244   9.5244   9.5244   9.5244   9.5972   9.5972
     9.5972   9.5972   9.6750   9.6750   9.7493   9.7493   9.7493   9.7494
     9.8454   9.8454   9.8454   9.8454   9.9480   9.9480  10.1104  10.1104
    10.1104  10.1104  10.3834  10.3834  10.3834  10.3834  10.8113  10.8113
    10.8113  10.8113  11.0467  11.0467  11.0467  11.0467  11.3465  11.3466
    11.3466  11.3466  11.5139  11.5139  11.5270  11.5270  11.5402  11.5403
    11.5403

     occupation numbers 
     1.0000   1.0000   1.0000   1.0000   1.0000   1.0000   1.0000   1.0000
     1.0000   1.0000   1.0000   1.0000   1.0000   1.0000   1.0000   1.0000
     1.0000   1.0000   1.0000   1.0000   1.0000   1.0000   1.0000   1.0000
     1.0000   1.0000   1.0000   1.0000   1.0000   1.0000   1.0000   1.0000
     1.0000   1.0000   1.0000   1.0000   1.0000   1.0000   1.0000   1.0000
     1.0000   1.0000   1.0000   1.0000   1.0000   1.0000   1.0000   1.0000
     1.0000   1.0000   1.0000   1.0000   1.0000   1.0000   1.0000   1.0000
     1.0000   1.0000   1.0000   1.0000   1.0000   1.0000   1.0000   1.0000
     1.0000   1.0000   1.0000   1.0000   1.0000   1.0000   1.0000   1.0000
     1.0000   1.0000   1.0000   1.0000   1.0000   1.0000   1.0000   1.0000
     1.0000   1.0000   1.0000   1.0000   1.0000   1.0000   1.0000   1.0000
     1.0000   1.0000   1.0000   1.0000   1.0000   1.0000   1.0000   1.0000
     1.0000   1.0000   1.0000   1.0000   1.0000   1.0000   1.0000   1.0000
     1.0000   1.0000   1.0000   1.0000   1.0000   1.0000   1.0000   1.0000
     1.0000   1.0000   1.0000   1.0000   1.0000   1.0000   1.0000   1.0000
     1.0000   1.0000   1.0000   1.0000   1.0000   1.0000   1.0000   1.0000
     1.0000   1.0000   1.0000   1.0000   1.0000   1.0000   1.0000   1.0000
     1.0000   1.0000   1.0000   1.0000   1.0000   1.0000   1.0000   1.0000
     1.0000   1.0000   1.0000   1.0000   1.0000   1.0000   1.0000   1.0000
     1.0000   1.0000   1.0000   1.0000   1.0000   1.0000   1.0000   1.0000
     1.0000   1.0000   1.0000   1.0000   1.0000   1.0000   1.0000   1.0000
     1.0000   1.0000   1.0000   1.0000   1.0000   1.0000   1.0000   1.0000
     1.0000   1.0000   1.0000   1.0000   1.0000   1.0000   1.0000   1.0000
     1.0000   1.0000   1.0000   1.0000   1.0000   1.0000   1.0000   1.0000
     1.0000   1.0000   1.0000   1.0000   1.0000   1.0000   1.0000   1.0000
     1.0000   1.0000   1.0000   1.0000   1.0000   1.0000   1.0000   1.0000
     1.0000   1.0000   1.0000   1.0000   1.0000   1.0000   1.0000   1.0000
     1.0000   1.0000   1.0000   1.0000   1.0000   1.0000   1.0000   1.0000
     1.0000   1.0000   1.0000   1.0000   1.0000   1.0000   1.0000   1.0000
     1.0000   1.0000   1.0000   1.0000   1.0000   1.0000   1.0000   1.0000
     1.0000   1.0000   1.0000   1.0000   1.0000   1.0000   1.0000   1.0000
     1.0000   1.0000   1.0000   1.0000   1.0000   1.0000   1.0000   1.0000
     1.0000   1.0000   1.0000   1.0000   1.0000   1.0000   1.0000   1.0000
     1.0000   1.0000   1.0000   1.0000   1.0000   1.0000   1.0000   1.0000
     1.0000   1.0000   1.0000   1.0000   1.0000   1.0000   1.0000   1.0000
     1.0000   1.0000   1.0000   1.0000   1.0000   1.0000   1.0000   1.0000
     0.0000   0.0000   0.0000   0.0000   0.0000   0.0000   0.0000   0.0000
     0.0000   0.0000   0.0000   0.0000   0.0000   0.0000   0.0000   0.0000
     0.0000   0.0000   0.0000   0.0000   0.0000   0.0000   0.0000   0.0000
     0.0000   0.0000   0.0000   0.0000   0.0000   0.0000   0.0000   0.0000
     0.0000   0.0000   0.0000   0.0000   0.0000   0.0000   0.0000   0.0000
     0.0000   0.0000   0.0000   0.0000   0.0000   0.0000   0.0000   0.0000
     0.0000   0.0000   0.0000   0.0000   0.0000   0.0000   0.0000   0.0000
     0.0000

          k = 0.2500-0.5000-0.5000 (158052 PWs)   bands (ev):

    -6.5521  -6.5520  -6.5520  -6.5520  -6.3070  -6.3070  -6.3070  -6.3069
    -5.9360  -5.9359  -5.9359  -5.9359  -5.7735  -5.7735  -5.7735  -5.7735
    -5.7735  -5.7735  -5.7734  -5.7734  -5.7630  -5.7630  -5.7629  -5.7629
    -5.7629  -5.7629  -5.7629  -5.7629  -5.6522  -5.6521  -5.6521  -5.6521
    -1.4500  -1.4500  -1.4500  -1.4500  -1.4499  -1.4499  -1.4499  -1.4499
    -1.4038  -1.4038  -1.4038  -1.4038  -1.3719  -1.3719  -1.3719  -1.3719
    -1.3546  -1.3545  -1.3545  -1.3545  -1.3520  -1.3520  -1.3520  -1.3520
    -1.2806  -1.2806  -1.2806  -1.2806  -1.2806  -1.2806  -1.2806  -1.2806
    -1.2735  -1.2735  -1.2735  -1.2735  -1.2634  -1.2634  -1.2634  -1.2634
    -1.2316  -1.2316  -1.2316  -1.2316  -1.2230  -1.2230  -1.2230  -1.2230
    -1.1201  -1.1201  -1.1201  -1.1201  -1.1010  -1.1010  -1.1009  -1.1009
    -1.1009  -1.1009  -1.1009  -1.1009  -1.0787  -1.0787  -1.0787  -1.0787
    -1.0474  -1.0474  -1.0474  -1.0474  -1.0474  -1.0474  -1.0474  -1.0474
    -1.0114  -1.0114  -1.0114  -1.0114  -0.9732  -0.9732  -0.9732  -0.9732
    -0.9732  -0.9732  -0.9732  -0.9732  -0.9082  -0.9082  -0.9082  -0.9082
    -0.9081  -0.9081  -0.9081  -0.9081  -0.8567  -0.8567  -0.8567  -0.8567
    -0.6504  -0.6504  -0.6504  -0.6504  -0.6450  -0.6450  -0.6450  -0.6450
    -0.6323  -0.6323  -0.6323  -0.6323  -0.6244  -0.6244  -0.6244  -0.6244
    -0.6194  -0.6194  -0.6194  -0.6194  -0.6194  -0.6194  -0.6194  -0.6194
    -0.6078  -0.6078  -0.6078  -0.6078  -0.6054  -0.6054  -0.6054  -0.6054
    -0.6026  -0.6026  -0.6026  -0.6026  -0.5991  -0.5991  -0.5991  -0.5991
    -0.5991  -0.5991  -0.5991  -0.5991  -0.5433  -0.5433  -0.5433  -0.5433
    -0.5432  -0.5432  -0.5432  -0.5432  -0.5162  -0.5162  -0.5162  -0.5162
    -0.5162  -0.5162  -0.5162  -0.5162  -0.4093  -0.4093  -0.4093  -0.4093
    -0.1544  -0.1544  -0.1544  -0.1544  -0.1544  -0.1544  -0.1544  -0.1543
    -0.0913  -0.0913  -0.0913  -0.0913   0.3457   0.3457   0.3457   0.3457
     0.3464   0.3464   0.3464   0.3464   0.3464   0.3464   0.3464   0.3464
     1.0714   1.0714   1.0714   1.0714   1.3160   1.3160   1.3160   1.3161
     1.7151   1.7151   1.7151   1.7151   1.7152   1.7152   1.7152   1.7152
     1.7891   1.7891   1.7891   1.7891   1.7891   1.7891   1.7891   1.7891
     1.9848   1.9848   1.9848   1.9848   2.1571   2.1571   2.1572   2.1572
     2.1572   2.1572   2.1572   2.1572   2.1660   2.1660   2.1660   2.1660
     2.2826   2.2826   2.2826   2.2826   2.4206   2.4206   2.4206   2.4206
     2.4207   2.4207   2.4207   2.4207   2.5333   2.5333   2.5333   2.5333
     3.0652   3.0652   3.0652   3.0652   3.1661   3.1661   3.1661   3.1661
     3.1687   3.1687   3.1687   3.1688   3.4576   3.4576   3.4576   3.4576
     8.9216   8.9216   8.9216   8.9216   9.0524   9.0524   9.0524   9.0525
     9.5292   9.5292   9.5292   9.5292   9.5987   9.5987   9.5987   9.5987
     9.6672   9.6673   9.6673   9.6673   9.6673   9.6673   9.6673   9.6673
     9.8164   9.8164   9.8164   9.8164   9.8164   9.8164   9.8164   9.8165
    10.5409  10.5409  10.5409  10.5409  10.5409  10.5409  10.5409  10.5409
    10.9815  10.9815  10.9815  10.9815  11.2789  11.2789  11.2789  11.2789
    11.3300  11.3300  11.3300  11.3300  11.3300  11.3300  11.3301  11.3301
    11.7769

     occupation numbers 
     1.0000   1.0000   1.0000   1.0000   1.0000   1.0000   1.0000   1.0000
     1.0000   1.0000   1.0000   1.0000   1.0000   1.0000   1.0000   1.0000
     1.0000   1.0000   1.0000   1.0000   1.0000   1.0000   1.0000   1.0000
     1.0000   1.0000   1.0000   1.0000   1.0000   1.0000   1.0000   1.0000
     1.0000   1.0000   1.0000   1.0000   1.0000   1.0000   1.0000   1.0000
     1.0000   1.0000   1.0000   1.0000   1.0000   1.0000   1.0000   1.0000
     1.0000   1.0000   1.0000   1.0000   1.0000   1.0000   1.0000   1.0000
     1.0000   1.0000   1.0000   1.0000   1.0000   1.0000   1.0000   1.0000
     1.0000   1.0000   1.0000   1.0000   1.0000   1.0000   1.0000   1.0000
     1.0000   1.0000   1.0000   1.0000   1.0000   1.0000   1.0000   1.0000
     1.0000   1.0000   1.0000   1.0000   1.0000   1.0000   1.0000   1.0000
     1.0000   1.0000   1.0000   1.0000   1.0000   1.0000   1.0000   1.0000
     1.0000   1.0000   1.0000   1.0000   1.0000   1.0000   1.0000   1.0000
     1.0000   1.0000   1.0000   1.0000   1.0000   1.0000   1.0000   1.0000
     1.0000   1.0000   1.0000   1.0000   1.0000   1.0000   1.0000   1.0000
     1.0000   1.0000   1.0000   1.0000   1.0000   1.0000   1.0000   1.0000
     1.0000   1.0000   1.0000   1.0000   1.0000   1.0000   1.0000   1.0000
     1.0000   1.0000   1.0000   1.0000   1.0000   1.0000   1.0000   1.0000
     1.0000   1.0000   1.0000   1.0000   1.0000   1.0000   1.0000   1.0000
     1.0000   1.0000   1.0000   1.0000   1.0000   1.0000   1.0000   1.0000
     1.0000   1.0000   1.0000   1.0000   1.0000   1.0000   1.0000   1.0000
     1.0000   1.0000   1.0000   1.0000   1.0000   1.0000   1.0000   1.0000
     1.0000   1.0000   1.0000   1.0000   1.0000   1.0000   1.0000   1.0000
     1.0000   1.0000   1.0000   1.0000   1.0000   1.0000   1.0000   1.0000
     1.0000   1.0000   1.0000   1.0000   1.0000   1.0000   1.0000   1.0000
     1.0000   1.0000   1.0000   1.0000   1.0000   1.0000   1.0000   1.0000
     1.0000   1.0000   1.0000   1.0000   1.0000   1.0000   1.0000   1.0000
     1.0000   1.0000   1.0000   1.0000   1.0000   1.0000   1.0000   1.0000
     1.0000   1.0000   1.0000   1.0000   1.0000   1.0000   1.0000   1.0000
     1.0000   1.0000   1.0000   1.0000   1.0000   1.0000   1.0000   1.0000
     1.0000   1.0000   1.0000   1.0000   1.0000   1.0000   1.0000   1.0000
     1.0000   1.0000   1.0000   1.0000   1.0000   1.0000   1.0000   1.0000
     1.0000   1.0000   1.0000   1.0000   1.0000   1.0000   1.0000   1.0000
     1.0000   1.0000   1.0000   1.0000   1.0000   1.0000   1.0000   1.0000
     1.0000   1.0000   1.0000   1.0000   1.0000   1.0000   1.0000   1.0000
     1.0000   1.0000   1.0000   1.0000   1.0000   1.0000   1.0000   1.0000
     0.0000   0.0000   0.0000   0.0000   0.0000   0.0000   0.0000   0.0000
     0.0000   0.0000   0.0000   0.0000   0.0000   0.0000   0.0000   0.0000
     0.0000   0.0000   0.0000   0.0000   0.0000   0.0000   0.0000   0.0000
     0.0000   0.0000   0.0000   0.0000   0.0000   0.0000   0.0000   0.0000
     0.0000   0.0000   0.0000   0.0000   0.0000   0.0000   0.0000   0.0000
     0.0000   0.0000   0.0000   0.0000   0.0000   0.0000   0.0000   0.0000
     0.0000   0.0000   0.0000   0.0000   0.0000   0.0000   0.0000   0.0000
     0.0000

          k =-0.5000-0.5000-0.5000 (158408 PWs)   bands (ev):

    -6.4554  -6.4553  -6.4553  -6.4553  -6.4553  -6.4553  -6.4553  -6.4553
    -5.7682  -5.7682  -5.7682  -5.7682  -5.7681  -5.7681  -5.7681  -5.7681
    -5.7681  -5.7681  -5.7681  -5.7681  -5.7681  -5.7681  -5.7681  -5.7681
    -5.7681  -5.7681  -5.7681  -5.7681  -5.7681  -5.7680  -5.7680  -5.7680
    -1.3773  -1.3773  -1.3773  -1.3772  -1.3772  -1.3772  -1.3772  -1.3772
    -1.3772  -1.3772  -1.3772  -1.3772  -1.3772  -1.3772  -1.3772  -1.3772
    -1.3772  -1.3772  -1.3772  -1.3772  -1.3772  -1.3772  -1.3772  -1.3772
    -1.3645  -1.3645  -1.3645  -1.3645  -1.3645  -1.3645  -1.3645  -1.3645
    -1.2551  -1.2551  -1.2551  -1.2551  -1.2551  -1.2551  -1.2551  -1.2551
    -1.2551  -1.2551  -1.2551  -1.2551  -1.2551  -1.2551  -1.2551  -1.2551
    -1.0601  -1.0601  -1.0601  -1.0601  -1.0601  -1.0601  -1.0601  -1.0601
    -1.0601  -1.0601  -1.0601  -1.0601  -1.0601  -1.0601  -1.0601  -1.0601
    -1.0601  -1.0601  -1.0601  -1.0601  -1.0601  -1.0601  -1.0601  -1.0601
    -0.9604  -0.9603  -0.9603  -0.9603  -0.9603  -0.9603  -0.9603  -0.9603
    -0.9603  -0.9603  -0.9603  -0.9603  -0.9603  -0.9603  -0.9603  -0.9603
    -0.9603  -0.9603  -0.9603  -0.9603  -0.9603  -0.9603  -0.9603  -0.9603
    -0.6392  -0.6392  -0.6392  -0.6392  -0.6392  -0.6392  -0.6392  -0.6392
    -0.6392  -0.6392  -0.6392  -0.6392  -0.6392  -0.6392  -0.6392  -0.6392
    -0.6024  -0.6024  -0.6024  -0.6024  -0.6024  -0.6024  -0.6024  -0.6024
    -0.6024  -0.6023  -0.6023  -0.6023  -0.6023  -0.6023  -0.6023  -0.6023
    -0.6023  -0.6023  -0.6023  -0.6023  -0.6023  -0.6023  -0.6023  -0.6023
    -0.5257  -0.5257  -0.5257  -0.5257  -0.5257  -0.5257  -0.5257  -0.5257
    -0.5257  -0.5257  -0.5257  -0.5257  -0.5256  -0.5256  -0.5256  -0.5256
    -0.5256  -0.5256  -0.5256  -0.5256  -0.5256  -0.5256  -0.5256  -0.5256
     0.0860   0.0860   0.0860   0.0860   0.0860   0.0860   0.0860   0.0860
     0.0860   0.0860   0.0860   0.0860   0.0860   0.0860   0.0860   0.0860
     0.0860   0.0860   0.0860   0.0860   0.0860   0.0860   0.0860   0.0860
     1.5224   1.5225   1.5225   1.5225   1.5225   1.5225   1.5225   1.5225
     1.7491   1.7491   1.7491   1.7491   1.7491   1.7491   1.7491   1.7491
     1.7491   1.7492   1.7492   1.7492   1.7492   1.7492   1.7492   1.7492
     1.7492   1.7492   1.7492   1.7492   1.7492   1.7492   1.7492   1.7492
     2.3126   2.3126   2.3126   2.3126   2.3126   2.3126   2.3127   2.3127
     2.3127   2.3127   2.3127   2.3127   2.3127   2.3127   2.3127   2.3127
     2.3127   2.3127   2.3127   2.3127   2.3127   2.3127   2.3127   2.3127
     3.2983   3.2983   3.2983   3.2983   3.2983   3.2984   3.2984   3.2984
     3.2984   3.2984   3.2984   3.2984   3.2984   3.2984   3.2984   3.2984
     8.8892   8.8892   8.8892   8.8892   8.8893   8.8893   8.8893   8.8893
     9.6222   9.6223   9.6223   9.6223   9.6223   9.6223   9.6223   9.6223
     9.6223   9.6223   9.6223   9.6223   9.6223   9.6223   9.6223   9.6223
     9.6223   9.6223   9.6223   9.6223   9.6223   9.6223   9.6223   9.6223
    11.0691  11.0691  11.0691  11.0691  11.0691  11.0691  11.0691  11.0691
    11.0691  11.0691  11.0691  11.0691  11.0692  11.0692  11.0692  11.0692
    11.0692  11.0692  11.0692  11.0692  11.0692  11.0692  11.0692  11.0692
    12.1943

     occupation numbers 
     1.0000   1.0000   1.0000   1.0000   1.0000   1.0000   1.0000   1.0000
     1.0000   1.0000   1.0000   1.0000   1.0000   1.0000   1.0000   1.0000
     1.0000   1.0000   1.0000   1.0000   1.0000   1.0000   1.0000   1.0000
     1.0000   1.0000   1.0000   1.0000   1.0000   1.0000   1.0000   1.0000
     1.0000   1.0000   1.0000   1.0000   1.0000   1.0000   1.0000   1.0000
     1.0000   1.0000   1.0000   1.0000   1.0000   1.0000   1.0000   1.0000
     1.0000   1.0000   1.0000   1.0000   1.0000   1.0000   1.0000   1.0000
     1.0000   1.0000   1.0000   1.0000   1.0000   1.0000   1.0000   1.0000
     1.0000   1.0000   1.0000   1.0000   1.0000   1.0000   1.0000   1.0000
     1.0000   1.0000   1.0000   1.0000   1.0000   1.0000   1.0000   1.0000
     1.0000   1.0000   1.0000   1.0000   1.0000   1.0000   1.0000   1.0000
     1.0000   1.0000   1.0000   1.0000   1.0000   1.0000   1.0000   1.0000
     1.0000   1.0000   1.0000   1.0000   1.0000   1.0000   1.0000   1.0000
     1.0000   1.0000   1.0000   1.0000   1.0000   1.0000   1.0000   1.0000
     1.0000   1.0000   1.0000   1.0000   1.0000   1.0000   1.0000   1.0000
     1.0000   1.0000   1.0000   1.0000   1.0000   1.0000   1.0000   1.0000
     1.0000   1.0000   1.0000   1.0000   1.0000   1.0000   1.0000   1.0000
     1.0000   1.0000   1.0000   1.0000   1.0000   1.0000   1.0000   1.0000
     1.0000   1.0000   1.0000   1.0000   1.0000   1.0000   1.0000   1.0000
     1.0000   1.0000   1.0000   1.0000   1.0000   1.0000   1.0000   1.0000
     1.0000   1.0000   1.0000   1.0000   1.0000   1.0000   1.0000   1.0000
     1.0000   1.0000   1.0000   1.0000   1.0000   1.0000   1.0000   1.0000
     1.0000   1.0000   1.0000   1.0000   1.0000   1.0000   1.0000   1.0000
     1.0000   1.0000   1.0000   1.0000   1.0000   1.0000   1.0000   1.0000
     1.0000   1.0000   1.0000   1.0000   1.0000   1.0000   1.0000   1.0000
     1.0000   1.0000   1.0000   1.0000   1.0000   1.0000   1.0000   1.0000
     1.0000   1.0000   1.0000   1.0000   1.0000   1.0000   1.0000   1.0000
     1.0000   1.0000   1.0000   1.0000   1.0000   1.0000   1.0000   1.0000
     1.0000   1.0000   1.0000   1.0000   1.0000   1.0000   1.0000   1.0000
     1.0000   1.0000   1.0000   1.0000   1.0000   1.0000   1.0000   1.0000
     1.0000   1.0000   1.0000   1.0000   1.0000   1.0000   1.0000   1.0000
     1.0000   1.0000   1.0000   1.0000   1.0000   1.0000   1.0000   1.0000
     1.0000   1.0000   1.0000   1.0000   1.0000   1.0000   1.0000   1.0000
     1.0000   1.0000   1.0000   1.0000   1.0000   1.0000   1.0000   1.0000
     1.0000   1.0000   1.0000   1.0000   1.0000   1.0000   1.0000   1.0000
     1.0000   1.0000   1.0000   1.0000   1.0000   1.0000   1.0000   1.0000
     0.0000   0.0000   0.0000   0.0000   0.0000   0.0000   0.0000   0.0000
     0.0000   0.0000   0.0000   0.0000   0.0000   0.0000   0.0000   0.0000
     0.0000   0.0000   0.0000   0.0000   0.0000   0.0000   0.0000   0.0000
     0.0000   0.0000   0.0000   0.0000   0.0000   0.0000   0.0000   0.0000
     0.0000   0.0000   0.0000   0.0000   0.0000   0.0000   0.0000   0.0000
     0.0000   0.0000   0.0000   0.0000   0.0000   0.0000   0.0000   0.0000
     0.0000   0.0000   0.0000   0.0000   0.0000   0.0000   0.0000   0.0000
     0.0000

     the Fermi energy is     7.4260 ev
     (compare with:     3.6847 eV, computed in scf)

     Writing all to output data dir ./out/ZnS_hub.save/
 
     init_run     :      5.10s CPU      6.40s WALL (       1 calls)
     electrons    :     25.42s CPU     25.68s WALL (       1 calls)

     Called by init_run:
     wfcinit      :      3.13s CPU      3.76s WALL (       1 calls)
     potinit      :      0.35s CPU      0.65s WALL (       1 calls)
     hinit0       :      0.20s CPU      0.34s WALL (       1 calls)

     Called by electrons:
     c_bands      :     25.38s CPU     25.63s WALL (       1 calls)
     v_of_rho     :      0.11s CPU      0.24s WALL (       1 calls)
     v_h          :      0.01s CPU      0.02s WALL (       1 calls)
     v_xc         :      0.10s CPU      0.22s WALL (       1 calls)
     newd         :      0.05s CPU      0.06s WALL (       1 calls)
     PAW_pot      :      0.15s CPU      0.16s WALL (       1 calls)

     Called by c_bands:
     init_us_2    :      0.04s CPU      0.05s WALL (       2 calls)
     init_us_2:cp :      0.04s CPU      0.05s WALL (       2 calls)
     cegterg      :      8.74s CPU      8.88s WALL (       2 calls)

     Called by sum_band:

     Called by *egterg:
     cdiaghg      :      1.38s CPU      1.40s WALL (      22 calls)
     cegterg:over :      0.63s CPU      0.63s WALL (      22 calls)
     cegterg:upda :      0.47s CPU      0.47s WALL (      22 calls)
     cegterg:last :      0.89s CPU      0.90s WALL (       6 calls)
     cdiaghg:chol :      0.08s CPU      0.09s WALL (      22 calls)
     cdiaghg:inve :      0.13s CPU      0.13s WALL (      22 calls)
     cdiaghg:para :      0.20s CPU      0.21s WALL (      44 calls)
     h_psi        :      4.48s CPU      4.56s WALL (      24 calls)
     s_psi        :      0.78s CPU      0.80s WALL (      25 calls)
     g_psi        :      0.01s CPU      0.01s WALL (      22 calls)

     Called by h_psi:
     h_psi:calbec :      0.64s CPU      0.64s WALL (      24 calls)
     vloc_psi     :      1.96s CPU      2.00s WALL (      24 calls)
     add_vuspsi   :      0.65s CPU      0.66s WALL (      24 calls)
     vhpsi        :      1.21s CPU      1.23s WALL (      24 calls)

     General routines
     calbec       :      0.92s CPU      0.94s WALL (      49 calls)
     fft          :      0.21s CPU      0.50s WALL (      12 calls)
     fftw         :      1.85s CPU      1.88s WALL (    4450 calls)
 
     Parallel routines

     Hubbard U routines
     vhpsi        :      1.21s CPU      1.23s WALL (      24 calls)

     PAW routines
     PAW_pot      :      0.15s CPU      0.16s WALL (       1 calls)
 
     PWSCF        :     31.91s CPU     44.72s WALL

 
   This run was terminated on:   4:17:26   1Jul2024            

=------------------------------------------------------------------------------=
   JOB DONE.
=------------------------------------------------------------------------------=
