
     Program PWSCF v.7.2 starts on 16Apr2024 at  7:51:56 

     This program is part of the open-source Quantum ESPRESSO suite
     for quantum simulation of materials; please cite
         "P. Giannozzi et al., J. Phys.:Condens. Matter 21 395502 (2009);
         "P. Giannozzi et al., J. Phys.:Condens. Matter 29 465901 (2017);
         "P. Giannozzi et al., J. Chem. Phys. 152 154105 (2020);
          URL http://www.quantum-espresso.org", 
     in publications or presentations arising from this work. More details at
     http://www.quantum-espresso.org/quote

     Parallel version (MPI), running on    20 processors

     MPI processes distributed on     1 nodes
     360776 MiB available memory on the printing compute node when the environment starts
 
     Waiting for input...
     Reading input from standard input

     Current dimensions of program PWSCF are:
     Max number of different atomic species (ntypx) = 10
     Max number of k-points (npk) = 120000
     Max angular momentum in pseudopotentials (lmaxx) =  4
     file Fe.pbe-spn-kjpaw_psl.1.0.0.UPF: wavefunction(s)  3P 3D renormalized
     Found identity + ( -0.5000 -0.5000 -0.5000) symmetry
     This is a supercell, fractional translations are disabled
 
     K-points division:     npool     =       2
     R & G space division:  proc/nbgrp/npool/nimage =      10
     Subspace diagonalization in iterative solution of the eigenvalue problem:
     a serial algorithm will be used

 
     Parallelization info
     --------------------
     sticks:   dense  smooth     PW     G-vecs:    dense   smooth      PW
     Min         161      93     28                 4931     2123     356
     Max         162      94     30                 4932     2126     358
     Sum        1617     933    285                49317    21247    3575
 
     Using Slab Decomposition
 


     bravais-lattice index     =            1
     lattice parameter (alat)  =       5.4046  a.u.
     unit-cell volume          =     157.8682 (a.u.)^3
     number of atoms/cell      =            2
     number of atomic types    =            1
     number of electrons       =        32.00
     number of Kohn-Sham states=           20
     kinetic-energy cutoff     =     100.0000  Ry
     charge density cutoff     =     700.0000  Ry
     scf convergence threshold =      4.0E-10
     mixing beta               =       0.4000
     number of iterations used =            8  plain     mixing
     Exchange-correlation= SLA  PW   PBX  PBC
                           (   1   4   3   4   0   0   0)

     celldm(1)=   5.404617  celldm(2)=   0.000000  celldm(3)=   0.000000
     celldm(4)=   0.000000  celldm(5)=   0.000000  celldm(6)=   0.000000

     crystal axes: (cart. coord. in units of alat)
               a(1) = (   1.000000   0.000000   0.000000 )  
               a(2) = (   0.000000   1.000000   0.000000 )  
               a(3) = (   0.000000   0.000000   1.000000 )  

     reciprocal axes: (cart. coord. in units 2 pi/alat)
               b(1) = (  1.000000  0.000000  0.000000 )  
               b(2) = (  0.000000  1.000000  0.000000 )  
               b(3) = (  0.000000  0.000000  1.000000 )  


     PseudoPot. # 1 for Fe read from file:
     /truba/home/amuhaymin/ZnS/pseudo/QE/Fe.pbe-spn-kjpaw_psl.1.0.0.UPF
     MD5 check sum: fc81f059e5c5069939230b1155715ae8
     Pseudo is Projector augmented-wave + core cor, Zval = 16.0
     Generated using &quot;atomic&quot; code by A. Dal Corso  v.6.3
     Shape of augmentation charge: PSQ
     Using radial grid of 1191 points,  6 beta functions with: 
                l(1) =   0
                l(2) =   0
                l(3) =   1
                l(4) =   1
                l(5) =   2
                l(6) =   2
     Q(r) pseudized with 0 coefficients 


     atomic species   valence    mass     pseudopotential
        Fe            16.00    55.84500     Fe( 1.00)

     Starting magnetic structure 
     atomic species   magnetization
        Fe           0.312

     48 Sym. Ops., with inversion, found


                                    s                        frac. trans.

      isym =  1     identity                                     

 cryst.   s( 1) = (     1          0          0      )
                  (     0          1          0      )
                  (     0          0          1      )

 cart.    s( 1) = (  1.0000000  0.0000000  0.0000000 )
                  (  0.0000000  1.0000000  0.0000000 )
                  (  0.0000000  0.0000000  1.0000000 )


      isym =  2     180 deg rotation - cart. axis [0,0,1]        

 cryst.   s( 2) = (    -1          0          0      )
                  (     0         -1          0      )
                  (     0          0          1      )

 cart.    s( 2) = ( -1.0000000  0.0000000  0.0000000 )
                  (  0.0000000 -1.0000000  0.0000000 )
                  (  0.0000000  0.0000000  1.0000000 )


      isym =  3     180 deg rotation - cart. axis [0,1,0]        

 cryst.   s( 3) = (    -1          0          0      )
                  (     0          1          0      )
                  (     0          0         -1      )

 cart.    s( 3) = ( -1.0000000  0.0000000  0.0000000 )
                  (  0.0000000  1.0000000  0.0000000 )
                  (  0.0000000  0.0000000 -1.0000000 )


      isym =  4     180 deg rotation - cart. axis [1,0,0]        

 cryst.   s( 4) = (     1          0          0      )
                  (     0         -1          0      )
                  (     0          0         -1      )

 cart.    s( 4) = (  1.0000000  0.0000000  0.0000000 )
                  (  0.0000000 -1.0000000  0.0000000 )
                  (  0.0000000  0.0000000 -1.0000000 )


      isym =  5     180 deg rotation - cart. axis [1,1,0]        

 cryst.   s( 5) = (     0          1          0      )
                  (     1          0          0      )
                  (     0          0         -1      )

 cart.    s( 5) = (  0.0000000  1.0000000  0.0000000 )
                  (  1.0000000  0.0000000  0.0000000 )
                  (  0.0000000  0.0000000 -1.0000000 )


      isym =  6     180 deg rotation - cart. axis [1,-1,0]       

 cryst.   s( 6) = (     0         -1          0      )
                  (    -1          0          0      )
                  (     0          0         -1      )

 cart.    s( 6) = (  0.0000000 -1.0000000  0.0000000 )
                  ( -1.0000000  0.0000000  0.0000000 )
                  (  0.0000000  0.0000000 -1.0000000 )


      isym =  7      90 deg rotation - cart. axis [0,0,-1]       

 cryst.   s( 7) = (     0         -1          0      )
                  (     1          0          0      )
                  (     0          0          1      )

 cart.    s( 7) = (  0.0000000  1.0000000  0.0000000 )
                  ( -1.0000000  0.0000000  0.0000000 )
                  (  0.0000000  0.0000000  1.0000000 )


      isym =  8      90 deg rotation - cart. axis [0,0,1]        

 cryst.   s( 8) = (     0          1          0      )
                  (    -1          0          0      )
                  (     0          0          1      )

 cart.    s( 8) = (  0.0000000 -1.0000000  0.0000000 )
                  (  1.0000000  0.0000000  0.0000000 )
                  (  0.0000000  0.0000000  1.0000000 )


      isym =  9     180 deg rotation - cart. axis [1,0,1]        

 cryst.   s( 9) = (     0          0          1      )
                  (     0         -1          0      )
                  (     1          0          0      )

 cart.    s( 9) = (  0.0000000  0.0000000  1.0000000 )
                  (  0.0000000 -1.0000000  0.0000000 )
                  (  1.0000000  0.0000000  0.0000000 )


      isym = 10     180 deg rotation - cart. axis [-1,0,1]       

 cryst.   s(10) = (     0          0         -1      )
                  (     0         -1          0      )
                  (    -1          0          0      )

 cart.    s(10) = (  0.0000000  0.0000000 -1.0000000 )
                  (  0.0000000 -1.0000000  0.0000000 )
                  ( -1.0000000  0.0000000  0.0000000 )


      isym = 11      90 deg rotation - cart. axis [0,1,0]        

 cryst.   s(11) = (     0          0         -1      )
                  (     0          1          0      )
                  (     1          0          0      )

 cart.    s(11) = (  0.0000000  0.0000000  1.0000000 )
                  (  0.0000000  1.0000000  0.0000000 )
                  ( -1.0000000  0.0000000  0.0000000 )


      isym = 12      90 deg rotation - cart. axis [0,-1,0]       

 cryst.   s(12) = (     0          0          1      )
                  (     0          1          0      )
                  (    -1          0          0      )

 cart.    s(12) = (  0.0000000  0.0000000 -1.0000000 )
                  (  0.0000000  1.0000000  0.0000000 )
                  (  1.0000000  0.0000000  0.0000000 )


      isym = 13     180 deg rotation - cart. axis [0,1,1]        

 cryst.   s(13) = (    -1          0          0      )
                  (     0          0          1      )
                  (     0          1          0      )

 cart.    s(13) = ( -1.0000000  0.0000000  0.0000000 )
                  (  0.0000000  0.0000000  1.0000000 )
                  (  0.0000000  1.0000000  0.0000000 )


      isym = 14     180 deg rotation - cart. axis [0,1,-1]       

 cryst.   s(14) = (    -1          0          0      )
                  (     0          0         -1      )
                  (     0         -1          0      )

 cart.    s(14) = ( -1.0000000  0.0000000  0.0000000 )
                  (  0.0000000  0.0000000 -1.0000000 )
                  (  0.0000000 -1.0000000  0.0000000 )


      isym = 15      90 deg rotation - cart. axis [-1,0,0]       

 cryst.   s(15) = (     1          0          0      )
                  (     0          0         -1      )
                  (     0          1          0      )

 cart.    s(15) = (  1.0000000  0.0000000  0.0000000 )
                  (  0.0000000  0.0000000  1.0000000 )
                  (  0.0000000 -1.0000000  0.0000000 )


      isym = 16      90 deg rotation - cart. axis [1,0,0]        

 cryst.   s(16) = (     1          0          0      )
                  (     0          0          1      )
                  (     0         -1          0      )

 cart.    s(16) = (  1.0000000  0.0000000  0.0000000 )
                  (  0.0000000  0.0000000 -1.0000000 )
                  (  0.0000000  1.0000000  0.0000000 )


      isym = 17     120 deg rotation - cart. axis [-1,-1,-1]     

 cryst.   s(17) = (     0          0          1      )
                  (     1          0          0      )
                  (     0          1          0      )

 cart.    s(17) = (  0.0000000  1.0000000  0.0000000 )
                  (  0.0000000  0.0000000  1.0000000 )
                  (  1.0000000  0.0000000  0.0000000 )


      isym = 18     120 deg rotation - cart. axis [-1,1,1]       

 cryst.   s(18) = (     0          0         -1      )
                  (    -1          0          0      )
                  (     0          1          0      )

 cart.    s(18) = (  0.0000000 -1.0000000  0.0000000 )
                  (  0.0000000  0.0000000  1.0000000 )
                  ( -1.0000000  0.0000000  0.0000000 )


      isym = 19     120 deg rotation - cart. axis [1,1,-1]       

 cryst.   s(19) = (     0          0         -1      )
                  (     1          0          0      )
                  (     0         -1          0      )

 cart.    s(19) = (  0.0000000  1.0000000  0.0000000 )
                  (  0.0000000  0.0000000 -1.0000000 )
                  ( -1.0000000  0.0000000  0.0000000 )


      isym = 20     120 deg rotation - cart. axis [1,-1,1]       

 cryst.   s(20) = (     0          0          1      )
                  (    -1          0          0      )
                  (     0         -1          0      )

 cart.    s(20) = (  0.0000000 -1.0000000  0.0000000 )
                  (  0.0000000  0.0000000 -1.0000000 )
                  (  1.0000000  0.0000000  0.0000000 )


      isym = 21     120 deg rotation - cart. axis [1,1,1]        

 cryst.   s(21) = (     0          1          0      )
                  (     0          0          1      )
                  (     1          0          0      )

 cart.    s(21) = (  0.0000000  0.0000000  1.0000000 )
                  (  1.0000000  0.0000000  0.0000000 )
                  (  0.0000000  1.0000000  0.0000000 )


      isym = 22     120 deg rotation - cart. axis [-1,1,-1]      

 cryst.   s(22) = (     0         -1          0      )
                  (     0          0         -1      )
                  (     1          0          0      )

 cart.    s(22) = (  0.0000000  0.0000000  1.0000000 )
                  ( -1.0000000  0.0000000  0.0000000 )
                  (  0.0000000 -1.0000000  0.0000000 )


      isym = 23     120 deg rotation - cart. axis [1,-1,-1]      

 cryst.   s(23) = (     0         -1          0      )
                  (     0          0          1      )
                  (    -1          0          0      )

 cart.    s(23) = (  0.0000000  0.0000000 -1.0000000 )
                  ( -1.0000000  0.0000000  0.0000000 )
                  (  0.0000000  1.0000000  0.0000000 )


      isym = 24     120 deg rotation - cart. axis [-1,-1,1]      

 cryst.   s(24) = (     0          1          0      )
                  (     0          0         -1      )
                  (    -1          0          0      )

 cart.    s(24) = (  0.0000000  0.0000000 -1.0000000 )
                  (  1.0000000  0.0000000  0.0000000 )
                  (  0.0000000 -1.0000000  0.0000000 )


      isym = 25     inversion                                    

 cryst.   s(25) = (    -1          0          0      )
                  (     0         -1          0      )
                  (     0          0         -1      )

 cart.    s(25) = ( -1.0000000  0.0000000  0.0000000 )
                  (  0.0000000 -1.0000000  0.0000000 )
                  (  0.0000000  0.0000000 -1.0000000 )


      isym = 26     inv. 180 deg rotation - cart. axis [0,0,1]   

 cryst.   s(26) = (     1          0          0      )
                  (     0          1          0      )
                  (     0          0         -1      )

 cart.    s(26) = (  1.0000000  0.0000000  0.0000000 )
                  (  0.0000000  1.0000000  0.0000000 )
                  (  0.0000000  0.0000000 -1.0000000 )


      isym = 27     inv. 180 deg rotation - cart. axis [0,1,0]   

 cryst.   s(27) = (     1          0          0      )
                  (     0         -1          0      )
                  (     0          0          1      )

 cart.    s(27) = (  1.0000000  0.0000000  0.0000000 )
                  (  0.0000000 -1.0000000  0.0000000 )
                  (  0.0000000  0.0000000  1.0000000 )


      isym = 28     inv. 180 deg rotation - cart. axis [1,0,0]   

 cryst.   s(28) = (    -1          0          0      )
                  (     0          1          0      )
                  (     0          0          1      )

 cart.    s(28) = ( -1.0000000  0.0000000  0.0000000 )
                  (  0.0000000  1.0000000  0.0000000 )
                  (  0.0000000  0.0000000  1.0000000 )


      isym = 29     inv. 180 deg rotation - cart. axis [1,1,0]   

 cryst.   s(29) = (     0         -1          0      )
                  (    -1          0          0      )
                  (     0          0          1      )

 cart.    s(29) = (  0.0000000 -1.0000000  0.0000000 )
                  ( -1.0000000  0.0000000  0.0000000 )
                  (  0.0000000  0.0000000  1.0000000 )


      isym = 30     inv. 180 deg rotation - cart. axis [1,-1,0]  

 cryst.   s(30) = (     0          1          0      )
                  (     1          0          0      )
                  (     0          0          1      )

 cart.    s(30) = (  0.0000000  1.0000000  0.0000000 )
                  (  1.0000000  0.0000000  0.0000000 )
                  (  0.0000000  0.0000000  1.0000000 )


      isym = 31     inv.  90 deg rotation - cart. axis [0,0,-1]  

 cryst.   s(31) = (     0          1          0      )
                  (    -1          0          0      )
                  (     0          0         -1      )

 cart.    s(31) = (  0.0000000 -1.0000000  0.0000000 )
                  (  1.0000000  0.0000000  0.0000000 )
                  (  0.0000000  0.0000000 -1.0000000 )


      isym = 32     inv.  90 deg rotation - cart. axis [0,0,1]   

 cryst.   s(32) = (     0         -1          0      )
                  (     1          0          0      )
                  (     0          0         -1      )

 cart.    s(32) = (  0.0000000  1.0000000  0.0000000 )
                  ( -1.0000000  0.0000000  0.0000000 )
                  (  0.0000000  0.0000000 -1.0000000 )


      isym = 33     inv. 180 deg rotation - cart. axis [1,0,1]   

 cryst.   s(33) = (     0          0         -1      )
                  (     0          1          0      )
                  (    -1          0          0      )

 cart.    s(33) = (  0.0000000  0.0000000 -1.0000000 )
                  (  0.0000000  1.0000000  0.0000000 )
                  ( -1.0000000  0.0000000  0.0000000 )


      isym = 34     inv. 180 deg rotation - cart. axis [-1,0,1]  

 cryst.   s(34) = (     0          0          1      )
                  (     0          1          0      )
                  (     1          0          0      )

 cart.    s(34) = (  0.0000000  0.0000000  1.0000000 )
                  (  0.0000000  1.0000000  0.0000000 )
                  (  1.0000000  0.0000000  0.0000000 )


      isym = 35     inv.  90 deg rotation - cart. axis [0,1,0]   

 cryst.   s(35) = (     0          0          1      )
                  (     0         -1          0      )
                  (    -1          0          0      )

 cart.    s(35) = (  0.0000000  0.0000000 -1.0000000 )
                  (  0.0000000 -1.0000000  0.0000000 )
                  (  1.0000000  0.0000000  0.0000000 )


      isym = 36     inv.  90 deg rotation - cart. axis [0,-1,0]  

 cryst.   s(36) = (     0          0         -1      )
                  (     0         -1          0      )
                  (     1          0          0      )

 cart.    s(36) = (  0.0000000  0.0000000  1.0000000 )
                  (  0.0000000 -1.0000000  0.0000000 )
                  ( -1.0000000  0.0000000  0.0000000 )


      isym = 37     inv. 180 deg rotation - cart. axis [0,1,1]   

 cryst.   s(37) = (     1          0          0      )
                  (     0          0         -1      )
                  (     0         -1          0      )

 cart.    s(37) = (  1.0000000  0.0000000  0.0000000 )
                  (  0.0000000  0.0000000 -1.0000000 )
                  (  0.0000000 -1.0000000  0.0000000 )


      isym = 38     inv. 180 deg rotation - cart. axis [0,1,-1]  

 cryst.   s(38) = (     1          0          0      )
                  (     0          0          1      )
                  (     0          1          0      )

 cart.    s(38) = (  1.0000000  0.0000000  0.0000000 )
                  (  0.0000000  0.0000000  1.0000000 )
                  (  0.0000000  1.0000000  0.0000000 )


      isym = 39     inv.  90 deg rotation - cart. axis [-1,0,0]  

 cryst.   s(39) = (    -1          0          0      )
                  (     0          0          1      )
                  (     0         -1          0      )

 cart.    s(39) = ( -1.0000000  0.0000000  0.0000000 )
                  (  0.0000000  0.0000000 -1.0000000 )
                  (  0.0000000  1.0000000  0.0000000 )


      isym = 40     inv.  90 deg rotation - cart. axis [1,0,0]   

 cryst.   s(40) = (    -1          0          0      )
                  (     0          0         -1      )
                  (     0          1          0      )

 cart.    s(40) = ( -1.0000000  0.0000000  0.0000000 )
                  (  0.0000000  0.0000000  1.0000000 )
                  (  0.0000000 -1.0000000  0.0000000 )


      isym = 41     inv. 120 deg rotation - cart. axis [-1,-1,-1]

 cryst.   s(41) = (     0          0         -1      )
                  (    -1          0          0      )
                  (     0         -1          0      )

 cart.    s(41) = (  0.0000000 -1.0000000  0.0000000 )
                  (  0.0000000  0.0000000 -1.0000000 )
                  ( -1.0000000  0.0000000  0.0000000 )


      isym = 42     inv. 120 deg rotation - cart. axis [-1,1,1]  

 cryst.   s(42) = (     0          0          1      )
                  (     1          0          0      )
                  (     0         -1          0      )

 cart.    s(42) = (  0.0000000  1.0000000  0.0000000 )
                  (  0.0000000  0.0000000 -1.0000000 )
                  (  1.0000000  0.0000000  0.0000000 )


      isym = 43     inv. 120 deg rotation - cart. axis [1,1,-1]  

 cryst.   s(43) = (     0          0          1      )
                  (    -1          0          0      )
                  (     0          1          0      )

 cart.    s(43) = (  0.0000000 -1.0000000  0.0000000 )
                  (  0.0000000  0.0000000  1.0000000 )
                  (  1.0000000  0.0000000  0.0000000 )


      isym = 44     inv. 120 deg rotation - cart. axis [1,-1,1]  

 cryst.   s(44) = (     0          0         -1      )
                  (     1          0          0      )
                  (     0          1          0      )

 cart.    s(44) = (  0.0000000  1.0000000  0.0000000 )
                  (  0.0000000  0.0000000  1.0000000 )
                  ( -1.0000000  0.0000000  0.0000000 )


      isym = 45     inv. 120 deg rotation - cart. axis [1,1,1]   

 cryst.   s(45) = (     0         -1          0      )
                  (     0          0         -1      )
                  (    -1          0          0      )

 cart.    s(45) = (  0.0000000  0.0000000 -1.0000000 )
                  ( -1.0000000  0.0000000  0.0000000 )
                  (  0.0000000 -1.0000000  0.0000000 )


      isym = 46     inv. 120 deg rotation - cart. axis [-1,1,-1] 

 cryst.   s(46) = (     0          1          0      )
                  (     0          0          1      )
                  (    -1          0          0      )

 cart.    s(46) = (  0.0000000  0.0000000 -1.0000000 )
                  (  1.0000000  0.0000000  0.0000000 )
                  (  0.0000000  1.0000000  0.0000000 )


      isym = 47     inv. 120 deg rotation - cart. axis [1,-1,-1] 

 cryst.   s(47) = (     0          1          0      )
                  (     0          0         -1      )
                  (     1          0          0      )

 cart.    s(47) = (  0.0000000  0.0000000  1.0000000 )
                  (  1.0000000  0.0000000  0.0000000 )
                  (  0.0000000 -1.0000000  0.0000000 )


      isym = 48     inv. 120 deg rotation - cart. axis [-1,-1,1] 

 cryst.   s(48) = (     0         -1          0      )
                  (     0          0          1      )
                  (     1          0          0      )

 cart.    s(48) = (  0.0000000  0.0000000  1.0000000 )
                  ( -1.0000000  0.0000000  0.0000000 )
                  (  0.0000000  1.0000000  0.0000000 )


     point group O_h (m-3m) 
     there are 10 classes
     the character table:

       E     8C3   3C2   6C4   6C2'  i     8S6   3s_h  6S4   6s_d 
A_1g   1.00  1.00  1.00  1.00  1.00  1.00  1.00  1.00  1.00  1.00
A_2g   1.00  1.00  1.00 -1.00 -1.00  1.00  1.00  1.00 -1.00 -1.00
E_g    2.00 -1.00  2.00  0.00  0.00  2.00 -1.00  2.00  0.00  0.00
T_1g   3.00  0.00 -1.00  1.00 -1.00  3.00  0.00 -1.00  1.00 -1.00
T_2g   3.00  0.00 -1.00 -1.00  1.00  3.00  0.00 -1.00 -1.00  1.00
A_1u   1.00  1.00  1.00  1.00  1.00 -1.00 -1.00 -1.00 -1.00 -1.00
A_2u   1.00  1.00  1.00 -1.00 -1.00 -1.00 -1.00 -1.00  1.00  1.00
E_u    2.00 -1.00  2.00  0.00  0.00 -2.00  1.00 -2.00  0.00  0.00
T_1u   3.00  0.00 -1.00  1.00 -1.00 -3.00  0.00  1.00 -1.00  1.00
T_2u   3.00  0.00 -1.00 -1.00  1.00 -3.00  0.00  1.00  1.00 -1.00

     the symmetry operations in each class and the name of the first element:

     E        1
          identity                                               
     8C3     17   19   20   18   24   21   22   23
          120 deg rotation - cart. axis [-1,-1,-1]               
     3C2      2    4    3
          180 deg rotation - cart. axis [0,0,1]                  
     6C4      7    8   15   16   12   11
           90 deg rotation - cart. axis [0,0,-1]                 
     6C2'     5    6   14   13   10    9
          180 deg rotation - cart. axis [1,1,0]                  
     i       25
          inversion                                              
     8S6     41   43   44   42   48   45   46   47
          inv. 120 deg rotation - cart. axis [-1,-1,-1]          
     3s_h    26   28   27
          inv. 180 deg rotation - cart. axis [0,0,1]             
     6S4     31   32   39   40   36   35
          inv.  90 deg rotation - cart. axis [0,0,-1]            
     6s_d    29   30   38   37   34   33
          inv. 180 deg rotation - cart. axis [1,1,0]             

   Cartesian axes

     site n.     atom                  positions (alat units)
         1           Fe  tau(   1) = (   0.0000000   0.0000000   0.0000000  )
         2           Fe  tau(   2) = (   0.5000000   0.5000000   0.5000000  )

   Crystallographic axes

     site n.     atom                  positions (cryst. coord.)
         1           Fe  tau(   1) = (  0.0000000  0.0000000  0.0000000  )
         2           Fe  tau(   2) = (  0.5000000  0.5000000  0.5000000  )

     number of k points=    56  Gaussian smearing, width (Ry)=  0.0010
                       cart. coord. in units 2pi/alat
        k(    1) = (   0.0000000   0.0000000   0.0000000), wk =   0.0010000
        k(    2) = (   0.0000000   0.0000000   0.1000000), wk =   0.0060000
        k(    3) = (   0.0000000   0.0000000   0.2000000), wk =   0.0060000
        k(    4) = (   0.0000000   0.0000000   0.3000000), wk =   0.0060000
        k(    5) = (   0.0000000   0.0000000   0.4000000), wk =   0.0060000
        k(    6) = (   0.0000000   0.0000000  -0.5000000), wk =   0.0030000
        k(    7) = (   0.0000000   0.1000000   0.1000000), wk =   0.0120000
        k(    8) = (   0.0000000   0.1000000   0.2000000), wk =   0.0240000
        k(    9) = (   0.0000000   0.1000000   0.3000000), wk =   0.0240000
        k(   10) = (   0.0000000   0.1000000   0.4000000), wk =   0.0240000
        k(   11) = (   0.0000000   0.1000000  -0.5000000), wk =   0.0120000
        k(   12) = (   0.0000000   0.2000000   0.2000000), wk =   0.0120000
        k(   13) = (   0.0000000   0.2000000   0.3000000), wk =   0.0240000
        k(   14) = (   0.0000000   0.2000000   0.4000000), wk =   0.0240000
        k(   15) = (   0.0000000   0.2000000  -0.5000000), wk =   0.0120000
        k(   16) = (   0.0000000   0.3000000   0.3000000), wk =   0.0120000
        k(   17) = (   0.0000000   0.3000000   0.4000000), wk =   0.0240000
        k(   18) = (   0.0000000   0.3000000  -0.5000000), wk =   0.0120000
        k(   19) = (   0.0000000   0.4000000   0.4000000), wk =   0.0120000
        k(   20) = (   0.0000000   0.4000000  -0.5000000), wk =   0.0120000
        k(   21) = (   0.0000000  -0.5000000  -0.5000000), wk =   0.0030000
        k(   22) = (   0.1000000   0.1000000   0.1000000), wk =   0.0080000
        k(   23) = (   0.1000000   0.1000000   0.2000000), wk =   0.0240000
        k(   24) = (   0.1000000   0.1000000   0.3000000), wk =   0.0240000
        k(   25) = (   0.1000000   0.1000000   0.4000000), wk =   0.0240000
        k(   26) = (   0.1000000   0.1000000  -0.5000000), wk =   0.0120000
        k(   27) = (   0.1000000   0.2000000   0.2000000), wk =   0.0240000
        k(   28) = (   0.1000000   0.2000000   0.3000000), wk =   0.0480000
        k(   29) = (   0.1000000   0.2000000   0.4000000), wk =   0.0480000
        k(   30) = (   0.1000000   0.2000000  -0.5000000), wk =   0.0240000
        k(   31) = (   0.1000000   0.3000000   0.3000000), wk =   0.0240000
        k(   32) = (   0.1000000   0.3000000   0.4000000), wk =   0.0480000
        k(   33) = (   0.1000000   0.3000000  -0.5000000), wk =   0.0240000
        k(   34) = (   0.1000000   0.4000000   0.4000000), wk =   0.0240000
        k(   35) = (   0.1000000   0.4000000  -0.5000000), wk =   0.0240000
        k(   36) = (   0.1000000  -0.5000000  -0.5000000), wk =   0.0060000
        k(   37) = (   0.2000000   0.2000000   0.2000000), wk =   0.0080000
        k(   38) = (   0.2000000   0.2000000   0.3000000), wk =   0.0240000
        k(   39) = (   0.2000000   0.2000000   0.4000000), wk =   0.0240000
        k(   40) = (   0.2000000   0.2000000  -0.5000000), wk =   0.0120000
        k(   41) = (   0.2000000   0.3000000   0.3000000), wk =   0.0240000
        k(   42) = (   0.2000000   0.3000000   0.4000000), wk =   0.0480000
        k(   43) = (   0.2000000   0.3000000  -0.5000000), wk =   0.0240000
        k(   44) = (   0.2000000   0.4000000   0.4000000), wk =   0.0240000
        k(   45) = (   0.2000000   0.4000000  -0.5000000), wk =   0.0240000
        k(   46) = (   0.2000000  -0.5000000  -0.5000000), wk =   0.0060000
        k(   47) = (   0.3000000   0.3000000   0.3000000), wk =   0.0080000
        k(   48) = (   0.3000000   0.3000000   0.4000000), wk =   0.0240000
        k(   49) = (   0.3000000   0.3000000  -0.5000000), wk =   0.0120000
        k(   50) = (   0.3000000   0.4000000   0.4000000), wk =   0.0240000
        k(   51) = (   0.3000000   0.4000000  -0.5000000), wk =   0.0240000
        k(   52) = (   0.3000000  -0.5000000  -0.5000000), wk =   0.0060000
        k(   53) = (   0.4000000   0.4000000   0.4000000), wk =   0.0080000
        k(   54) = (   0.4000000   0.4000000  -0.5000000), wk =   0.0120000
        k(   55) = (   0.4000000  -0.5000000  -0.5000000), wk =   0.0060000
        k(   56) = (  -0.5000000  -0.5000000  -0.5000000), wk =   0.0010000

                       cryst. coord.
        k(    1) = (   0.0000000   0.0000000   0.0000000), wk =   0.0010000
        k(    2) = (   0.0000000   0.0000000   0.1000000), wk =   0.0060000
        k(    3) = (   0.0000000   0.0000000   0.2000000), wk =   0.0060000
        k(    4) = (   0.0000000   0.0000000   0.3000000), wk =   0.0060000
        k(    5) = (   0.0000000   0.0000000   0.4000000), wk =   0.0060000
        k(    6) = (   0.0000000   0.0000000  -0.5000000), wk =   0.0030000
        k(    7) = (   0.0000000   0.1000000   0.1000000), wk =   0.0120000
        k(    8) = (   0.0000000   0.1000000   0.2000000), wk =   0.0240000
        k(    9) = (   0.0000000   0.1000000   0.3000000), wk =   0.0240000
        k(   10) = (   0.0000000   0.1000000   0.4000000), wk =   0.0240000
        k(   11) = (   0.0000000   0.1000000  -0.5000000), wk =   0.0120000
        k(   12) = (   0.0000000   0.2000000   0.2000000), wk =   0.0120000
        k(   13) = (   0.0000000   0.2000000   0.3000000), wk =   0.0240000
        k(   14) = (   0.0000000   0.2000000   0.4000000), wk =   0.0240000
        k(   15) = (   0.0000000   0.2000000  -0.5000000), wk =   0.0120000
        k(   16) = (   0.0000000   0.3000000   0.3000000), wk =   0.0120000
        k(   17) = (   0.0000000   0.3000000   0.4000000), wk =   0.0240000
        k(   18) = (   0.0000000   0.3000000  -0.5000000), wk =   0.0120000
        k(   19) = (   0.0000000   0.4000000   0.4000000), wk =   0.0120000
        k(   20) = (   0.0000000   0.4000000  -0.5000000), wk =   0.0120000
        k(   21) = (   0.0000000  -0.5000000  -0.5000000), wk =   0.0030000
        k(   22) = (   0.1000000   0.1000000   0.1000000), wk =   0.0080000
        k(   23) = (   0.1000000   0.1000000   0.2000000), wk =   0.0240000
        k(   24) = (   0.1000000   0.1000000   0.3000000), wk =   0.0240000
        k(   25) = (   0.1000000   0.1000000   0.4000000), wk =   0.0240000
        k(   26) = (   0.1000000   0.1000000  -0.5000000), wk =   0.0120000
        k(   27) = (   0.1000000   0.2000000   0.2000000), wk =   0.0240000
        k(   28) = (   0.1000000   0.2000000   0.3000000), wk =   0.0480000
        k(   29) = (   0.1000000   0.2000000   0.4000000), wk =   0.0480000
        k(   30) = (   0.1000000   0.2000000  -0.5000000), wk =   0.0240000
        k(   31) = (   0.1000000   0.3000000   0.3000000), wk =   0.0240000
        k(   32) = (   0.1000000   0.3000000   0.4000000), wk =   0.0480000
        k(   33) = (   0.1000000   0.3000000  -0.5000000), wk =   0.0240000
        k(   34) = (   0.1000000   0.4000000   0.4000000), wk =   0.0240000
        k(   35) = (   0.1000000   0.4000000  -0.5000000), wk =   0.0240000
        k(   36) = (   0.1000000  -0.5000000  -0.5000000), wk =   0.0060000
        k(   37) = (   0.2000000   0.2000000   0.2000000), wk =   0.0080000
        k(   38) = (   0.2000000   0.2000000   0.3000000), wk =   0.0240000
        k(   39) = (   0.2000000   0.2000000   0.4000000), wk =   0.0240000
        k(   40) = (   0.2000000   0.2000000  -0.5000000), wk =   0.0120000
        k(   41) = (   0.2000000   0.3000000   0.3000000), wk =   0.0240000
        k(   42) = (   0.2000000   0.3000000   0.4000000), wk =   0.0480000
        k(   43) = (   0.2000000   0.3000000  -0.5000000), wk =   0.0240000
        k(   44) = (   0.2000000   0.4000000   0.4000000), wk =   0.0240000
        k(   45) = (   0.2000000   0.4000000  -0.5000000), wk =   0.0240000
        k(   46) = (   0.2000000  -0.5000000  -0.5000000), wk =   0.0060000
        k(   47) = (   0.3000000   0.3000000   0.3000000), wk =   0.0080000
        k(   48) = (   0.3000000   0.3000000   0.4000000), wk =   0.0240000
        k(   49) = (   0.3000000   0.3000000  -0.5000000), wk =   0.0120000
        k(   50) = (   0.3000000   0.4000000   0.4000000), wk =   0.0240000
        k(   51) = (   0.3000000   0.4000000  -0.5000000), wk =   0.0240000
        k(   52) = (   0.3000000  -0.5000000  -0.5000000), wk =   0.0060000
        k(   53) = (   0.4000000   0.4000000   0.4000000), wk =   0.0080000
        k(   54) = (   0.4000000   0.4000000  -0.5000000), wk =   0.0120000
        k(   55) = (   0.4000000  -0.5000000  -0.5000000), wk =   0.0060000
        k(   56) = (  -0.5000000  -0.5000000  -0.5000000), wk =   0.0010000

     Dense  grid:    49317 G-vectors     FFT dimensions: (  45,  45,  45)

     Smooth grid:    21247 G-vectors     FFT dimensions: (  36,  36,  36)

     Dynamical RAM for                 wfc:       0.08 MB

     Dynamical RAM for     wfc (w. buffer):       4.63 MB

     Dynamical RAM for           str. fact:       0.08 MB

     Dynamical RAM for           local pot:       0.00 MB

     Dynamical RAM for          nlocal pot:       0.15 MB

     Dynamical RAM for                qrad:       2.12 MB

     Dynamical RAM for          rho,v,vnew:       0.91 MB

     Dynamical RAM for               rhoin:       0.30 MB

     Dynamical RAM for            rho*nmix:       2.41 MB

     Dynamical RAM for           G-vectors:       0.30 MB

     Dynamical RAM for          h,s,v(r/c):       0.07 MB

     Dynamical RAM for          <psi|beta>:       0.01 MB

     Dynamical RAM for                 psi:       0.16 MB

     Dynamical RAM for                hpsi:       0.16 MB

     Dynamical RAM for                spsi:       0.16 MB

     Dynamical RAM for      wfcinit/wfcrot:       0.17 MB

     Dynamical RAM for           addusdens:       7.18 MB

     Estimated static dynamical RAM per process >       9.10 MB

     Estimated max dynamical RAM per process >      18.69 MB

     Estimated total dynamical RAM >     349.81 MB
     Generating pointlists ...
     new r_m :   0.3572 (alat units)  1.9307 (a.u.) for type    1

     The initial density is read from file :
     ./out/Fe.save/charge-density


     starting charge      32.3380, renormalised to      32.0000

     negative rho (up, down):  0.000E+00 1.170E-04
     Starting wfcs from file
     Checking if some PAW data can be deallocated... 

     total cpu time spent up to now is        0.5 secs

     Self-consistent Calculation

     iteration #  1     ecut=   100.00 Ry     beta= 0.40
     Davidson diagonalization with overlap

---- Real-time Memory Report at c_bands before calling an iterative solver
            55 MiB given to the printing process from OS
             0 MiB allocation reported by mallinfo(arena+hblkhd)
        360190 MiB available memory on the node where the printing process lives
------------------
     ethr =  1.00E-05,  avg # of iterations =  4.7

     negative rho (up, down):  0.000E+00 1.016E-04

     total cpu time spent up to now is        1.9 secs

     total energy              =    -658.52022530 Ry
     estimated scf accuracy    <       0.05675284 Ry

     total magnetization       =     4.62 Bohr mag/cell
     absolute magnetization    =     4.84 Bohr mag/cell

     iteration #  2     ecut=   100.00 Ry     beta= 0.40
     Davidson diagonalization with overlap

---- Real-time Memory Report at c_bands before calling an iterative solver
            72 MiB given to the printing process from OS
             0 MiB allocation reported by mallinfo(arena+hblkhd)
        359913 MiB available memory on the node where the printing process lives
------------------
     ethr =  1.77E-04,  avg # of iterations =  3.3

     negative rho (up, down):  0.000E+00 1.108E-04

     total cpu time spent up to now is        2.9 secs

     total energy              =    -658.53722824 Ry
     estimated scf accuracy    <       0.02348224 Ry

     total magnetization       =     4.37 Bohr mag/cell
     absolute magnetization    =     4.65 Bohr mag/cell

     iteration #  3     ecut=   100.00 Ry     beta= 0.40
     Davidson diagonalization with overlap

---- Real-time Memory Report at c_bands before calling an iterative solver
            75 MiB given to the printing process from OS
             0 MiB allocation reported by mallinfo(arena+hblkhd)
        359905 MiB available memory on the node where the printing process lives
------------------
     ethr =  7.34E-05,  avg # of iterations =  2.0

     negative rho (up, down):  0.000E+00 1.195E-04

     total cpu time spent up to now is        3.7 secs

     total energy              =    -658.53964253 Ry
     estimated scf accuracy    <       0.00068607 Ry

     total magnetization       =     4.48 Bohr mag/cell
     absolute magnetization    =     4.73 Bohr mag/cell

     iteration #  4     ecut=   100.00 Ry     beta= 0.40
     Davidson diagonalization with overlap

---- Real-time Memory Report at c_bands before calling an iterative solver
            77 MiB given to the printing process from OS
             0 MiB allocation reported by mallinfo(arena+hblkhd)
        359893 MiB available memory on the node where the printing process lives
------------------
     ethr =  2.14E-06,  avg # of iterations =  3.8

     negative rho (up, down):  0.000E+00 1.191E-04

     total cpu time spent up to now is        4.8 secs

     total energy              =    -658.54008886 Ry
     estimated scf accuracy    <       0.00142160 Ry

     total magnetization       =     4.50 Bohr mag/cell
     absolute magnetization    =     4.75 Bohr mag/cell

     iteration #  5     ecut=   100.00 Ry     beta= 0.40
     Davidson diagonalization with overlap

---- Real-time Memory Report at c_bands before calling an iterative solver
            78 MiB given to the printing process from OS
             0 MiB allocation reported by mallinfo(arena+hblkhd)
        359881 MiB available memory on the node where the printing process lives
------------------
     ethr =  2.14E-06,  avg # of iterations =  2.1

     negative rho (up, down):  0.000E+00 1.186E-04

     total cpu time spent up to now is        5.7 secs

     total energy              =    -658.54010305 Ry
     estimated scf accuracy    <       0.00067555 Ry

     total magnetization       =     4.50 Bohr mag/cell
     absolute magnetization    =     4.75 Bohr mag/cell

     iteration #  6     ecut=   100.00 Ry     beta= 0.40
     Davidson diagonalization with overlap

---- Real-time Memory Report at c_bands before calling an iterative solver
            78 MiB given to the printing process from OS
             0 MiB allocation reported by mallinfo(arena+hblkhd)
        359870 MiB available memory on the node where the printing process lives
------------------
     ethr =  2.11E-06,  avg # of iterations =  1.4

     negative rho (up, down):  0.000E+00 1.190E-04

     total cpu time spent up to now is        6.5 secs

     total energy              =    -658.54011950 Ry
     estimated scf accuracy    <       0.00006424 Ry

     total magnetization       =     4.50 Bohr mag/cell
     absolute magnetization    =     4.75 Bohr mag/cell

     iteration #  7     ecut=   100.00 Ry     beta= 0.40
     Davidson diagonalization with overlap

---- Real-time Memory Report at c_bands before calling an iterative solver
            78 MiB given to the printing process from OS
             0 MiB allocation reported by mallinfo(arena+hblkhd)
        359862 MiB available memory on the node where the printing process lives
------------------
     ethr =  2.01E-07,  avg # of iterations =  2.9

     negative rho (up, down):  0.000E+00 1.204E-04

     total cpu time spent up to now is        7.4 secs

     total energy              =    -658.54013541 Ry
     estimated scf accuracy    <       0.00000084 Ry

     total magnetization       =     4.50 Bohr mag/cell
     absolute magnetization    =     4.75 Bohr mag/cell

     iteration #  8     ecut=   100.00 Ry     beta= 0.40
     Davidson diagonalization with overlap

---- Real-time Memory Report at c_bands before calling an iterative solver
            79 MiB given to the printing process from OS
             0 MiB allocation reported by mallinfo(arena+hblkhd)
        359855 MiB available memory on the node where the printing process lives
------------------
     ethr =  2.64E-09,  avg # of iterations =  2.8

     negative rho (up, down):  0.000E+00 1.216E-04

     total cpu time spent up to now is        8.4 secs

     total energy              =    -658.54013575 Ry
     estimated scf accuracy    <       0.00000072 Ry

     total magnetization       =     4.50 Bohr mag/cell
     absolute magnetization    =     4.75 Bohr mag/cell

     iteration #  9     ecut=   100.00 Ry     beta= 0.40
     Davidson diagonalization with overlap

---- Real-time Memory Report at c_bands before calling an iterative solver
            79 MiB given to the printing process from OS
             0 MiB allocation reported by mallinfo(arena+hblkhd)
        359848 MiB available memory on the node where the printing process lives
------------------
     ethr =  2.26E-09,  avg # of iterations =  1.0

     negative rho (up, down):  0.000E+00 1.218E-04

     total cpu time spent up to now is        9.1 secs

     total energy              =    -658.54013578 Ry
     estimated scf accuracy    <       0.00000008 Ry

     total magnetization       =     4.50 Bohr mag/cell
     absolute magnetization    =     4.75 Bohr mag/cell

     iteration # 10     ecut=   100.00 Ry     beta= 0.40
     Davidson diagonalization with overlap

---- Real-time Memory Report at c_bands before calling an iterative solver
            80 MiB given to the printing process from OS
             0 MiB allocation reported by mallinfo(arena+hblkhd)
        359843 MiB available memory on the node where the printing process lives
------------------
     ethr =  2.60E-10,  avg # of iterations =  2.3

     negative rho (up, down):  0.000E+00 1.218E-04

     total cpu time spent up to now is       10.0 secs

     total energy              =    -658.54013579 Ry
     estimated scf accuracy    <       0.00000003 Ry

     total magnetization       =     4.50 Bohr mag/cell
     absolute magnetization    =     4.75 Bohr mag/cell

     iteration # 11     ecut=   100.00 Ry     beta= 0.40
     Davidson diagonalization with overlap

---- Real-time Memory Report at c_bands before calling an iterative solver
            80 MiB given to the printing process from OS
             0 MiB allocation reported by mallinfo(arena+hblkhd)
        359838 MiB available memory on the node where the printing process lives
------------------
     ethr =  8.63E-11,  avg # of iterations =  1.1

     negative rho (up, down):  0.000E+00 1.218E-04

     total cpu time spent up to now is       10.8 secs

     total energy              =    -658.54013578 Ry
     estimated scf accuracy    <       0.00000003 Ry

     total magnetization       =     4.50 Bohr mag/cell
     absolute magnetization    =     4.75 Bohr mag/cell

     iteration # 12     ecut=   100.00 Ry     beta= 0.40
     Davidson diagonalization with overlap

---- Real-time Memory Report at c_bands before calling an iterative solver
            80 MiB given to the printing process from OS
             0 MiB allocation reported by mallinfo(arena+hblkhd)
        359836 MiB available memory on the node where the printing process lives
------------------
     ethr =  8.49E-11,  avg # of iterations =  2.1

     negative rho (up, down):  0.000E+00 1.218E-04
 
     Magnetic moment per site  (integrated on atomic sphere of radius R)
     atom   1 (R=0.357)  charge= 14.4158  magn=  2.3007
     atom   2 (R=0.357)  charge= 14.4160  magn=  2.3008

     total cpu time spent up to now is       11.7 secs

     End of self-consistent calculation

 ------ SPIN UP ------------


          k = 0.0000 0.0000 0.0000 (  2601 PWs)   bands (ev):

   -70.4107 -70.2894 -36.4996 -36.4996 -36.4996 -36.2298 -36.2298 -36.2298
     9.2876  12.9429  12.9429  15.4035  15.4035  15.4035  16.5691  16.5691
    17.7442  17.7442  17.7442  27.2831

     occupation numbers 
     1.0000   1.0000   1.0000   1.0000   1.0000   1.0000   1.0000   1.0000
     1.0000   1.0000   1.0000   1.0000   1.0000   1.0000   1.0000   1.0000
     0.0000   0.0000   0.0000   0.0000

          k = 0.0000 0.0000 0.1000 (  2653 PWs)   bands (ev):

   -70.4073 -70.2919 -36.4985 -36.4927 -36.4927 -36.2420 -36.2360 -36.2360
     9.4907  13.0282  13.0292  15.4022  15.4022  15.4581  16.4799  16.6041
    17.5777  17.5777  17.6843  25.9613

     occupation numbers 
     1.0000   1.0000   1.0000   1.0000   1.0000   1.0000   1.0000   1.0000
     1.0000   1.0000   1.0000   1.0000   1.0000   1.0000   1.0000   1.0000
     1.0000   1.0000   0.0258   0.0000

          k = 0.0000 0.0000 0.2000 (  2669 PWs)   bands (ev):

   -70.3976 -70.2994 -36.4938 -36.4726 -36.4726 -36.2758 -36.2542 -36.2542
    10.0819  13.2500  13.2771  15.4107  15.4107  15.6174  16.2200  16.7043
    17.1621  17.1621  17.5113  23.5343

     occupation numbers 
     1.0000   1.0000   1.0000   1.0000   1.0000   1.0000   1.0000   1.0000
     1.0000   1.0000   1.0000   1.0000   1.0000   1.0000   1.0000   1.0000
     1.0000   1.0000   1.0000   0.0000

          k = 0.0000 0.0000 0.3000 (  2685 PWs)   bands (ev):

   -70.3828 -70.3115 -36.4818 -36.4415 -36.4415 -36.3237 -36.2829 -36.2829
    10.9976  13.4848  13.6690  15.4605  15.4605  15.8131  15.8678  16.6589
    16.6589  16.8692  17.2439  21.1275

     occupation numbers 
     1.0000   1.0000   1.0000   1.0000   1.0000   1.0000   1.0000   1.0000
     1.0000   1.0000   1.0000   1.0000   1.0000   1.0000   1.0000   1.0000
     1.0000   1.0000   1.0000   0.0000

          k = 0.0000 0.0000 0.4000 (  2670 PWs)   bands (ev):

   -70.3648 -70.3273 -36.4588 -36.4029 -36.4029 -36.3757 -36.3195 -36.3195
    12.0900  13.5118  14.1696  15.2994  15.5901  15.5901  16.1872  16.1932
    16.1932  16.9107  17.1589  19.1253

     occupation numbers 
     1.0000   1.0000   1.0000   1.0000   1.0000   1.0000   1.0000   1.0000
     1.0000   1.0000   1.0000   1.0000   1.0000   1.0000   1.0000   1.0000
     1.0000   1.0000   1.0000   0.0000

          k = 0.0000 0.0000-0.5000 (  2666 PWs)   bands (ev):

   -70.3456 -70.3456 -36.4228 -36.4228 -36.3609 -36.3609 -36.3608 -36.3608
    13.0505  13.0505  14.7318  14.7319  15.8304  15.8304  15.8305  15.8305
    16.5463  16.5464  17.8016  17.8017

     occupation numbers 
     1.0000   1.0000   1.0000   1.0000   1.0000   1.0000   1.0000   1.0000
     1.0000   1.0000   1.0000   1.0000   1.0000   1.0000   1.0000   1.0000
     1.0000   1.0000   0.0000   0.0000

          k = 0.0000 0.1000 0.1000 (  2658 PWs)   bands (ev):

   -70.4041 -70.2943 -36.5096 -36.4860 -36.4742 -36.2660 -36.2419 -36.2297
     9.6904  13.1057  13.1199  15.2968  15.3891  15.6157  16.4730  16.5780
    17.2920  17.4122  17.7688  26.0285

     occupation numbers 
     1.0000   1.0000   1.0000   1.0000   1.0000   1.0000   1.0000   1.0000
     1.0000   1.0000   1.0000   1.0000   1.0000   1.0000   1.0000   1.0000
     1.0000   1.0000   0.0000   0.0000

          k = 0.0000 0.1000 0.2000 (  2667 PWs)   bands (ev):

   -70.3948 -70.3014 -36.5149 -36.4668 -36.4458 -36.3082 -36.2591 -36.2376
    10.2697  13.3163  13.3667  15.2226  15.3631  15.8535  16.2895  16.6640
    16.8227  17.0087  17.7059  23.7771

     occupation numbers 
     1.0000   1.0000   1.0000   1.0000   1.0000   1.0000   1.0000   1.0000
     1.0000   1.0000   1.0000   1.0000   1.0000   1.0000   1.0000   1.0000
     1.0000   1.0000   0.0000   0.0000

          k = 0.0000 0.1000 0.3000 (  2680 PWs)   bands (ev):

   -70.3806 -70.3128 -36.5098 -36.4372 -36.4107 -36.3599 -36.2863 -36.2593
    11.1599  13.5480  13.7320  15.2195  15.3227  16.0151  16.1479  16.3173
    16.5508  16.8329  17.4999  21.3495

     occupation numbers 
     1.0000   1.0000   1.0000   1.0000   1.0000   1.0000   1.0000   1.0000
     1.0000   1.0000   1.0000   1.0000   1.0000   1.0000   1.0000   1.0000
     1.0000   1.0000   1.0000   0.0000

          k = 0.0000 0.1000 0.4000 (  2684 PWs)   bands (ev):

   -70.3634 -70.3277 -36.4914 -36.4128 -36.4004 -36.3710 -36.3211 -36.2913
    12.2056  13.5614  14.1915  15.1219  15.3136  15.8677  15.8818  16.1916
    16.4873  17.1392  17.1992  19.2893

     occupation numbers 
     1.0000   1.0000   1.0000   1.0000   1.0000   1.0000   1.0000   1.0000
     1.0000   1.0000   1.0000   1.0000   1.0000   1.0000   1.0000   1.0000
     1.0000   1.0000   1.0000   0.0000

          k = 0.0000 0.1000-0.5000 (  2678 PWs)   bands (ev):

   -70.3452 -70.3452 -36.4585 -36.4584 -36.3604 -36.3604 -36.3299 -36.3299
    13.1111  13.1111  14.6887  14.6888  15.5271  15.5272  15.9799  15.9799
    16.8486  16.8486  17.8594  17.8595

     occupation numbers 
     1.0000   1.0000   1.0000   1.0000   1.0000   1.0000   1.0000   1.0000
     1.0000   1.0000   1.0000   1.0000   1.0000   1.0000   1.0000   1.0000
     1.0000   1.0000   0.0000   0.0000

          k = 0.0000 0.2000 0.2000 (  2674 PWs)   bands (ev):

   -70.3867 -70.3072 -36.5355 -36.4503 -36.4072 -36.3603 -36.2736 -36.2296
    10.8068  13.4468  13.6506  15.0249  15.2854  16.2003  16.2982  16.3827
    16.6094  16.6630  17.8336  23.7828

     occupation numbers 
     1.0000   1.0000   1.0000   1.0000   1.0000   1.0000   1.0000   1.0000
     1.0000   1.0000   1.0000   1.0000   1.0000   1.0000   1.0000   1.0000
     1.0000   1.0000   0.0000   0.0000

          k = 0.0000 0.2000 0.3000 (  2665 PWs)   bands (ev):

   -70.3744 -70.3167 -36.5442 -36.4248 -36.4174 -36.3663 -36.2964 -36.2370
    11.6022  13.5650  14.0423  14.9155  15.2396  15.7872  16.3051  16.3470
    16.5724  16.7361  17.7869  21.7882

     occupation numbers 
     1.0000   1.0000   1.0000   1.0000   1.0000   1.0000   1.0000   1.0000
     1.0000   1.0000   1.0000   1.0000   1.0000   1.0000   1.0000   1.0000
     1.0000   1.0000   0.0000   0.0000

          k = 0.0000 0.2000 0.4000 (  2662 PWs)   bands (ev):

   -70.3596 -70.3292 -36.5371 -36.4706 -36.3933 -36.3258 -36.3258 -36.2577
    12.4679  13.5114  14.4615  14.9246  15.1365  15.3649  16.2216  16.2672
    16.9479  17.0777  17.5943  19.6629

     occupation numbers 
     1.0000   1.0000   1.0000   1.0000   1.0000   1.0000   1.0000   1.0000
     1.0000   1.0000   1.0000   1.0000   1.0000   1.0000   1.0000   1.0000
     1.0000   1.0000   1.0000   0.0000

          k = 0.0000 0.2000-0.5000 (  2668 PWs)   bands (ev):

   -70.3440 -70.3440 -36.5121 -36.5121 -36.3592 -36.3591 -36.2884 -36.2884
    13.1513  13.1513  14.8534  14.8534  15.0724  15.0725  16.2513  16.2514
    17.3003  17.3003  18.0111  18.0112

     occupation numbers 
     1.0000   1.0000   1.0000   1.0000   1.0000   1.0000   1.0000   1.0000
     1.0000   1.0000   1.0000   1.0000   1.0000   1.0000   1.0000   1.0000
     1.0000   1.0000   0.0000   0.0000

          k = 0.0000 0.3000 0.3000 (  2670 PWs)   bands (ev):

   -70.3651 -70.3232 -36.5674 -36.4757 -36.4058 -36.3237 -36.3126 -36.2295
    12.1786  13.4766  14.5289  14.7026  15.2988  15.4111  16.2445  16.4923
    16.6649  16.9936  17.9144  21.5094

     occupation numbers 
     1.0000   1.0000   1.0000   1.0000   1.0000   1.0000   1.0000   1.0000
     1.0000   1.0000   1.0000   1.0000   1.0000   1.0000   1.0000   1.0000
     1.0000   1.0000   0.0000   0.0000

          k = 0.0000 0.3000 0.4000 (  2663 PWs)   bands (ev):

   -70.3540 -70.3320 -36.5736 -36.5255 -36.3826 -36.3335 -36.2861 -36.2364
    12.6835  13.2945  14.6205  14.9217  15.0429  15.6525  16.3157  16.5501
    16.9683  17.3732  17.8698  19.9073

     occupation numbers 
     1.0000   1.0000   1.0000   1.0000   1.0000   1.0000   1.0000   1.0000
     1.0000   1.0000   1.0000   1.0000   1.0000   1.0000   1.0000   1.0000
     1.0000   1.0000   0.0000   0.0000

          k = 0.0000 0.3000-0.5000 (  2668 PWs)   bands (ev):

   -70.3426 -70.3426 -36.5595 -36.5595 -36.3577 -36.3576 -36.2561 -36.2561
    13.0375  13.0376  14.6914  14.6914  15.4657  15.4658  16.4717  16.4717
    17.6773  17.6774  18.1709  18.1709

     occupation numbers 
     1.0000   1.0000   1.0000   1.0000   1.0000   1.0000   1.0000   1.0000
     1.0000   1.0000   1.0000   1.0000   1.0000   1.0000   1.0000   1.0000
     0.1106   0.1105   0.0000   0.0000

          k = 0.0000 0.4000 0.4000 (  2660 PWs)   bands (ev):

   -70.3477 -70.3361 -36.5932 -36.5680 -36.3697 -36.3440 -36.2555 -36.2294
    12.7937  13.0657  14.4519  14.6041  15.7183  16.4562  16.4617  16.7241
    16.9472  17.7097  17.9803  19.4424

     occupation numbers 
     1.0000   1.0000   1.0000   1.0000   1.0000   1.0000   1.0000   1.0000
     1.0000   1.0000   1.0000   1.0000   1.0000   1.0000   1.0000   1.0000
     1.0000   0.0000   0.0000   0.0000

          k = 0.0000 0.4000-0.5000 (  2656 PWs)   bands (ev):

   -70.3414 -70.3414 -36.5917 -36.5917 -36.3564 -36.3564 -36.2361 -36.2361
    12.8982  12.8982  14.4439  14.4439  16.2811  16.2812  16.6024  16.6025
    17.9214  17.9214  18.1964  18.1964

     occupation numbers 
     1.0000   1.0000   1.0000   1.0000   1.0000   1.0000   1.0000   1.0000
     1.0000   1.0000   1.0000   1.0000   1.0000   1.0000   1.0000   1.0000
     0.0000   0.0000   0.0000   0.0000

          k = 0.0000-0.5000-0.5000 (  2680 PWs)   bands (ev):

   -70.3410 -70.3410 -36.6031 -36.6031 -36.3559 -36.3559 -36.2293 -36.2293
    12.8419  12.8420  14.3583  14.3583  16.6330  16.6331  16.7502  16.7504
    18.0056  18.0056  18.1121  18.1121

     occupation numbers 
     1.0000   1.0000   1.0000   1.0000   1.0000   1.0000   1.0000   1.0000
     1.0000   1.0000   1.0000   1.0000   1.0000   1.0000   1.0000   1.0000
     0.0000   0.0000   0.0000   0.0000

          k = 0.1000 0.1000 0.1000 (  2647 PWs)   bands (ev):

   -70.4010 -70.2965 -36.5023 -36.5023 -36.4518 -36.2880 -36.2362 -36.2362
     9.8871  13.1958  13.1958  15.2782  15.2782  15.7774  16.5160  16.5160
    16.9220  17.6028  17.6028  26.3697

     occupation numbers 
     1.0000   1.0000   1.0000   1.0000   1.0000   1.0000   1.0000   1.0000
     1.0000   1.0000   1.0000   1.0000   1.0000   1.0000   1.0000   1.0000
     1.0000   1.0000   1.0000   0.0000

          k = 0.1000 0.1000 0.2000 (  2666 PWs)   bands (ev):

   -70.3921 -70.3032 -36.5153 -36.4815 -36.4199 -36.3311 -36.2551 -36.2386
    10.4562  13.4155  13.4240  15.1662  15.2271  16.0592  16.3432  16.4118
    16.6305  17.1953  17.6411  24.0329

     occupation numbers 
     1.0000   1.0000   1.0000   1.0000   1.0000   1.0000   1.0000   1.0000
     1.0000   1.0000   1.0000   1.0000   1.0000   1.0000   1.0000   1.0000
     1.0000   1.0000   0.9946   0.0000

          k = 0.1000 0.1000 0.3000 (  2672 PWs)   bands (ev):

   -70.3785 -70.3140 -36.5172 -36.4494 -36.3844 -36.3827 -36.2849 -36.2535
    11.3244  13.6537  13.7554  15.1385  15.1513  15.9380  16.1152  16.3938
    16.7170  16.8059  17.5079  21.5909

     occupation numbers 
     1.0000   1.0000   1.0000   1.0000   1.0000   1.0000   1.0000   1.0000
     1.0000   1.0000   1.0000   1.0000   1.0000   1.0000   1.0000   1.0000
     1.0000   1.0000   1.0000   0.0000

          k = 0.1000 0.1000 0.4000 (  2678 PWs)   bands (ev):

   -70.3621 -70.3282 -36.5047 -36.4338 -36.4094 -36.3472 -36.3229 -36.2786
    12.3298  13.6453  14.1736  14.9506  15.2587  15.6197  15.9651  16.3007
    16.7114  17.1685  17.2609  19.5032

     occupation numbers 
     1.0000   1.0000   1.0000   1.0000   1.0000   1.0000   1.0000   1.0000
     1.0000   1.0000   1.0000   1.0000   1.0000   1.0000   1.0000   1.0000
     1.0000   1.0000   1.0000   0.0000

          k = 0.1000 0.1000-0.5000 (  2672 PWs)   bands (ev):

   -70.3447 -70.3447 -36.4763 -36.4763 -36.3658 -36.3657 -36.3109 -36.3109
    13.1916  13.1916  14.6046  14.6047  15.4342  15.4342  16.0293  16.0293
    16.9759  16.9759  18.0055  18.0056

     occupation numbers 
     1.0000   1.0000   1.0000   1.0000   1.0000   1.0000   1.0000   1.0000
     1.0000   1.0000   1.0000   1.0000   1.0000   1.0000   1.0000   1.0000
     1.0000   1.0000   0.0000   0.0000

          k = 0.1000 0.2000 0.2000 (  2673 PWs)   bands (ev):

   -70.3843 -70.3087 -36.5276 -36.4734 -36.3835 -36.3774 -36.2670 -36.2367
    10.9888  13.5553  13.6982  14.9872  15.1235  15.8839  16.4095  16.4387
    16.5893  16.9820  17.6623  24.1208

     occupation numbers 
     1.0000   1.0000   1.0000   1.0000   1.0000   1.0000   1.0000   1.0000
     1.0000   1.0000   1.0000   1.0000   1.0000   1.0000   1.0000   1.0000
     1.0000   1.0000   0.6334   0.0000

          k = 0.1000 0.2000 0.3000 (  2679 PWs)   bands (ev):

   -70.3726 -70.3177 -36.5385 -36.4451 -36.4297 -36.3468 -36.2930 -36.2420
    11.7728  13.6934  14.0491  14.8677  15.0655  15.4550  16.3319  16.6120
    16.7067  16.8617  17.6268  22.0920

     occupation numbers 
     1.0000   1.0000   1.0000   1.0000   1.0000   1.0000   1.0000   1.0000
     1.0000   1.0000   1.0000   1.0000   1.0000   1.0000   1.0000   1.0000
     1.0000   1.0000   1.0000   0.0000

          k = 0.1000 0.2000 0.4000 (  2667 PWs)   bands (ev):

   -70.3584 -70.3296 -36.5355 -36.4783 -36.4079 -36.3276 -36.3121 -36.2575
    12.6151  13.6432  14.3732  14.7882  15.0889  15.2412  16.2553  16.3546
    16.8882  17.4252  17.4450  19.9828

     occupation numbers 
     1.0000   1.0000   1.0000   1.0000   1.0000   1.0000   1.0000   1.0000
     1.0000   1.0000   1.0000   1.0000   1.0000   1.0000   1.0000   1.0000
     1.0000   1.0000   1.0000   0.0000

          k = 0.1000 0.2000-0.5000 (  2678 PWs)   bands (ev):

   -70.3436 -70.3436 -36.5152 -36.5152 -36.3673 -36.3672 -36.2817 -36.2816
    13.2758  13.2758  14.6331  14.6331  15.1611  15.1611  16.2645  16.2645
    17.1588  17.1588  18.3818  18.3819

     occupation numbers 
     1.0000   1.0000   1.0000   1.0000   1.0000   1.0000   1.0000   1.0000
     1.0000   1.0000   1.0000   1.0000   1.0000   1.0000   1.0000   1.0000
     1.0000   1.0000   0.0000   0.0000

          k = 0.1000 0.3000 0.3000 (  2669 PWs)   bands (ev):

   -70.3637 -70.3238 -36.5588 -36.4809 -36.4244 -36.3114 -36.3108 -36.2373
    12.3534  13.6061  14.5274  14.6669  15.0657  15.1730  16.4406  16.4938
    16.6657  17.3315  17.7032  21.9191

     occupation numbers 
     1.0000   1.0000   1.0000   1.0000   1.0000   1.0000   1.0000   1.0000
     1.0000   1.0000   1.0000   1.0000   1.0000   1.0000   1.0000   1.0000
     1.0000   1.0000   0.0000   0.0000

          k = 0.1000 0.3000 0.4000 (  2655 PWs)   bands (ev):

   -70.3531 -70.3321 -36.5660 -36.5252 -36.3959 -36.3355 -36.2812 -36.2428
    12.8450  13.4240  14.5780  14.7463  15.0667  15.4385  16.4097  16.5130
    16.8307  17.6029  17.8907  20.3741

     occupation numbers 
     1.0000   1.0000   1.0000   1.0000   1.0000   1.0000   1.0000   1.0000
     1.0000   1.0000   1.0000   1.0000   1.0000   1.0000   1.0000   1.0000
     1.0000   1.0000   0.0000   0.0000

          k = 0.1000 0.3000-0.5000 (  2672 PWs)   bands (ev):

   -70.3421 -70.3421 -36.5549 -36.5549 -36.3650 -36.3650 -36.2578 -36.2578
    13.1767  13.1767  14.6093  14.6093  15.4043  15.4044  16.4839  16.4840
    17.2695  17.2695  18.8267  18.8267

     occupation numbers 
     1.0000   1.0000   1.0000   1.0000   1.0000   1.0000   1.0000   1.0000
     1.0000   1.0000   1.0000   1.0000   1.0000   1.0000   1.0000   1.0000
     1.0000   1.0000   0.0000   0.0000

          k = 0.1000 0.4000 0.4000 (  2658 PWs)   bands (ev):

   -70.3469 -70.3359 -36.5840 -36.5627 -36.3795 -36.3473 -36.2577 -36.2379
    12.9461  13.1956  14.4276  14.5496  15.6397  16.1824  16.5092  16.6434
    16.7282  17.5776  18.4251  20.1124

     occupation numbers 
     1.0000   1.0000   1.0000   1.0000   1.0000   1.0000   1.0000   1.0000
     1.0000   1.0000   1.0000   1.0000   1.0000   1.0000   1.0000   1.0000
     1.0000   1.0000   0.0000   0.0000

          k = 0.1000 0.4000-0.5000 (  2662 PWs)   bands (ev):

   -70.3410 -70.3410 -36.5833 -36.5833 -36.3624 -36.3624 -36.2430 -36.2430
    13.0366  13.0366  14.4156  14.4156  16.1606  16.1607  16.6133  16.6133
    17.2193  17.2193  19.1926  19.1926

     occupation numbers 
     1.0000   1.0000   1.0000   1.0000   1.0000   1.0000   1.0000   1.0000
     1.0000   1.0000   1.0000   1.0000   1.0000   1.0000   1.0000   1.0000
     1.0000   1.0000   0.0000   0.0000

          k = 0.1000-0.5000-0.5000 (  2668 PWs)   bands (ev):

   -70.3405 -70.3405 -36.5936 -36.5936 -36.3613 -36.3613 -36.2381 -36.2381
    12.9794  12.9794  14.3398  14.3398  16.6505  16.6506  16.7535  16.7536
    16.9564  16.9564  19.3442  19.3442

     occupation numbers 
     1.0000   1.0000   1.0000   1.0000   1.0000   1.0000   1.0000   1.0000
     1.0000   1.0000   1.0000   1.0000   1.0000   1.0000   1.0000   1.0000
     1.0000   1.0000   0.0000   0.0000

          k = 0.2000 0.2000 0.2000 (  2665 PWs)   bands (ev):

   -70.3775 -70.3132 -36.5049 -36.5049 -36.4156 -36.3488 -36.2574 -36.2574
    11.5037  13.8319  13.8319  14.8872  14.8872  15.3425  16.5307  16.5307
    16.8694  17.2663  17.2663  25.0158

     occupation numbers 
     1.0000   1.0000   1.0000   1.0000   1.0000   1.0000   1.0000   1.0000
     1.0000   1.0000   1.0000   1.0000   1.0000   1.0000   1.0000   1.0000
     1.0000   1.0000   1.0000   0.0000

          k = 0.2000 0.2000 0.3000 (  2673 PWs)   bands (ev):

   -70.3674 -70.3206 -36.5277 -36.4699 -36.4596 -36.3170 -36.2901 -36.2540
    12.2407  14.0255  14.0669  14.7533  14.7914  14.9834  16.4464  16.6783
    16.8460  17.3543  17.3844  22.7870

     occupation numbers 
     1.0000   1.0000   1.0000   1.0000   1.0000   1.0000   1.0000   1.0000
     1.0000   1.0000   1.0000   1.0000   1.0000   1.0000   1.0000   1.0000
     1.0000   1.0000   1.0000   0.0000

          k = 0.2000 0.2000 0.4000 (  2667 PWs)   bands (ev):

   -70.3551 -70.3306 -36.5357 -36.4990 -36.4263 -36.3317 -36.2907 -36.2585
    12.9782  13.9075  14.2396  14.6045  14.9146  15.0348  16.3750  16.5337
    16.8398  17.2549  18.0380  20.6758

     occupation numbers 
     1.0000   1.0000   1.0000   1.0000   1.0000   1.0000   1.0000   1.0000
     1.0000   1.0000   1.0000   1.0000   1.0000   1.0000   1.0000   1.0000
     1.0000   1.0000   0.0000   0.0000

          k = 0.2000 0.2000-0.5000 (  2664 PWs)   bands (ev):

   -70.3424 -70.3424 -36.5259 -36.5259 -36.3787 -36.3786 -36.2709 -36.2709
    13.5209  13.5209  14.4369  14.4370  15.0917  15.0917  16.3824  16.3825
    17.0414  17.0415  19.0647  19.0647

     occupation numbers 
     1.0000   1.0000   1.0000   1.0000   1.0000   1.0000   1.0000   1.0000
     1.0000   1.0000   1.0000   1.0000   1.0000   1.0000   1.0000   1.0000
     1.0000   1.0000   0.0000   0.0000

          k = 0.2000 0.3000 0.3000 (  2670 PWs)   bands (ev):

   -70.3596 -70.3256 -36.5338 -36.4950 -36.4604 -36.3052 -36.2922 -36.2604
    12.8399  13.9573  14.5156  14.5777  14.6553  14.7569  16.5563  16.6638
    16.7423  17.2889  17.9911  22.9313

     occupation numbers 
     1.0000   1.0000   1.0000   1.0000   1.0000   1.0000   1.0000   1.0000
     1.0000   1.0000   1.0000   1.0000   1.0000   1.0000   1.0000   1.0000
     1.0000   1.0000   0.0000   0.0000

          k = 0.2000 0.3000 0.4000 (  2661 PWs)   bands (ev):

   -70.3504 -70.3325 -36.5452 -36.5254 -36.4244 -36.3393 -36.2748 -36.2610
    13.2857  13.7559  14.4824  14.4856  14.9850  14.9904  16.5478  16.5970
    16.7781  17.2016  18.7240  21.3580

     occupation numbers 
     1.0000   1.0000   1.0000   1.0000   1.0000   1.0000   1.0000   1.0000
     1.0000   1.0000   1.0000   1.0000   1.0000   1.0000   1.0000   1.0000
     1.0000   1.0000   0.0000   0.0000

          k = 0.2000 0.3000-0.5000 (  2666 PWs)   bands (ev):

   -70.3410 -70.3410 -36.5433 -36.5433 -36.3814 -36.3813 -36.2648 -36.2648
    13.5352  13.5352  14.4518  14.4518  15.1803  15.1804  16.5485  16.5486
    16.9812  16.9812  19.7979  19.7979

     occupation numbers 
     1.0000   1.0000   1.0000   1.0000   1.0000   1.0000   1.0000   1.0000
     1.0000   1.0000   1.0000   1.0000   1.0000   1.0000   1.0000   1.0000
     1.0000   1.0000   0.0000   0.0000

          k = 0.2000 0.4000 0.4000 (  2655 PWs)   bands (ev):

   -70.3450 -70.3356 -36.5572 -36.5481 -36.4042 -36.3545 -36.2663 -36.2627
    13.3679  13.5384  14.3715  14.4409  15.3926  15.4819  16.6284  16.6514
    16.7381  17.1109  19.4990  21.3890

     occupation numbers 
     1.0000   1.0000   1.0000   1.0000   1.0000   1.0000   1.0000   1.0000
     1.0000   1.0000   1.0000   1.0000   1.0000   1.0000   1.0000   1.0000
     1.0000   1.0000   0.0000   0.0000

          k = 0.2000 0.4000-0.5000 (  2652 PWs)   bands (ev):

   -70.3398 -70.3398 -36.5596 -36.5596 -36.3778 -36.3778 -36.2634 -36.2634
    13.4117  13.4117  14.3559  14.3559  15.7045  15.7045  16.6592  16.6592
    16.8798  16.8799  20.4677  20.4677

     occupation numbers 
     1.0000   1.0000   1.0000   1.0000   1.0000   1.0000   1.0000   1.0000
     1.0000   1.0000   1.0000   1.0000   1.0000   1.0000   1.0000   1.0000
     1.0000   1.0000   0.0000   0.0000

          k = 0.2000-0.5000-0.5000 (  2672 PWs)   bands (ev):

   -70.3394 -70.3394 -36.5661 -36.5661 -36.3755 -36.3754 -36.2636 -36.2636
    13.3562  13.3562  14.2998  14.2998  16.0487  16.0487  16.6947  16.6948
    16.7621  16.7622  20.7987  20.7987

     occupation numbers 
     1.0000   1.0000   1.0000   1.0000   1.0000   1.0000   1.0000   1.0000
     1.0000   1.0000   1.0000   1.0000   1.0000   1.0000   1.0000   1.0000
     1.0000   1.0000   0.0000   0.0000

          k = 0.3000 0.3000 0.3000 (  2662 PWs)   bands (ev):

   -70.3535 -70.3288 -36.5128 -36.4952 -36.4952 -36.2965 -36.2965 -36.2794
    13.4781  14.2284  14.4770  14.4770  14.4810  14.4810  16.6534  16.6534
    16.9349  16.9349  18.7468  24.2793

     occupation numbers 
     1.0000   1.0000   1.0000   1.0000   1.0000   1.0000   1.0000   1.0000
     1.0000   1.0000   1.0000   1.0000   1.0000   1.0000   1.0000   1.0000
     1.0000   1.0000   0.0000   0.0000

          k = 0.3000 0.3000 0.4000 (  2670 PWs)   bands (ev):

   -70.3465 -70.3335 -36.5272 -36.5203 -36.4471 -36.3426 -36.2866 -36.2752
    13.8071  13.9841  14.4079  14.4296  14.6596  14.8691  16.6401  16.7287
    16.7539  16.9630  19.6323  22.4469

     occupation numbers 
     1.0000   1.0000   1.0000   1.0000   1.0000   1.0000   1.0000   1.0000
     1.0000   1.0000   1.0000   1.0000   1.0000   1.0000   1.0000   1.0000
     1.0000   1.0000   0.0000   0.0000

          k = 0.3000 0.3000-0.5000 (  2644 PWs)   bands (ev):

   -70.3396 -70.3396 -36.5310 -36.5310 -36.3945 -36.3945 -36.2785 -36.2785
    13.8533  13.8533  14.3942  14.3942  14.9719  14.9720  16.6492  16.6493
    16.8662  16.8663  20.8242  20.8242

     occupation numbers 
     1.0000   1.0000   1.0000   1.0000   1.0000   1.0000   1.0000   1.0000
     1.0000   1.0000   1.0000   1.0000   1.0000   1.0000   1.0000   1.0000
     1.0000   1.0000   0.0000   0.0000

          k = 0.3000 0.4000 0.4000 (  2653 PWs)   bands (ev):

   -70.3423 -70.3355 -36.5284 -36.5157 -36.4349 -36.3584 -36.3017 -36.2832
    13.9068  13.9423  14.3250  14.4403  14.8941  15.0316  16.7087  16.7396
    16.7483  16.8776  20.6357  22.9088

     occupation numbers 
     1.0000   1.0000   1.0000   1.0000   1.0000   1.0000   1.0000   1.0000
     1.0000   1.0000   1.0000   1.0000   1.0000   1.0000   1.0000   1.0000
     1.0000   1.0000   0.0000   0.0000

          k = 0.3000 0.4000-0.5000 (  2654 PWs)   bands (ev):

   -70.3384 -70.3384 -36.5246 -36.5246 -36.3959 -36.3959 -36.2951 -36.2951
    13.8816  13.8816  14.3405  14.3405  15.1570  15.1570  16.7221  16.7222
    16.8036  16.8037  21.8265  21.8265

     occupation numbers 
     1.0000   1.0000   1.0000   1.0000   1.0000   1.0000   1.0000   1.0000
     1.0000   1.0000   1.0000   1.0000   1.0000   1.0000   1.0000   1.0000
     1.0000   1.0000   0.0000   0.0000

          k = 0.3000-0.5000-0.5000 (  2660 PWs)   bands (ev):

   -70.3380 -70.3380 -36.5235 -36.5235 -36.3929 -36.3928 -36.3038 -36.3038
    13.8619  13.8619  14.2786  14.2786  15.3392  15.3392  16.7441  16.7442
    16.7727  16.7728  22.4121  22.4121

     occupation numbers 
     1.0000   1.0000   1.0000   1.0000   1.0000   1.0000   1.0000   1.0000
     1.0000   1.0000   1.0000   1.0000   1.0000   1.0000   1.0000   1.0000
     1.0000   1.0000   0.0000   0.0000

          k = 0.4000 0.4000 0.4000 (  2650 PWs)   bands (ev):

   -70.3395 -70.3359 -36.5082 -36.4640 -36.4640 -36.3515 -36.3515 -36.3070
    14.0452  14.3383  14.3383  14.6178  14.6904  14.6904  16.7558  16.7558
    16.7913  16.7913  21.8413  24.6053

     occupation numbers 
     1.0000   1.0000   1.0000   1.0000   1.0000   1.0000   1.0000   1.0000
     1.0000   1.0000   1.0000   1.0000   1.0000   1.0000   1.0000   1.0000
     1.0000   1.0000   0.0000   0.0000

          k = 0.4000 0.4000-0.5000 (  2654 PWs)   bands (ev):

   -70.3373 -70.3373 -36.4879 -36.4879 -36.4074 -36.4073 -36.3324 -36.3324
    14.1600  14.1600  14.4533  14.4533  14.8088  14.8088  16.7646  16.7647
    16.7851  16.7852  23.1985  23.1985

     occupation numbers 
     1.0000   1.0000   1.0000   1.0000   1.0000   1.0000   1.0000   1.0000
     1.0000   1.0000   1.0000   1.0000   1.0000   1.0000   1.0000   1.0000
     1.0000   1.0000   0.0000   0.0000

          k = 0.4000-0.5000-0.5000 (  2644 PWs)   bands (ev):

   -70.3369 -70.3369 -36.4704 -36.4704 -36.4069 -36.4069 -36.3549 -36.3549
    14.3128  14.3128  14.3280  14.3280  14.8262  14.8262  16.7758  16.7760
    16.7813  16.7814  24.1718  24.1718

     occupation numbers 
     1.0000   1.0000   1.0000   1.0000   1.0000   1.0000   1.0000   1.0000
     1.0000   1.0000   1.0000   1.0000   1.0000   1.0000   1.0000   1.0000
     1.0000   1.0000   0.0000   0.0000

          k =-0.5000-0.5000-0.5000 (  2608 PWs)   bands (ev):

   -70.3364 -70.3364 -36.4123 -36.4123 -36.4123 -36.4123 -36.4123 -36.4123
    14.4976  14.4976  14.4976  14.4976  14.4976  14.4976  16.7846  16.7846
    16.7847  16.7847  26.0654  26.0654

     occupation numbers 
     1.0000   1.0000   1.0000   1.0000   1.0000   1.0000   1.0000   1.0000
     1.0000   1.0000   1.0000   1.0000   1.0000   1.0000   1.0000   1.0000
     1.0000   1.0000   0.0000   0.0000

 ------ SPIN DOWN ----------


          k = 0.0000 0.0000 0.0000 (  2601 PWs)   bands (ev):

   -67.6999 -67.5675 -33.8639 -33.8639 -33.8639 -33.5657 -33.5657 -33.5657
     9.4366  14.8029  14.8029  17.3774  17.3774  17.3774  19.3933  19.3933
    20.0086  20.0086  20.0086  27.5543

     occupation numbers 
     1.0000   1.0000   1.0000   1.0000   1.0000   1.0000   1.0000   1.0000
     1.0000   1.0000   1.0000   1.0000   1.0000   1.0000   0.0000   0.0000
     0.0000   0.0000   0.0000   0.0000

          k = 0.0000 0.0000 0.1000 (  2653 PWs)   bands (ev):

   -67.6962 -67.5703 -33.8630 -33.8562 -33.8562 -33.5795 -33.5726 -33.5726
     9.6410  14.8683  14.9054  17.3682  17.3682  17.4381  19.2748  19.4379
    19.7854  19.7854  19.9406  26.4517

     occupation numbers 
     1.0000   1.0000   1.0000   1.0000   1.0000   1.0000   1.0000   1.0000
     1.0000   1.0000   1.0000   1.0000   1.0000   1.0000   0.0000   0.0000
     0.0000   0.0000   0.0000   0.0000

          k = 0.0000 0.0000 0.2000 (  2669 PWs)   bands (ev):

   -67.6855 -67.5785 -33.8584 -33.8339 -33.8339 -33.6176 -33.5926 -33.5926
    10.2392  15.0024  15.2059  17.3563  17.3563  17.6153  18.9308  19.2561
    19.2561  19.5591  19.7441  24.3508

     occupation numbers 
     1.0000   1.0000   1.0000   1.0000   1.0000   1.0000   1.0000   1.0000
     1.0000   1.0000   1.0000   1.0000   1.0000   1.0000   0.0000   0.0000
     0.0000   0.0000   0.0000   0.0000

          k = 0.0000 0.0000 0.3000 (  2685 PWs)   bands (ev):

   -67.6694 -67.5916 -33.8461 -33.7995 -33.7995 -33.6714 -33.6242 -33.6242
    11.1823  15.0071  15.6835  17.3824  17.3824  17.8945  18.3966  18.6543
    18.6543  19.4411  19.7265  22.3636

     occupation numbers 
     1.0000   1.0000   1.0000   1.0000   1.0000   1.0000   1.0000   1.0000
     1.0000   1.0000   1.0000   1.0000   1.0000   0.0000   0.0000   0.0000
     0.0000   0.0000   0.0000   0.0000

          k = 0.0000 0.0000 0.4000 (  2670 PWs)   bands (ev):

   -67.6497 -67.6088 -33.8213 -33.7568 -33.7568 -33.7296 -33.6646 -33.6646
    12.3710  14.5826  16.3014  17.4955  17.4955  17.7305  18.1269  18.1269
    18.2515  19.0646  19.9273  20.9633

     occupation numbers 
     1.0000   1.0000   1.0000   1.0000   1.0000   1.0000   1.0000   1.0000
     1.0000   1.0000   1.0000   1.0000   1.0000   0.0000   0.0000   0.0000
     0.0000   0.0000   0.0000   0.0000

          k = 0.0000 0.0000-0.5000 (  2666 PWs)   bands (ev):

   -67.6288 -67.6287 -33.7818 -33.7818 -33.7103 -33.7103 -33.7103 -33.7103
    13.6132  13.6132  17.0064  17.0064  17.7367  17.7367  17.7368  17.7368
    18.6543  18.6544  20.2476  20.2476

     occupation numbers 
     1.0000   1.0000   1.0000   1.0000   1.0000   1.0000   1.0000   1.0000
     1.0000   1.0000   1.0000   1.0000   0.0000   0.0000   0.0000   0.0000
     0.0000   0.0000   0.0000   0.0000

          k = 0.0000 0.1000 0.1000 (  2658 PWs)   bands (ev):

   -67.6926 -67.5729 -33.8753 -33.8488 -33.8359 -33.6062 -33.5791 -33.5657
     9.8425  14.9604  14.9777  17.2471  17.3467  17.6101  19.2592  19.4033
    19.4394  19.5655  20.0364  26.5876

     occupation numbers 
     1.0000   1.0000   1.0000   1.0000   1.0000   1.0000   1.0000   1.0000
     1.0000   1.0000   1.0000   1.0000   1.0000   1.0000   0.0000   0.0000
     0.0000   0.0000   0.0000   0.0000

          k = 0.0000 0.1000 0.2000 (  2667 PWs)   bands (ev):

   -67.6824 -67.5806 -33.8816 -33.8276 -33.8046 -33.6534 -33.5980 -33.5744
    10.4312  15.1019  15.2555  17.1488  17.3002  17.8713  18.8723  18.9991
    19.0644  19.5070  19.9608  24.6301

     occupation numbers 
     1.0000   1.0000   1.0000   1.0000   1.0000   1.0000   1.0000   1.0000
     1.0000   1.0000   1.0000   1.0000   1.0000   0.0000   0.0000   0.0000
     0.0000   0.0000   0.0000   0.0000

          k = 0.0000 0.1000 0.3000 (  2680 PWs)   bands (ev):

   -67.6670 -67.5930 -33.8767 -33.7947 -33.7659 -33.7113 -33.6280 -33.5985
    11.3559  15.0979  15.6998  17.1223  17.2571  18.1963  18.2838  18.5552
    18.5702  19.6847  19.7208  22.5873

     occupation numbers 
     1.0000   1.0000   1.0000   1.0000   1.0000   1.0000   1.0000   1.0000
     1.0000   1.0000   1.0000   1.0000   1.0000   0.0000   0.0000   0.0000
     0.0000   0.0000   0.0000   0.0000

          k = 0.0000 0.1000 0.4000 (  2684 PWs)   bands (ev):

   -67.6482 -67.6093 -33.8570 -33.7702 -33.7540 -33.7220 -33.6663 -33.6340
    12.5146  14.6638  16.2527  17.1679  17.2010  17.7806  18.1478  18.2062
    18.5739  19.3764  19.8992  21.0799

     occupation numbers 
     1.0000   1.0000   1.0000   1.0000   1.0000   1.0000   1.0000   1.0000
     1.0000   1.0000   1.0000   1.0000   1.0000   0.0000   0.0000   0.0000
     0.0000   0.0000   0.0000   0.0000

          k = 0.0000 0.1000-0.5000 (  2678 PWs)   bands (ev):

   -67.6283 -67.6282 -33.8208 -33.8208 -33.7098 -33.7097 -33.6766 -33.6766
    13.7176  13.7176  16.8140  16.8140  17.4156  17.4156  18.0321  18.0321
    18.9793  18.9793  20.2616  20.2616

     occupation numbers 
     1.0000   1.0000   1.0000   1.0000   1.0000   1.0000   1.0000   1.0000
     1.0000   1.0000   1.0000   1.0000   1.0000   1.0000   0.0000   0.0000
     0.0000   0.0000   0.0000   0.0000

          k = 0.0000 0.2000 0.2000 (  2674 PWs)   bands (ev):

   -67.6736 -67.5869 -33.9048 -33.8092 -33.7621 -33.7115 -33.6139 -33.5657
    10.9883  15.2847  15.4354  16.9175  17.1812  18.2556  18.2679  18.6783
    19.0696  19.4427  20.1094  24.6875

     occupation numbers 
     1.0000   1.0000   1.0000   1.0000   1.0000   1.0000   1.0000   1.0000
     1.0000   1.0000   1.0000   1.0000   1.0000   0.0000   0.0000   0.0000
     0.0000   0.0000   0.0000   0.0000

          k = 0.0000 0.2000 0.3000 (  2665 PWs)   bands (ev):

   -67.6602 -67.5972 -33.9151 -33.7810 -33.7752 -33.7170 -33.6391 -33.5740
    11.8502  15.2167  15.8329  16.7788  17.0674  17.6908  18.4170  18.6695
    18.8895  19.5785  20.0525  22.9866

     occupation numbers 
     1.0000   1.0000   1.0000   1.0000   1.0000   1.0000   1.0000   1.0000
     1.0000   1.0000   1.0000   1.0000   1.0000   0.0043   0.0000   0.0000
     0.0000   0.0000   0.0000   0.0000

          k = 0.0000 0.2000 0.4000 (  2662 PWs)   bands (ev):

   -67.6440 -67.6109 -33.9077 -33.8344 -33.7461 -33.6722 -33.6714 -33.5969
    12.9001  14.7734  16.2909  16.7693  16.9438  17.2261  18.4088  18.6498
    19.0902  19.8147  19.8271  21.3219

     occupation numbers 
     1.0000   1.0000   1.0000   1.0000   1.0000   1.0000   1.0000   1.0000
     1.0000   1.0000   1.0000   1.0000   1.0000   1.0000   0.0000   0.0000
     0.0000   0.0000   0.0000   0.0000

          k = 0.0000 0.2000-0.5000 (  2668 PWs)   bands (ev):

   -67.6270 -67.6269 -33.8804 -33.8804 -33.7083 -33.7083 -33.6310 -33.6309
    13.9494  13.9494  16.6961  16.6961  16.9150  16.9150  18.5074  18.5074
    19.4894  19.4894  20.2796  20.2796

     occupation numbers 
     1.0000   1.0000   1.0000   1.0000   1.0000   1.0000   1.0000   1.0000
     1.0000   1.0000   1.0000   1.0000   1.0000   1.0000   0.0000   0.0000
     0.0000   0.0000   0.0000   0.0000

          k = 0.0000 0.3000 0.3000 (  2670 PWs)   bands (ev):

   -67.6500 -67.6042 -33.9413 -33.8401 -33.7599 -33.6700 -33.6568 -33.5657
    12.5793  15.0621  16.2279  16.5312  16.9909  17.1485  18.4561  19.0872
    19.1433  19.5188  20.2005  22.6707

     occupation numbers 
     1.0000   1.0000   1.0000   1.0000   1.0000   1.0000   1.0000   1.0000
     1.0000   1.0000   1.0000   1.0000   1.0000   1.0000   0.0000   0.0000
     0.0000   0.0000   0.0000   0.0000

          k = 0.0000 0.3000 0.4000 (  2663 PWs)   bands (ev):

   -67.6379 -67.6138 -33.9485 -33.8955 -33.7341 -33.6799 -33.6284 -33.5735
    13.3912  14.6744  16.4270  16.6927  16.7368  17.0396  18.6768  19.0366
    19.5739  19.6849  20.1468  21.3656

     occupation numbers 
     1.0000   1.0000   1.0000   1.0000   1.0000   1.0000   1.0000   1.0000
     1.0000   1.0000   1.0000   1.0000   1.0000   1.0000   0.0000   0.0000
     0.0000   0.0000   0.0000   0.0000

          k = 0.0000 0.3000-0.5000 (  2668 PWs)   bands (ev):

   -67.6254 -67.6253 -33.9332 -33.9332 -33.7065 -33.7064 -33.5953 -33.5953
    14.1157  14.1157  16.4926  16.4926  17.0023  17.0023  18.9091  18.9091
    19.9228  19.9228  20.2161  20.2161

     occupation numbers 
[...]
    11.5299  15.1999  15.7126  17.0229  17.0666  17.8427  18.4490  18.6933
    18.7737  19.6498  19.7322  22.8393

     occupation numbers 
     1.0000   1.0000   1.0000   1.0000   1.0000   1.0000   1.0000   1.0000
     1.0000   1.0000   1.0000   1.0000   1.0000   0.0000   0.0000   0.0000
     0.0000   0.0000   0.0000   0.0000

          k = 0.1000 0.1000 0.4000 (  2678 PWs)   bands (ev):

   -67.6468 -67.6097 -33.8717 -33.7934 -33.7642 -33.6956 -33.6685 -33.6198
    12.6613  14.7571  16.1950  16.9331  17.0921  17.5163  18.3288  18.3560
    18.8431  19.4851  19.8813  21.2519

     occupation numbers 
     1.0000   1.0000   1.0000   1.0000   1.0000   1.0000   1.0000   1.0000
     1.0000   1.0000   1.0000   1.0000   1.0000   1.0000   0.0000   0.0000
     0.0000   0.0000   0.0000   0.0000

          k = 0.1000 0.1000-0.5000 (  2672 PWs)   bands (ev):

   -67.6278 -67.6277 -33.8405 -33.8405 -33.7159 -33.7159 -33.6555 -33.6555
    13.8293  13.8293  16.6480  16.6480  17.2777  17.2777  18.1803  18.1803
    19.2005  19.2005  20.3133  20.3133

     occupation numbers 
     1.0000   1.0000   1.0000   1.0000   1.0000   1.0000   1.0000   1.0000
     1.0000   1.0000   1.0000   1.0000   1.0000   1.0000   0.0000   0.0000
     0.0000   0.0000   0.0000   0.0000

          k = 0.1000 0.2000 0.2000 (  2673 PWs)   bands (ev):

   -67.6710 -67.5886 -33.8961 -33.8353 -33.7356 -33.7304 -33.6068 -33.5735
    11.1735  15.3914  15.4879  16.8696  17.0124  17.7467  18.4794  19.0927
    19.1321  19.4060  19.9026  25.0656

     occupation numbers 
     1.0000   1.0000   1.0000   1.0000   1.0000   1.0000   1.0000   1.0000
     1.0000   1.0000   1.0000   1.0000   1.0000   0.0000   0.0000   0.0000
     0.0000   0.0000   0.0000   0.0000

          k = 0.1000 0.2000 0.3000 (  2679 PWs)   bands (ev):

   -67.6582 -67.5983 -33.9087 -33.8039 -33.7888 -33.6951 -33.6354 -33.5795
    12.0246  15.3474  15.8328  16.7198  16.8898  17.3011  18.7372  18.9069
    18.9649  19.5604  19.8775  23.3148

     occupation numbers 
     1.0000   1.0000   1.0000   1.0000   1.0000   1.0000   1.0000   1.0000
     1.0000   1.0000   1.0000   1.0000   1.0000   1.0000   0.0000   0.0000
     0.0000   0.0000   0.0000   0.0000

          k = 0.1000 0.2000 0.4000 (  2667 PWs)   bands (ev):

   -67.6427 -67.6112 -33.9060 -33.8429 -33.7627 -33.6737 -33.6569 -33.5967
    13.0558  14.8978  16.1965  16.6421  16.8307  17.0749  18.5643  18.7173
    19.3228  19.7245  19.8417  21.6194

     occupation numbers 
     1.0000   1.0000   1.0000   1.0000   1.0000   1.0000   1.0000   1.0000
     1.0000   1.0000   1.0000   1.0000   1.0000   1.0000   0.0000   0.0000
     0.0000   0.0000   0.0000   0.0000

          k = 0.1000 0.2000-0.5000 (  2678 PWs)   bands (ev):

   -67.6265 -67.6264 -33.8837 -33.8837 -33.7176 -33.7176 -33.6233 -33.6233
    14.0814  14.0814  16.4857  16.4857  16.9165  16.9165  18.5741  18.5741
    19.5481  19.5481  20.4728  20.4728

     occupation numbers 
     1.0000   1.0000   1.0000   1.0000   1.0000   1.0000   1.0000   1.0000
     1.0000   1.0000   1.0000   1.0000   1.0000   1.0000   0.0000   0.0000
     0.0000   0.0000   0.0000   0.0000

          k = 0.1000 0.3000 0.3000 (  2669 PWs)   bands (ev):

   -67.6484 -67.6049 -33.9316 -33.8458 -33.7810 -33.6561 -33.6550 -33.5744
    12.7524  15.1973  16.2123  16.4804  16.8019  16.8826  18.6847  19.1292
    19.4173  19.5133  19.9828  23.1043

     occupation numbers 
     1.0000   1.0000   1.0000   1.0000   1.0000   1.0000   1.0000   1.0000
     1.0000   1.0000   1.0000   1.0000   1.0000   1.0000   0.0000   0.0000
     0.0000   0.0000   0.0000   0.0000

          k = 0.1000 0.3000 0.4000 (  2655 PWs)   bands (ev):

   -67.6368 -67.6139 -33.9401 -33.8951 -33.7493 -33.6823 -33.6228 -33.5805
    13.5564  14.8112  16.3674  16.4890  16.7319  16.8453  18.7935  19.0688
    19.6054  19.9186  19.9658  21.8343

     occupation numbers 
     1.0000   1.0000   1.0000   1.0000   1.0000   1.0000   1.0000   1.0000
     1.0000   1.0000   1.0000   1.0000   1.0000   1.0000   0.0000   0.0000
     0.0000   0.0000   0.0000   0.0000

          k = 0.1000 0.3000-0.5000 (  2672 PWs)   bands (ev):

   -67.6249 -67.6248 -33.9280 -33.9280 -33.7149 -33.7149 -33.5971 -33.5971
    14.2648  14.2648  16.3863  16.3863  16.8846  16.8846  18.9518  18.9518
    19.7457  19.7457  20.6939  20.6940

     occupation numbers 
     1.0000   1.0000   1.0000   1.0000   1.0000   1.0000   1.0000   1.0000
     1.0000   1.0000   1.0000   1.0000   1.0000   1.0000   0.0000   0.0000
     0.0000   0.0000   0.0000   0.0000

          k = 0.1000 0.4000 0.4000 (  2658 PWs)   bands (ev):

   -67.6301 -67.6180 -33.9603 -33.9369 -33.7309 -33.6952 -33.5970 -33.5751
    13.9846  14.5672  16.1909  16.3135  17.1499  17.1860  19.0286  19.2344
    19.6082  19.9295  20.3619  21.4930

     occupation numbers 
     1.0000   1.0000   1.0000   1.0000   1.0000   1.0000   1.0000   1.0000
     1.0000   1.0000   1.0000   1.0000   1.0000   1.0000   0.0000   0.0000
     0.0000   0.0000   0.0000   0.0000

          k = 0.1000 0.4000-0.5000 (  2662 PWs)   bands (ev):

   -67.6236 -67.6235 -33.9598 -33.9598 -33.7119 -33.7119 -33.5808 -33.5808
    14.2968  14.2968  16.1697  16.1697  17.4311  17.4311  19.1980  19.1980
    19.7371  19.7371  20.8455  20.8455

     occupation numbers 
     1.0000   1.0000   1.0000   1.0000   1.0000   1.0000   1.0000   1.0000
     1.0000   1.0000   1.0000   1.0000   1.0000   1.0000   0.0000   0.0000
     0.0000   0.0000   0.0000   0.0000

          k = 0.1000-0.5000-0.5000 (  2668 PWs)   bands (ev):

   -67.6231 -67.6231 -33.9713 -33.9713 -33.7107 -33.7106 -33.5754 -33.5754
    14.2875  14.2875  16.0851  16.0851  17.7931  17.7931  19.2804  19.2805
    19.6479  19.6479  20.8851  20.8851

     occupation numbers 
     1.0000   1.0000   1.0000   1.0000   1.0000   1.0000   1.0000   1.0000
     1.0000   1.0000   1.0000   1.0000   0.0000   0.0000   0.0000   0.0000
     0.0000   0.0000   0.0000   0.0000

          k = 0.2000 0.2000 0.2000 (  2665 PWs)   bands (ev):

   -67.6636 -67.5934 -33.8709 -33.8709 -33.7729 -33.6971 -33.5964 -33.5964
    11.7073  15.6332  15.6332  16.7434  16.7434  17.0963  18.9261  19.2972
    19.2972  19.4652  19.4652  26.0167

     occupation numbers 
     1.0000   1.0000   1.0000   1.0000   1.0000   1.0000   1.0000   1.0000
     1.0000   1.0000   1.0000   1.0000   1.0000   1.0000   0.0000   0.0000
     0.0000   0.0000   0.0000   0.0000

          k = 0.2000 0.2000 0.3000 (  2673 PWs)   bands (ev):

   -67.6524 -67.6015 -33.8967 -33.8319 -33.8219 -33.6620 -33.6325 -33.5927
    12.5194  15.6581  15.8360  16.5784  16.5808  16.7430  19.0618  19.1290
    19.4089  19.5264  19.6226  24.0102

     occupation numbers 
     1.0000   1.0000   1.0000   1.0000   1.0000   1.0000   1.0000   1.0000
     1.0000   1.0000   1.0000   1.0000   1.0000   1.0000   0.0000   0.0000
     0.0000   0.0000   0.0000   0.0000

          k = 0.2000 0.2000 0.4000 (  2667 PWs)   bands (ev):

   -67.6391 -67.6123 -33.9061 -33.8657 -33.7835 -33.6786 -33.6330 -33.5977
    13.4776  15.1582  16.0483  16.4078  16.5918  16.7823  18.8335  18.9417
    19.5860  19.6334  20.0978  22.2299

     occupation numbers 
     1.0000   1.0000   1.0000   1.0000   1.0000   1.0000   1.0000   1.0000
     1.0000   1.0000   1.0000   1.0000   1.0000   1.0000   0.0000   0.0000
     0.0000   0.0000   0.0000   0.0000

          k = 0.2000 0.2000-0.5000 (  2664 PWs)   bands (ev):

   -67.6252 -67.6252 -33.8955 -33.8955 -33.7307 -33.7306 -33.6113 -33.6113
    14.4003  14.4003  16.2372  16.2373  16.7276  16.7276  18.8120  18.8120
    19.6199  19.6199  20.9531  20.9531

     occupation numbers 
     1.0000   1.0000   1.0000   1.0000   1.0000   1.0000   1.0000   1.0000
     1.0000   1.0000   1.0000   1.0000   1.0000   1.0000   0.0000   0.0000
     0.0000   0.0000   0.0000   0.0000

          k = 0.2000 0.3000 0.3000 (  2670 PWs)   bands (ev):

   -67.6439 -67.6068 -33.9038 -33.8612 -33.8215 -33.6493 -33.6347 -33.5999
    13.2402  15.5556  16.1639  16.3502  16.3886  16.4504  19.0706  19.2645
    19.4918  19.6203  20.0015  24.1094

     occupation numbers 
     1.0000   1.0000   1.0000   1.0000   1.0000   1.0000   1.0000   1.0000
     1.0000   1.0000   1.0000   1.0000   1.0000   1.0000   0.0000   0.0000
     0.0000   0.0000   0.0000   0.0000

          k = 0.2000 0.3000 0.4000 (  2661 PWs)   bands (ev):

   -67.6338 -67.6143 -33.9168 -33.8951 -33.7816 -33.6871 -33.6156 -33.6006
    14.0134  15.1625  16.1802  16.2208  16.4665  16.5649  19.0482  19.2003
    19.6049  19.6585  20.6339  22.7556

     occupation numbers 
     1.0000   1.0000   1.0000   1.0000   1.0000   1.0000   1.0000   1.0000
     1.0000   1.0000   1.0000   1.0000   1.0000   1.0000   0.0000   0.0000
     0.0000   0.0000   0.0000   0.0000

          k = 0.2000 0.3000-0.5000 (  2666 PWs)   bands (ev):

   -67.6236 -67.6236 -33.9150 -33.9150 -33.7338 -33.7337 -33.6047 -33.6047
    14.6599  14.6599  16.1628  16.1628  16.6027  16.6027  19.1039  19.1039
    19.6561  19.6561  21.4953  21.4953

     occupation numbers 
     1.0000   1.0000   1.0000   1.0000   1.0000   1.0000   1.0000   1.0000
     1.0000   1.0000   1.0000   1.0000   1.0000   1.0000   0.0000   0.0000
     0.0000   0.0000   0.0000   0.0000

          k = 0.2000 0.4000 0.4000 (  2655 PWs)   bands (ev):

   -67.6279 -67.6177 -33.9304 -33.9205 -33.7590 -33.7037 -33.6064 -33.6027
    14.4397  14.9395  16.0836  16.1419  16.6614  16.7911  19.2096  19.3362
    19.6159  19.6844  21.2206  22.6596

     occupation numbers 
     1.0000   1.0000   1.0000   1.0000   1.0000   1.0000   1.0000   1.0000
     1.0000   1.0000   1.0000   1.0000   1.0000   1.0000   0.0000   0.0000
     0.0000   0.0000   0.0000   0.0000

          k = 0.2000 0.4000-0.5000 (  2652 PWs)   bands (ev):

   -67.6223 -67.6223 -33.9332 -33.9332 -33.7296 -33.7296 -33.6034 -33.6034
    14.7074  14.7074  16.0528  16.0528  16.9034  16.9034  19.3121  19.3122
    19.6623  19.6623  21.9214  21.9214

     occupation numbers 
     1.0000   1.0000   1.0000   1.0000   1.0000   1.0000   1.0000   1.0000
     1.0000   1.0000   1.0000   1.0000   1.0000   1.0000   0.0000   0.0000
     0.0000   0.0000   0.0000   0.0000

          k = 0.2000-0.5000-0.5000 (  2672 PWs)   bands (ev):

   -67.6218 -67.6218 -33.9406 -33.9406 -33.7269 -33.7268 -33.6038 -33.6038
    14.6948  14.6948  15.9902  15.9902  17.1276  17.1276  19.3790  19.3790
    19.6595  19.6595  22.0919  22.0919

     occupation numbers 
     1.0000   1.0000   1.0000   1.0000   1.0000   1.0000   1.0000   1.0000
     1.0000   1.0000   1.0000   1.0000   1.0000   1.0000   0.0000   0.0000
     0.0000   0.0000   0.0000   0.0000

          k = 0.3000 0.3000 0.3000 (  2662 PWs)   bands (ev):

   -67.6372 -67.6103 -33.8810 -33.8609 -33.8609 -33.6400 -33.6400 -33.6206
    13.9349  15.8203  16.0904  16.0904  16.1934  16.1934  19.3765  19.3765
    19.4460  19.4460  20.6692  25.3963

     occupation numbers 
     1.0000   1.0000   1.0000   1.0000   1.0000   1.0000   1.0000   1.0000
     1.0000   1.0000   1.0000   1.0000   1.0000   1.0000   0.0000   0.0000
     0.0000   0.0000   0.0000   0.0000

          k = 0.3000 0.3000 0.4000 (  2670 PWs)   bands (ev):

   -67.6296 -67.6154 -33.8970 -33.8891 -33.8073 -33.6912 -33.6291 -33.6161
    14.6209  15.4544  16.0239  16.0666  16.1722  16.3625  19.2897  19.3783
    19.5593  19.5966  21.3997  23.7302

     occupation numbers 
     1.0000   1.0000   1.0000   1.0000   1.0000   1.0000   1.0000   1.0000
     1.0000   1.0000   1.0000   1.0000   1.0000   1.0000   0.0000   0.0000
     0.0000   0.0000   0.0000   0.0000

          k = 0.3000 0.3000-0.5000 (  2644 PWs)   bands (ev):

   -67.6220 -67.6220 -33.9012 -33.9012 -33.7488 -33.7488 -33.6199 -33.6199
    15.0949  15.0949  16.0076  16.0076  16.3479  16.3479  19.3110  19.3110
    19.6371  19.6371  22.3580  22.3580

     occupation numbers 
     1.0000   1.0000   1.0000   1.0000   1.0000   1.0000   1.0000   1.0000
     1.0000   1.0000   1.0000   1.0000   1.0000   1.0000   0.0000   0.0000
     0.0000   0.0000   0.0000   0.0000

          k = 0.3000 0.4000 0.4000 (  2653 PWs)   bands (ev):

   -67.6249 -67.6175 -33.8984 -33.8842 -33.7938 -33.7087 -33.6461 -33.6252
    15.0755  15.3749  15.9645  16.0135  16.1853  16.4020  19.4182  19.4827
    19.5987  19.6201  22.2039  24.0580

     occupation numbers 
     1.0000   1.0000   1.0000   1.0000   1.0000   1.0000   1.0000   1.0000
     1.0000   1.0000   1.0000   1.0000   1.0000   1.0000   0.0000   0.0000
     0.0000   0.0000   0.0000   0.0000

          k = 0.3000 0.4000-0.5000 (  2654 PWs)   bands (ev):

   -67.6207 -67.6207 -33.8942 -33.8942 -33.7504 -33.7504 -33.6386 -33.6386
    15.2451  15.2452  15.9413  15.9413  16.4118  16.4118  19.4679  19.4679
    19.6517  19.6518  23.1450  23.1450

     occupation numbers 
     1.0000   1.0000   1.0000   1.0000   1.0000   1.0000   1.0000   1.0000
     1.0000   1.0000   1.0000   1.0000   1.0000   1.0000   0.0000   0.0000
     0.0000   0.0000   0.0000   0.0000

          k = 0.3000-0.5000-0.5000 (  2660 PWs)   bands (ev):

   -67.6203 -67.6202 -33.8931 -33.8931 -33.7469 -33.7468 -33.6484 -33.6484
    15.2411  15.2411  15.8903  15.8903  16.5558  16.5558  19.5135  19.5135
    19.6739  19.6739  23.5582  23.5582

     occupation numbers 
     1.0000   1.0000   1.0000   1.0000   1.0000   1.0000   1.0000   1.0000
     1.0000   1.0000   1.0000   1.0000   1.0000   1.0000   0.0000   0.0000
     0.0000   0.0000   0.0000   0.0000

          k = 0.4000 0.4000 0.4000 (  2650 PWs)   bands (ev):

   -67.6219 -67.6180 -33.8759 -33.8266 -33.8266 -33.7014 -33.7014 -33.6518
    15.5682  15.6531  15.8963  15.8963  16.1000  16.1000  19.5871  19.5871
    19.6150  19.6150  23.2254  25.6347

     occupation numbers 
     1.0000   1.0000   1.0000   1.0000   1.0000   1.0000   1.0000   1.0000
     1.0000   1.0000   1.0000   1.0000   1.0000   1.0000   0.0000   0.0000
     0.0000   0.0000   0.0000   0.0000

          k = 0.4000 0.4000-0.5000 (  2654 PWs)   bands (ev):

   -67.6195 -67.6194 -33.8533 -33.8533 -33.7635 -33.7635 -33.6801 -33.6801
    15.6310  15.6310  15.9313  15.9313  16.1085  16.1085  19.6007  19.6008
    19.6620  19.6620  24.3708  24.3708

     occupation numbers 
     1.0000   1.0000   1.0000   1.0000   1.0000   1.0000   1.0000   1.0000
     1.0000   1.0000   1.0000   1.0000   1.0000   1.0000   0.0000   0.0000
     0.0000   0.0000   0.0000   0.0000

          k = 0.4000-0.5000-0.5000 (  2644 PWs)   bands (ev):

   -67.6190 -67.6189 -33.8339 -33.8339 -33.7630 -33.7630 -33.7053 -33.7053
    15.7252  15.7252  15.8484  15.8484  16.1511  16.1511  19.6375  19.6375
    19.6855  19.6856  25.1962  25.1962

     occupation numbers 
     1.0000   1.0000   1.0000   1.0000   1.0000   1.0000   1.0000   1.0000
     1.0000   1.0000   1.0000   1.0000   1.0000   1.0000   0.0000   0.0000
     0.0000   0.0000   0.0000   0.0000

          k =-0.5000-0.5000-0.5000 (  2608 PWs)   bands (ev):

   -67.6185 -67.6185 -33.7692 -33.7692 -33.7692 -33.7691 -33.7691 -33.7691
    15.9218  15.9218  15.9218  15.9218  15.9218  15.9218  19.6900  19.6900
    19.6900  19.6900  26.9701  26.9701

     occupation numbers 
     1.0000   1.0000   1.0000   1.0000   1.0000   1.0000   1.0000   1.0000
     1.0000   1.0000   1.0000   1.0000   1.0000   1.0000   0.0000   0.0000
     0.0000   0.0000   0.0000   0.0000

     the Fermi energy is    17.6656 ev

!    total energy              =    -658.54013579 Ry
     total all-electron energy =     -5091.133202 Ry
     estimated scf accuracy    <          4.0E-10 Ry
     smearing contrib. (-TS)   =      -0.00001037 Ry
     internal energy E=F+TS    =    -658.54012542 Ry

     The total energy is F=E-TS. E is the sum of the following terms:
     one-electron contribution =    -224.65126063 Ry
     hartree contribution      =     131.95054214 Ry
     xc contribution           =     -55.49744614 Ry
     ewald contribution        =    -344.75849517 Ry
     one-center paw contrib.   =    -165.58346561 Ry
      -> PAW hartree energy AE =     183.01532558 Ry
      -> PAW hartree energy PS =    -181.71721841 Ry
      -> PAW xc energy AE      =    -110.16589607 Ry
      -> PAW xc energy PS      =      26.07605549 Ry
      -> total E_H with PAW    =     133.24864931 Ry
      -> total E_XC with PAW   =    -139.58728672 Ry

     total magnetization       =     4.50 Bohr mag/cell
     absolute magnetization    =     4.75 Bohr mag/cell

     convergence has been achieved in  12 iterations

     Writing all to output data dir ./out/Fe.save/
 
     init_run     :      0.28s CPU      0.36s WALL (       1 calls)
     electrons    :     10.52s CPU     11.21s WALL (       1 calls)

     Called by init_run:
     wfcinit      :      0.07s CPU      0.11s WALL (       1 calls)
     potinit      :      0.11s CPU      0.14s WALL (       1 calls)
     hinit0       :      0.06s CPU      0.06s WALL (       1 calls)

     Called by electrons:
     c_bands      :      7.60s CPU      7.95s WALL (      12 calls)
     sum_band     :      1.47s CPU      1.52s WALL (      12 calls)
     v_of_rho     :      0.14s CPU      0.14s WALL (      13 calls)
     v_h          :      0.00s CPU      0.00s WALL (      13 calls)
     v_xc         :      0.13s CPU      0.14s WALL (      13 calls)
     newd         :      0.11s CPU      0.13s WALL (      13 calls)
     PAW_pot      :      1.25s CPU      1.53s WALL (      13 calls)
     mix_rho      :      0.02s CPU      0.02s WALL (      12 calls)

     Called by c_bands:
     init_us_2    :      0.10s CPU      0.10s WALL (    1344 calls)
     init_us_2:cp :      0.10s CPU      0.10s WALL (    1344 calls)
     cegterg      :      7.01s CPU      7.22s WALL (     672 calls)

     Called by sum_band:
     sum_band:wei :      0.01s CPU      0.01s WALL (      12 calls)
     sum_band:loo :      1.24s CPU      1.28s WALL (      12 calls)
     sum_band:buf :      0.01s CPU      0.01s WALL (     672 calls)
     sum_band:ini :      0.06s CPU      0.05s WALL (     672 calls)
     sum_band:cal :      0.09s CPU      0.08s WALL (     672 calls)
     sum_band:bec :      0.00s CPU      0.01s WALL (     672 calls)
     addusdens    :      0.19s CPU      0.20s WALL (      12 calls)
                                        0.00s GPU  (      12 calls)
     addusd:skk   :      0.00s CPU      0.00s WALL (      12 calls)
                                        0.00s GPU  (      12 calls)

     Called by *egterg:
     cdiaghg      :      1.02s CPU      1.04s WALL (    2192 calls)
     cegterg:over :      0.18s CPU      0.17s WALL (    1576 calls)
     cegterg:upda :      0.03s CPU      0.06s WALL (    1576 calls)
     cegterg:last :      0.10s CPU      0.11s WALL (    1315 calls)
     h_psi        :      5.41s CPU      5.58s WALL (    2248 calls)
     s_psi        :      0.08s CPU      0.07s WALL (    2248 calls)
     g_psi        :      0.01s CPU      0.02s WALL (    1576 calls)

     Called by h_psi:
     h_psi:calbec :      0.27s CPU      0.25s WALL (    2248 calls)
     vloc_psi     :      5.08s CPU      5.23s WALL (    2248 calls)
     add_vuspsi   :      0.04s CPU      0.08s WALL (    2248 calls)

     General routines
     calbec       :      0.36s CPU      0.33s WALL (    2920 calls)
     fft          :      0.08s CPU      0.08s WALL (     319 calls)
     ffts         :      0.01s CPU      0.01s WALL (      50 calls)
     fftw         :      5.81s CPU      5.77s WALL (   80514 calls)
     interpolate  :      0.01s CPU      0.01s WALL (      26 calls)
 
     Parallel routines

     PAW routines
     PAW_pot      :      1.25s CPU      1.53s WALL (      13 calls)
     PAW_symme    :      0.02s CPU      0.02s WALL (      24 calls)
 
     PWSCF        :     10.96s CPU     11.94s WALL

 
   This run was terminated on:   7:52: 8  16Apr2024            

=------------------------------------------------------------------------------=
   JOB DONE.
=------------------------------------------------------------------------------=
