
     Program PWSCF v.7.2 starts on 16Apr2024 at  7:59:59 

     This program is part of the open-source Quantum ESPRESSO suite
     for quantum simulation of materials; please cite
         "P. Giannozzi et al., J. Phys.:Condens. Matter 21 395502 (2009);
         "P. Giannozzi et al., J. Phys.:Condens. Matter 29 465901 (2017);
         "P. Giannozzi et al., J. Chem. Phys. 152 154105 (2020);
          URL http://www.quantum-espresso.org", 
     in publications or presentations arising from this work. More details at
     http://www.quantum-espresso.org/quote

     Parallel version (MPI), running on    20 processors

     MPI processes distributed on     1 nodes
     360705 MiB available memory on the printing compute node when the environment starts
 
     Waiting for input...
     Reading input from standard input

     Current dimensions of program PWSCF are:
     Max number of different atomic species (ntypx) = 10
     Max number of k-points (npk) = 120000
     Max angular momentum in pseudopotentials (lmaxx) =  4
     file Fe.pbe-spn-kjpaw_psl.1.0.0.UPF: wavefunction(s)  3P 3D renormalized
     Found identity + ( -0.5000 -0.5000 -0.5000) symmetry
     This is a supercell, fractional translations are disabled
 
     K-points division:     npool     =       2
     R & G space division:  proc/nbgrp/npool/nimage =      10
     Subspace diagonalization in iterative solution of the eigenvalue problem:
     a serial algorithm will be used

 
     Parallelization info
     --------------------
     sticks:   dense  smooth     PW     G-vecs:    dense   smooth      PW
     Min         153      87     26                 4471     1937     322
     Max         154      88     27                 4472     1939     325
     Sum        1533     877    261                44713    19381    3239
 
     Using Slab Decomposition
 


     bravais-lattice index     =            1
     lattice parameter (alat)  =       5.2345  a.u.
     unit-cell volume          =     143.4286 (a.u.)^3
     number of atoms/cell      =            2
     number of atomic types    =            1
     number of electrons       =        32.00
     number of Kohn-Sham states=           20
     kinetic-energy cutoff     =     100.0000  Ry
     charge density cutoff     =     700.0000  Ry
     scf convergence threshold =      4.0E-10
     mixing beta               =       0.4000
     number of iterations used =            8  plain     mixing
     Exchange-correlation= SLA  PW   PBX  PBC
                           (   1   4   3   4   0   0   0)

     celldm(1)=   5.234541  celldm(2)=   0.000000  celldm(3)=   0.000000
     celldm(4)=   0.000000  celldm(5)=   0.000000  celldm(6)=   0.000000

     crystal axes: (cart. coord. in units of alat)
               a(1) = (   1.000000   0.000000   0.000000 )  
               a(2) = (   0.000000   1.000000   0.000000 )  
               a(3) = (   0.000000   0.000000   1.000000 )  

     reciprocal axes: (cart. coord. in units 2 pi/alat)
               b(1) = (  1.000000  0.000000  0.000000 )  
               b(2) = (  0.000000  1.000000  0.000000 )  
               b(3) = (  0.000000  0.000000  1.000000 )  


     PseudoPot. # 1 for Fe read from file:
     /truba/home/amuhaymin/ZnS/pseudo/QE/Fe.pbe-spn-kjpaw_psl.1.0.0.UPF
     MD5 check sum: fc81f059e5c5069939230b1155715ae8
     Pseudo is Projector augmented-wave + core cor, Zval = 16.0
     Generated using &quot;atomic&quot; code by A. Dal Corso  v.6.3
     Shape of augmentation charge: PSQ
     Using radial grid of 1191 points,  6 beta functions with: 
                l(1) =   0
                l(2) =   0
                l(3) =   1
                l(4) =   1
                l(5) =   2
                l(6) =   2
     Q(r) pseudized with 0 coefficients 


     atomic species   valence    mass     pseudopotential
        Fe            16.00    55.84500     Fe( 1.00)

     Starting magnetic structure 
     atomic species   magnetization
        Fe           0.312

     48 Sym. Ops., with inversion, found


                                    s                        frac. trans.

      isym =  1     identity                                     

 cryst.   s( 1) = (     1          0          0      )
                  (     0          1          0      )
                  (     0          0          1      )

 cart.    s( 1) = (  1.0000000  0.0000000  0.0000000 )
                  (  0.0000000  1.0000000  0.0000000 )
                  (  0.0000000  0.0000000  1.0000000 )


      isym =  2     180 deg rotation - cart. axis [0,0,1]        

 cryst.   s( 2) = (    -1          0          0      )
                  (     0         -1          0      )
                  (     0          0          1      )

 cart.    s( 2) = ( -1.0000000  0.0000000  0.0000000 )
                  (  0.0000000 -1.0000000  0.0000000 )
                  (  0.0000000  0.0000000  1.0000000 )


      isym =  3     180 deg rotation - cart. axis [0,1,0]        

 cryst.   s( 3) = (    -1          0          0      )
                  (     0          1          0      )
                  (     0          0         -1      )

 cart.    s( 3) = ( -1.0000000  0.0000000  0.0000000 )
                  (  0.0000000  1.0000000  0.0000000 )
                  (  0.0000000  0.0000000 -1.0000000 )


      isym =  4     180 deg rotation - cart. axis [1,0,0]        

 cryst.   s( 4) = (     1          0          0      )
                  (     0         -1          0      )
                  (     0          0         -1      )

 cart.    s( 4) = (  1.0000000  0.0000000  0.0000000 )
                  (  0.0000000 -1.0000000  0.0000000 )
                  (  0.0000000  0.0000000 -1.0000000 )


      isym =  5     180 deg rotation - cart. axis [1,1,0]        

 cryst.   s( 5) = (     0          1          0      )
                  (     1          0          0      )
                  (     0          0         -1      )

 cart.    s( 5) = (  0.0000000  1.0000000  0.0000000 )
                  (  1.0000000  0.0000000  0.0000000 )
                  (  0.0000000  0.0000000 -1.0000000 )


      isym =  6     180 deg rotation - cart. axis [1,-1,0]       

 cryst.   s( 6) = (     0         -1          0      )
                  (    -1          0          0      )
                  (     0          0         -1      )

 cart.    s( 6) = (  0.0000000 -1.0000000  0.0000000 )
                  ( -1.0000000  0.0000000  0.0000000 )
                  (  0.0000000  0.0000000 -1.0000000 )


      isym =  7      90 deg rotation - cart. axis [0,0,-1]       

 cryst.   s( 7) = (     0         -1          0      )
                  (     1          0          0      )
                  (     0          0          1      )

 cart.    s( 7) = (  0.0000000  1.0000000  0.0000000 )
                  ( -1.0000000  0.0000000  0.0000000 )
                  (  0.0000000  0.0000000  1.0000000 )


      isym =  8      90 deg rotation - cart. axis [0,0,1]        

 cryst.   s( 8) = (     0          1          0      )
                  (    -1          0          0      )
                  (     0          0          1      )

 cart.    s( 8) = (  0.0000000 -1.0000000  0.0000000 )
                  (  1.0000000  0.0000000  0.0000000 )
                  (  0.0000000  0.0000000  1.0000000 )


      isym =  9     180 deg rotation - cart. axis [1,0,1]        

 cryst.   s( 9) = (     0          0          1      )
                  (     0         -1          0      )
                  (     1          0          0      )

 cart.    s( 9) = (  0.0000000  0.0000000  1.0000000 )
                  (  0.0000000 -1.0000000  0.0000000 )
                  (  1.0000000  0.0000000  0.0000000 )


      isym = 10     180 deg rotation - cart. axis [-1,0,1]       

 cryst.   s(10) = (     0          0         -1      )
                  (     0         -1          0      )
                  (    -1          0          0      )

 cart.    s(10) = (  0.0000000  0.0000000 -1.0000000 )
                  (  0.0000000 -1.0000000  0.0000000 )
                  ( -1.0000000  0.0000000  0.0000000 )


      isym = 11      90 deg rotation - cart. axis [0,1,0]        

 cryst.   s(11) = (     0          0         -1      )
                  (     0          1          0      )
                  (     1          0          0      )

 cart.    s(11) = (  0.0000000  0.0000000  1.0000000 )
                  (  0.0000000  1.0000000  0.0000000 )
                  ( -1.0000000  0.0000000  0.0000000 )


      isym = 12      90 deg rotation - cart. axis [0,-1,0]       

 cryst.   s(12) = (     0          0          1      )
                  (     0          1          0      )
                  (    -1          0          0      )

 cart.    s(12) = (  0.0000000  0.0000000 -1.0000000 )
                  (  0.0000000  1.0000000  0.0000000 )
                  (  1.0000000  0.0000000  0.0000000 )


      isym = 13     180 deg rotation - cart. axis [0,1,1]        

 cryst.   s(13) = (    -1          0          0      )
                  (     0          0          1      )
                  (     0          1          0      )

 cart.    s(13) = ( -1.0000000  0.0000000  0.0000000 )
                  (  0.0000000  0.0000000  1.0000000 )
                  (  0.0000000  1.0000000  0.0000000 )


      isym = 14     180 deg rotation - cart. axis [0,1,-1]       

 cryst.   s(14) = (    -1          0          0      )
                  (     0          0         -1      )
                  (     0         -1          0      )

 cart.    s(14) = ( -1.0000000  0.0000000  0.0000000 )
                  (  0.0000000  0.0000000 -1.0000000 )
                  (  0.0000000 -1.0000000  0.0000000 )


      isym = 15      90 deg rotation - cart. axis [-1,0,0]       

 cryst.   s(15) = (     1          0          0      )
                  (     0          0         -1      )
                  (     0          1          0      )

 cart.    s(15) = (  1.0000000  0.0000000  0.0000000 )
                  (  0.0000000  0.0000000  1.0000000 )
                  (  0.0000000 -1.0000000  0.0000000 )


      isym = 16      90 deg rotation - cart. axis [1,0,0]        

 cryst.   s(16) = (     1          0          0      )
                  (     0          0          1      )
                  (     0         -1          0      )

 cart.    s(16) = (  1.0000000  0.0000000  0.0000000 )
                  (  0.0000000  0.0000000 -1.0000000 )
                  (  0.0000000  1.0000000  0.0000000 )


      isym = 17     120 deg rotation - cart. axis [-1,-1,-1]     

 cryst.   s(17) = (     0          0          1      )
                  (     1          0          0      )
                  (     0          1          0      )

 cart.    s(17) = (  0.0000000  1.0000000  0.0000000 )
                  (  0.0000000  0.0000000  1.0000000 )
                  (  1.0000000  0.0000000  0.0000000 )


      isym = 18     120 deg rotation - cart. axis [-1,1,1]       

 cryst.   s(18) = (     0          0         -1      )
                  (    -1          0          0      )
                  (     0          1          0      )

 cart.    s(18) = (  0.0000000 -1.0000000  0.0000000 )
                  (  0.0000000  0.0000000  1.0000000 )
                  ( -1.0000000  0.0000000  0.0000000 )


      isym = 19     120 deg rotation - cart. axis [1,1,-1]       

 cryst.   s(19) = (     0          0         -1      )
                  (     1          0          0      )
                  (     0         -1          0      )

 cart.    s(19) = (  0.0000000  1.0000000  0.0000000 )
                  (  0.0000000  0.0000000 -1.0000000 )
                  ( -1.0000000  0.0000000  0.0000000 )


      isym = 20     120 deg rotation - cart. axis [1,-1,1]       

 cryst.   s(20) = (     0          0          1      )
                  (    -1          0          0      )
                  (     0         -1          0      )

 cart.    s(20) = (  0.0000000 -1.0000000  0.0000000 )
                  (  0.0000000  0.0000000 -1.0000000 )
                  (  1.0000000  0.0000000  0.0000000 )


      isym = 21     120 deg rotation - cart. axis [1,1,1]        

 cryst.   s(21) = (     0          1          0      )
                  (     0          0          1      )
                  (     1          0          0      )

 cart.    s(21) = (  0.0000000  0.0000000  1.0000000 )
                  (  1.0000000  0.0000000  0.0000000 )
                  (  0.0000000  1.0000000  0.0000000 )


      isym = 22     120 deg rotation - cart. axis [-1,1,-1]      

 cryst.   s(22) = (     0         -1          0      )
                  (     0          0         -1      )
                  (     1          0          0      )

 cart.    s(22) = (  0.0000000  0.0000000  1.0000000 )
                  ( -1.0000000  0.0000000  0.0000000 )
                  (  0.0000000 -1.0000000  0.0000000 )


      isym = 23     120 deg rotation - cart. axis [1,-1,-1]      

 cryst.   s(23) = (     0         -1          0      )
                  (     0          0          1      )
                  (    -1          0          0      )

 cart.    s(23) = (  0.0000000  0.0000000 -1.0000000 )
                  ( -1.0000000  0.0000000  0.0000000 )
                  (  0.0000000  1.0000000  0.0000000 )


      isym = 24     120 deg rotation - cart. axis [-1,-1,1]      

 cryst.   s(24) = (     0          1          0      )
                  (     0          0         -1      )
                  (    -1          0          0      )

 cart.    s(24) = (  0.0000000  0.0000000 -1.0000000 )
                  (  1.0000000  0.0000000  0.0000000 )
                  (  0.0000000 -1.0000000  0.0000000 )


      isym = 25     inversion                                    

 cryst.   s(25) = (    -1          0          0      )
                  (     0         -1          0      )
                  (     0          0         -1      )

 cart.    s(25) = ( -1.0000000  0.0000000  0.0000000 )
                  (  0.0000000 -1.0000000  0.0000000 )
                  (  0.0000000  0.0000000 -1.0000000 )


      isym = 26     inv. 180 deg rotation - cart. axis [0,0,1]   

 cryst.   s(26) = (     1          0          0      )
                  (     0          1          0      )
                  (     0          0         -1      )

 cart.    s(26) = (  1.0000000  0.0000000  0.0000000 )
                  (  0.0000000  1.0000000  0.0000000 )
                  (  0.0000000  0.0000000 -1.0000000 )


      isym = 27     inv. 180 deg rotation - cart. axis [0,1,0]   

 cryst.   s(27) = (     1          0          0      )
                  (     0         -1          0      )
                  (     0          0          1      )

 cart.    s(27) = (  1.0000000  0.0000000  0.0000000 )
                  (  0.0000000 -1.0000000  0.0000000 )
                  (  0.0000000  0.0000000  1.0000000 )


      isym = 28     inv. 180 deg rotation - cart. axis [1,0,0]   

 cryst.   s(28) = (    -1          0          0      )
                  (     0          1          0      )
                  (     0          0          1      )

 cart.    s(28) = ( -1.0000000  0.0000000  0.0000000 )
                  (  0.0000000  1.0000000  0.0000000 )
                  (  0.0000000  0.0000000  1.0000000 )


      isym = 29     inv. 180 deg rotation - cart. axis [1,1,0]   

 cryst.   s(29) = (     0         -1          0      )
                  (    -1          0          0      )
                  (     0          0          1      )

 cart.    s(29) = (  0.0000000 -1.0000000  0.0000000 )
                  ( -1.0000000  0.0000000  0.0000000 )
                  (  0.0000000  0.0000000  1.0000000 )


      isym = 30     inv. 180 deg rotation - cart. axis [1,-1,0]  

 cryst.   s(30) = (     0          1          0      )
                  (     1          0          0      )
                  (     0          0          1      )

 cart.    s(30) = (  0.0000000  1.0000000  0.0000000 )
                  (  1.0000000  0.0000000  0.0000000 )
                  (  0.0000000  0.0000000  1.0000000 )


      isym = 31     inv.  90 deg rotation - cart. axis [0,0,-1]  

 cryst.   s(31) = (     0          1          0      )
                  (    -1          0          0      )
                  (     0          0         -1      )

 cart.    s(31) = (  0.0000000 -1.0000000  0.0000000 )
                  (  1.0000000  0.0000000  0.0000000 )
                  (  0.0000000  0.0000000 -1.0000000 )


      isym = 32     inv.  90 deg rotation - cart. axis [0,0,1]   

 cryst.   s(32) = (     0         -1          0      )
                  (     1          0          0      )
                  (     0          0         -1      )

 cart.    s(32) = (  0.0000000  1.0000000  0.0000000 )
                  ( -1.0000000  0.0000000  0.0000000 )
                  (  0.0000000  0.0000000 -1.0000000 )


      isym = 33     inv. 180 deg rotation - cart. axis [1,0,1]   

 cryst.   s(33) = (     0          0         -1      )
                  (     0          1          0      )
                  (    -1          0          0      )

 cart.    s(33) = (  0.0000000  0.0000000 -1.0000000 )
                  (  0.0000000  1.0000000  0.0000000 )
                  ( -1.0000000  0.0000000  0.0000000 )


      isym = 34     inv. 180 deg rotation - cart. axis [-1,0,1]  

 cryst.   s(34) = (     0          0          1      )
                  (     0          1          0      )
                  (     1          0          0      )

 cart.    s(34) = (  0.0000000  0.0000000  1.0000000 )
                  (  0.0000000  1.0000000  0.0000000 )
                  (  1.0000000  0.0000000  0.0000000 )


      isym = 35     inv.  90 deg rotation - cart. axis [0,1,0]   

 cryst.   s(35) = (     0          0          1      )
                  (     0         -1          0      )
                  (    -1          0          0      )

 cart.    s(35) = (  0.0000000  0.0000000 -1.0000000 )
                  (  0.0000000 -1.0000000  0.0000000 )
                  (  1.0000000  0.0000000  0.0000000 )


      isym = 36     inv.  90 deg rotation - cart. axis [0,-1,0]  

 cryst.   s(36) = (     0          0         -1      )
                  (     0         -1          0      )
                  (     1          0          0      )

 cart.    s(36) = (  0.0000000  0.0000000  1.0000000 )
                  (  0.0000000 -1.0000000  0.0000000 )
                  ( -1.0000000  0.0000000  0.0000000 )


      isym = 37     inv. 180 deg rotation - cart. axis [0,1,1]   

 cryst.   s(37) = (     1          0          0      )
                  (     0          0         -1      )
                  (     0         -1          0      )

 cart.    s(37) = (  1.0000000  0.0000000  0.0000000 )
                  (  0.0000000  0.0000000 -1.0000000 )
                  (  0.0000000 -1.0000000  0.0000000 )


      isym = 38     inv. 180 deg rotation - cart. axis [0,1,-1]  

 cryst.   s(38) = (     1          0          0      )
                  (     0          0          1      )
                  (     0          1          0      )

 cart.    s(38) = (  1.0000000  0.0000000  0.0000000 )
                  (  0.0000000  0.0000000  1.0000000 )
                  (  0.0000000  1.0000000  0.0000000 )


      isym = 39     inv.  90 deg rotation - cart. axis [-1,0,0]  

 cryst.   s(39) = (    -1          0          0      )
                  (     0          0          1      )
                  (     0         -1          0      )

 cart.    s(39) = ( -1.0000000  0.0000000  0.0000000 )
                  (  0.0000000  0.0000000 -1.0000000 )
                  (  0.0000000  1.0000000  0.0000000 )


      isym = 40     inv.  90 deg rotation - cart. axis [1,0,0]   

 cryst.   s(40) = (    -1          0          0      )
                  (     0          0         -1      )
                  (     0          1          0      )

 cart.    s(40) = ( -1.0000000  0.0000000  0.0000000 )
                  (  0.0000000  0.0000000  1.0000000 )
                  (  0.0000000 -1.0000000  0.0000000 )


      isym = 41     inv. 120 deg rotation - cart. axis [-1,-1,-1]

 cryst.   s(41) = (     0          0         -1      )
                  (    -1          0          0      )
                  (     0         -1          0      )

 cart.    s(41) = (  0.0000000 -1.0000000  0.0000000 )
                  (  0.0000000  0.0000000 -1.0000000 )
                  ( -1.0000000  0.0000000  0.0000000 )


      isym = 42     inv. 120 deg rotation - cart. axis [-1,1,1]  

 cryst.   s(42) = (     0          0          1      )
                  (     1          0          0      )
                  (     0         -1          0      )

 cart.    s(42) = (  0.0000000  1.0000000  0.0000000 )
                  (  0.0000000  0.0000000 -1.0000000 )
                  (  1.0000000  0.0000000  0.0000000 )


      isym = 43     inv. 120 deg rotation - cart. axis [1,1,-1]  

 cryst.   s(43) = (     0          0          1      )
                  (    -1          0          0      )
                  (     0          1          0      )

 cart.    s(43) = (  0.0000000 -1.0000000  0.0000000 )
                  (  0.0000000  0.0000000  1.0000000 )
                  (  1.0000000  0.0000000  0.0000000 )


      isym = 44     inv. 120 deg rotation - cart. axis [1,-1,1]  

 cryst.   s(44) = (     0          0         -1      )
                  (     1          0          0      )
                  (     0          1          0      )

 cart.    s(44) = (  0.0000000  1.0000000  0.0000000 )
                  (  0.0000000  0.0000000  1.0000000 )
                  ( -1.0000000  0.0000000  0.0000000 )


      isym = 45     inv. 120 deg rotation - cart. axis [1,1,1]   

 cryst.   s(45) = (     0         -1          0      )
                  (     0          0         -1      )
                  (    -1          0          0      )

 cart.    s(45) = (  0.0000000  0.0000000 -1.0000000 )
                  ( -1.0000000  0.0000000  0.0000000 )
                  (  0.0000000 -1.0000000  0.0000000 )


      isym = 46     inv. 120 deg rotation - cart. axis [-1,1,-1] 

 cryst.   s(46) = (     0          1          0      )
                  (     0          0          1      )
                  (    -1          0          0      )

 cart.    s(46) = (  0.0000000  0.0000000 -1.0000000 )
                  (  1.0000000  0.0000000  0.0000000 )
                  (  0.0000000  1.0000000  0.0000000 )


      isym = 47     inv. 120 deg rotation - cart. axis [1,-1,-1] 

 cryst.   s(47) = (     0          1          0      )
                  (     0          0         -1      )
                  (     1          0          0      )

 cart.    s(47) = (  0.0000000  0.0000000  1.0000000 )
                  (  1.0000000  0.0000000  0.0000000 )
                  (  0.0000000 -1.0000000  0.0000000 )


      isym = 48     inv. 120 deg rotation - cart. axis [-1,-1,1] 

 cryst.   s(48) = (     0         -1          0      )
                  (     0          0          1      )
                  (     1          0          0      )

 cart.    s(48) = (  0.0000000  0.0000000  1.0000000 )
                  ( -1.0000000  0.0000000  0.0000000 )
                  (  0.0000000  1.0000000  0.0000000 )


     point group O_h (m-3m) 
     there are 10 classes
     the character table:

       E     8C3   3C2   6C4   6C2'  i     8S6   3s_h  6S4   6s_d 
A_1g   1.00  1.00  1.00  1.00  1.00  1.00  1.00  1.00  1.00  1.00
A_2g   1.00  1.00  1.00 -1.00 -1.00  1.00  1.00  1.00 -1.00 -1.00
E_g    2.00 -1.00  2.00  0.00  0.00  2.00 -1.00  2.00  0.00  0.00
T_1g   3.00  0.00 -1.00  1.00 -1.00  3.00  0.00 -1.00  1.00 -1.00
T_2g   3.00  0.00 -1.00 -1.00  1.00  3.00  0.00 -1.00 -1.00  1.00
A_1u   1.00  1.00  1.00  1.00  1.00 -1.00 -1.00 -1.00 -1.00 -1.00
A_2u   1.00  1.00  1.00 -1.00 -1.00 -1.00 -1.00 -1.00  1.00  1.00
E_u    2.00 -1.00  2.00  0.00  0.00 -2.00  1.00 -2.00  0.00  0.00
T_1u   3.00  0.00 -1.00  1.00 -1.00 -3.00  0.00  1.00 -1.00  1.00
T_2u   3.00  0.00 -1.00 -1.00  1.00 -3.00  0.00  1.00  1.00 -1.00

     the symmetry operations in each class and the name of the first element:

     E        1
          identity                                               
     8C3     17   19   20   18   24   21   22   23
          120 deg rotation - cart. axis [-1,-1,-1]               
     3C2      2    4    3
          180 deg rotation - cart. axis [0,0,1]                  
     6C4      7    8   15   16   12   11
           90 deg rotation - cart. axis [0,0,-1]                 
     6C2'     5    6   14   13   10    9
          180 deg rotation - cart. axis [1,1,0]                  
     i       25
          inversion                                              
     8S6     41   43   44   42   48   45   46   47
          inv. 120 deg rotation - cart. axis [-1,-1,-1]          
     3s_h    26   28   27
          inv. 180 deg rotation - cart. axis [0,0,1]             
     6S4     31   32   39   40   36   35
          inv.  90 deg rotation - cart. axis [0,0,-1]            
     6s_d    29   30   38   37   34   33
          inv. 180 deg rotation - cart. axis [1,1,0]             

   Cartesian axes

     site n.     atom                  positions (alat units)
         1           Fe  tau(   1) = (   0.0000000   0.0000000   0.0000000  )
         2           Fe  tau(   2) = (   0.5000000   0.5000000   0.5000000  )

   Crystallographic axes

     site n.     atom                  positions (cryst. coord.)
         1           Fe  tau(   1) = (  0.0000000  0.0000000  0.0000000  )
         2           Fe  tau(   2) = (  0.5000000  0.5000000  0.5000000  )

     number of k points=    56  Gaussian smearing, width (Ry)=  0.0010
                       cart. coord. in units 2pi/alat
        k(    1) = (   0.0000000   0.0000000   0.0000000), wk =   0.0010000
        k(    2) = (   0.0000000   0.0000000   0.1000000), wk =   0.0060000
        k(    3) = (   0.0000000   0.0000000   0.2000000), wk =   0.0060000
        k(    4) = (   0.0000000   0.0000000   0.3000000), wk =   0.0060000
        k(    5) = (   0.0000000   0.0000000   0.4000000), wk =   0.0060000
        k(    6) = (   0.0000000   0.0000000  -0.5000000), wk =   0.0030000
        k(    7) = (   0.0000000   0.1000000   0.1000000), wk =   0.0120000
        k(    8) = (   0.0000000   0.1000000   0.2000000), wk =   0.0240000
        k(    9) = (   0.0000000   0.1000000   0.3000000), wk =   0.0240000
        k(   10) = (   0.0000000   0.1000000   0.4000000), wk =   0.0240000
        k(   11) = (   0.0000000   0.1000000  -0.5000000), wk =   0.0120000
        k(   12) = (   0.0000000   0.2000000   0.2000000), wk =   0.0120000
        k(   13) = (   0.0000000   0.2000000   0.3000000), wk =   0.0240000
        k(   14) = (   0.0000000   0.2000000   0.4000000), wk =   0.0240000
        k(   15) = (   0.0000000   0.2000000  -0.5000000), wk =   0.0120000
        k(   16) = (   0.0000000   0.3000000   0.3000000), wk =   0.0120000
        k(   17) = (   0.0000000   0.3000000   0.4000000), wk =   0.0240000
        k(   18) = (   0.0000000   0.3000000  -0.5000000), wk =   0.0120000
        k(   19) = (   0.0000000   0.4000000   0.4000000), wk =   0.0120000
        k(   20) = (   0.0000000   0.4000000  -0.5000000), wk =   0.0120000
        k(   21) = (   0.0000000  -0.5000000  -0.5000000), wk =   0.0030000
        k(   22) = (   0.1000000   0.1000000   0.1000000), wk =   0.0080000
        k(   23) = (   0.1000000   0.1000000   0.2000000), wk =   0.0240000
        k(   24) = (   0.1000000   0.1000000   0.3000000), wk =   0.0240000
        k(   25) = (   0.1000000   0.1000000   0.4000000), wk =   0.0240000
        k(   26) = (   0.1000000   0.1000000  -0.5000000), wk =   0.0120000
        k(   27) = (   0.1000000   0.2000000   0.2000000), wk =   0.0240000
        k(   28) = (   0.1000000   0.2000000   0.3000000), wk =   0.0480000
        k(   29) = (   0.1000000   0.2000000   0.4000000), wk =   0.0480000
        k(   30) = (   0.1000000   0.2000000  -0.5000000), wk =   0.0240000
        k(   31) = (   0.1000000   0.3000000   0.3000000), wk =   0.0240000
        k(   32) = (   0.1000000   0.3000000   0.4000000), wk =   0.0480000
        k(   33) = (   0.1000000   0.3000000  -0.5000000), wk =   0.0240000
        k(   34) = (   0.1000000   0.4000000   0.4000000), wk =   0.0240000
        k(   35) = (   0.1000000   0.4000000  -0.5000000), wk =   0.0240000
        k(   36) = (   0.1000000  -0.5000000  -0.5000000), wk =   0.0060000
        k(   37) = (   0.2000000   0.2000000   0.2000000), wk =   0.0080000
        k(   38) = (   0.2000000   0.2000000   0.3000000), wk =   0.0240000
        k(   39) = (   0.2000000   0.2000000   0.4000000), wk =   0.0240000
        k(   40) = (   0.2000000   0.2000000  -0.5000000), wk =   0.0120000
        k(   41) = (   0.2000000   0.3000000   0.3000000), wk =   0.0240000
        k(   42) = (   0.2000000   0.3000000   0.4000000), wk =   0.0480000
        k(   43) = (   0.2000000   0.3000000  -0.5000000), wk =   0.0240000
        k(   44) = (   0.2000000   0.4000000   0.4000000), wk =   0.0240000
        k(   45) = (   0.2000000   0.4000000  -0.5000000), wk =   0.0240000
        k(   46) = (   0.2000000  -0.5000000  -0.5000000), wk =   0.0060000
        k(   47) = (   0.3000000   0.3000000   0.3000000), wk =   0.0080000
        k(   48) = (   0.3000000   0.3000000   0.4000000), wk =   0.0240000
        k(   49) = (   0.3000000   0.3000000  -0.5000000), wk =   0.0120000
        k(   50) = (   0.3000000   0.4000000   0.4000000), wk =   0.0240000
        k(   51) = (   0.3000000   0.4000000  -0.5000000), wk =   0.0240000
        k(   52) = (   0.3000000  -0.5000000  -0.5000000), wk =   0.0060000
        k(   53) = (   0.4000000   0.4000000   0.4000000), wk =   0.0080000
        k(   54) = (   0.4000000   0.4000000  -0.5000000), wk =   0.0120000
        k(   55) = (   0.4000000  -0.5000000  -0.5000000), wk =   0.0060000
        k(   56) = (  -0.5000000  -0.5000000  -0.5000000), wk =   0.0010000

                       cryst. coord.
        k(    1) = (   0.0000000   0.0000000   0.0000000), wk =   0.0010000
        k(    2) = (   0.0000000   0.0000000   0.1000000), wk =   0.0060000
        k(    3) = (   0.0000000   0.0000000   0.2000000), wk =   0.0060000
        k(    4) = (   0.0000000   0.0000000   0.3000000), wk =   0.0060000
        k(    5) = (   0.0000000   0.0000000   0.4000000), wk =   0.0060000
        k(    6) = (   0.0000000   0.0000000  -0.5000000), wk =   0.0030000
        k(    7) = (   0.0000000   0.1000000   0.1000000), wk =   0.0120000
        k(    8) = (   0.0000000   0.1000000   0.2000000), wk =   0.0240000
        k(    9) = (   0.0000000   0.1000000   0.3000000), wk =   0.0240000
        k(   10) = (   0.0000000   0.1000000   0.4000000), wk =   0.0240000
        k(   11) = (   0.0000000   0.1000000  -0.5000000), wk =   0.0120000
        k(   12) = (   0.0000000   0.2000000   0.2000000), wk =   0.0120000
        k(   13) = (   0.0000000   0.2000000   0.3000000), wk =   0.0240000
        k(   14) = (   0.0000000   0.2000000   0.4000000), wk =   0.0240000
        k(   15) = (   0.0000000   0.2000000  -0.5000000), wk =   0.0120000
        k(   16) = (   0.0000000   0.3000000   0.3000000), wk =   0.0120000
        k(   17) = (   0.0000000   0.3000000   0.4000000), wk =   0.0240000
        k(   18) = (   0.0000000   0.3000000  -0.5000000), wk =   0.0120000
        k(   19) = (   0.0000000   0.4000000   0.4000000), wk =   0.0120000
        k(   20) = (   0.0000000   0.4000000  -0.5000000), wk =   0.0120000
        k(   21) = (   0.0000000  -0.5000000  -0.5000000), wk =   0.0030000
        k(   22) = (   0.1000000   0.1000000   0.1000000), wk =   0.0080000
        k(   23) = (   0.1000000   0.1000000   0.2000000), wk =   0.0240000
        k(   24) = (   0.1000000   0.1000000   0.3000000), wk =   0.0240000
        k(   25) = (   0.1000000   0.1000000   0.4000000), wk =   0.0240000
        k(   26) = (   0.1000000   0.1000000  -0.5000000), wk =   0.0120000
        k(   27) = (   0.1000000   0.2000000   0.2000000), wk =   0.0240000
        k(   28) = (   0.1000000   0.2000000   0.3000000), wk =   0.0480000
        k(   29) = (   0.1000000   0.2000000   0.4000000), wk =   0.0480000
        k(   30) = (   0.1000000   0.2000000  -0.5000000), wk =   0.0240000
        k(   31) = (   0.1000000   0.3000000   0.3000000), wk =   0.0240000
        k(   32) = (   0.1000000   0.3000000   0.4000000), wk =   0.0480000
        k(   33) = (   0.1000000   0.3000000  -0.5000000), wk =   0.0240000
        k(   34) = (   0.1000000   0.4000000   0.4000000), wk =   0.0240000
        k(   35) = (   0.1000000   0.4000000  -0.5000000), wk =   0.0240000
        k(   36) = (   0.1000000  -0.5000000  -0.5000000), wk =   0.0060000
        k(   37) = (   0.2000000   0.2000000   0.2000000), wk =   0.0080000
        k(   38) = (   0.2000000   0.2000000   0.3000000), wk =   0.0240000
        k(   39) = (   0.2000000   0.2000000   0.4000000), wk =   0.0240000
        k(   40) = (   0.2000000   0.2000000  -0.5000000), wk =   0.0120000
        k(   41) = (   0.2000000   0.3000000   0.3000000), wk =   0.0240000
        k(   42) = (   0.2000000   0.3000000   0.4000000), wk =   0.0480000
        k(   43) = (   0.2000000   0.3000000  -0.5000000), wk =   0.0240000
        k(   44) = (   0.2000000   0.4000000   0.4000000), wk =   0.0240000
        k(   45) = (   0.2000000   0.4000000  -0.5000000), wk =   0.0240000
        k(   46) = (   0.2000000  -0.5000000  -0.5000000), wk =   0.0060000
        k(   47) = (   0.3000000   0.3000000   0.3000000), wk =   0.0080000
        k(   48) = (   0.3000000   0.3000000   0.4000000), wk =   0.0240000
        k(   49) = (   0.3000000   0.3000000  -0.5000000), wk =   0.0120000
        k(   50) = (   0.3000000   0.4000000   0.4000000), wk =   0.0240000
        k(   51) = (   0.3000000   0.4000000  -0.5000000), wk =   0.0240000
        k(   52) = (   0.3000000  -0.5000000  -0.5000000), wk =   0.0060000
        k(   53) = (   0.4000000   0.4000000   0.4000000), wk =   0.0080000
        k(   54) = (   0.4000000   0.4000000  -0.5000000), wk =   0.0120000
        k(   55) = (   0.4000000  -0.5000000  -0.5000000), wk =   0.0060000
        k(   56) = (  -0.5000000  -0.5000000  -0.5000000), wk =   0.0010000

     Dense  grid:    44713 G-vectors     FFT dimensions: (  45,  45,  45)

     Smooth grid:    19381 G-vectors     FFT dimensions: (  36,  36,  36)

     Dynamical RAM for                 wfc:       0.07 MB

     Dynamical RAM for     wfc (w. buffer):       4.21 MB

     Dynamical RAM for           str. fact:       0.07 MB

     Dynamical RAM for           local pot:       0.00 MB

     Dynamical RAM for          nlocal pot:       0.13 MB

     Dynamical RAM for                qrad:       2.12 MB

     Dynamical RAM for          rho,v,vnew:       0.87 MB

     Dynamical RAM for               rhoin:       0.29 MB

     Dynamical RAM for            rho*nmix:       2.18 MB

     Dynamical RAM for           G-vectors:       0.27 MB

     Dynamical RAM for          h,s,v(r/c):       0.07 MB

     Dynamical RAM for          <psi|beta>:       0.01 MB

     Dynamical RAM for                 psi:       0.15 MB

     Dynamical RAM for                hpsi:       0.15 MB

     Dynamical RAM for                spsi:       0.15 MB

     Dynamical RAM for      wfcinit/wfcrot:       0.16 MB

     Dynamical RAM for           addusdens:       6.52 MB

     Estimated static dynamical RAM per process >       8.57 MB

     Estimated max dynamical RAM per process >      17.27 MB

     Estimated total dynamical RAM >     323.52 MB
     Generating pointlists ...
     new r_m :   0.3572 (alat units)  1.8700 (a.u.) for type    1

     The initial density is read from file :
     ./out/Fe.save/charge-density


     starting charge      32.3491, renormalised to      32.0000

     negative rho (up, down):  0.000E+00 8.398E-05
     Starting wfcs from file
     Checking if some PAW data can be deallocated... 

     total cpu time spent up to now is        0.5 secs

     Self-consistent Calculation

     iteration #  1     ecut=   100.00 Ry     beta= 0.40
     Davidson diagonalization with overlap

---- Real-time Memory Report at c_bands before calling an iterative solver
            57 MiB given to the printing process from OS
             0 MiB allocation reported by mallinfo(arena+hblkhd)
        360129 MiB available memory on the node where the printing process lives
------------------
     ethr =  1.00E-05,  avg # of iterations =  4.5

     negative rho (up, down):  0.000E+00 6.876E-05

     total cpu time spent up to now is        1.8 secs

     total energy              =    -658.51928536 Ry
     estimated scf accuracy    <       0.05163630 Ry

     total magnetization       =     4.19 Bohr mag/cell
     absolute magnetization    =     4.38 Bohr mag/cell

     iteration #  2     ecut=   100.00 Ry     beta= 0.40
     Davidson diagonalization with overlap

---- Real-time Memory Report at c_bands before calling an iterative solver
            72 MiB given to the printing process from OS
             0 MiB allocation reported by mallinfo(arena+hblkhd)
        359918 MiB available memory on the node where the printing process lives
------------------
     ethr =  1.61E-04,  avg # of iterations =  3.0

     negative rho (up, down):  0.000E+00 7.737E-05

     total cpu time spent up to now is        2.8 secs

     total energy              =    -658.53476164 Ry
     estimated scf accuracy    <       0.01206996 Ry

     total magnetization       =     4.07 Bohr mag/cell
     absolute magnetization    =     4.28 Bohr mag/cell

     iteration #  3     ecut=   100.00 Ry     beta= 0.40
     Davidson diagonalization with overlap

---- Real-time Memory Report at c_bands before calling an iterative solver
            75 MiB given to the printing process from OS
             0 MiB allocation reported by mallinfo(arena+hblkhd)
        359896 MiB available memory on the node where the printing process lives
------------------
     ethr =  3.77E-05,  avg # of iterations =  1.9

     negative rho (up, down):  0.000E+00 8.519E-05

     total cpu time spent up to now is        3.6 secs

     total energy              =    -658.53578029 Ry
     estimated scf accuracy    <       0.00064693 Ry

     total magnetization       =     4.09 Bohr mag/cell
     absolute magnetization    =     4.30 Bohr mag/cell

     iteration #  4     ecut=   100.00 Ry     beta= 0.40
     Davidson diagonalization with overlap

---- Real-time Memory Report at c_bands before calling an iterative solver
            76 MiB given to the printing process from OS
             0 MiB allocation reported by mallinfo(arena+hblkhd)
        359885 MiB available memory on the node where the printing process lives
------------------
     ethr =  2.02E-06,  avg # of iterations =  3.7

     negative rho (up, down):  0.000E+00 8.371E-05

     total cpu time spent up to now is        4.6 secs

     total energy              =    -658.53595765 Ry
     estimated scf accuracy    <       0.00175146 Ry

     total magnetization       =     4.12 Bohr mag/cell
     absolute magnetization    =     4.32 Bohr mag/cell

     iteration #  5     ecut=   100.00 Ry     beta= 0.40
     Davidson diagonalization with overlap

---- Real-time Memory Report at c_bands before calling an iterative solver
            77 MiB given to the printing process from OS
             0 MiB allocation reported by mallinfo(arena+hblkhd)
        359878 MiB available memory on the node where the printing process lives
------------------
     ethr =  2.02E-06,  avg # of iterations =  2.9

     negative rho (up, down):  0.000E+00 8.366E-05

     total cpu time spent up to now is        5.6 secs

     total energy              =    -658.53616073 Ry
     estimated scf accuracy    <       0.00009895 Ry

     total magnetization       =     4.09 Bohr mag/cell
     absolute magnetization    =     4.30 Bohr mag/cell

     iteration #  6     ecut=   100.00 Ry     beta= 0.40
     Davidson diagonalization with overlap

---- Real-time Memory Report at c_bands before calling an iterative solver
            77 MiB given to the printing process from OS
             0 MiB allocation reported by mallinfo(arena+hblkhd)
        359864 MiB available memory on the node where the printing process lives
------------------
     ethr =  3.09E-07,  avg # of iterations =  2.1

     negative rho (up, down):  0.000E+00 8.381E-05

     total cpu time spent up to now is        6.4 secs

     total energy              =    -658.53617804 Ry
     estimated scf accuracy    <       0.00000242 Ry

     total magnetization       =     4.09 Bohr mag/cell
     absolute magnetization    =     4.30 Bohr mag/cell

     iteration #  7     ecut=   100.00 Ry     beta= 0.40
     Davidson diagonalization with overlap

---- Real-time Memory Report at c_bands before calling an iterative solver
            77 MiB given to the printing process from OS
             0 MiB allocation reported by mallinfo(arena+hblkhd)
        359859 MiB available memory on the node where the printing process lives
------------------
     ethr =  7.55E-09,  avg # of iterations =  3.8

     negative rho (up, down):  0.000E+00 8.549E-05

     total cpu time spent up to now is        7.5 secs

     total energy              =    -658.53617497 Ry
     estimated scf accuracy    <       0.00001942 Ry

     total magnetization       =     4.09 Bohr mag/cell
     absolute magnetization    =     4.30 Bohr mag/cell

     iteration #  8     ecut=   100.00 Ry     beta= 0.40
     Davidson diagonalization with overlap

---- Real-time Memory Report at c_bands before calling an iterative solver
            79 MiB given to the printing process from OS
             0 MiB allocation reported by mallinfo(arena+hblkhd)
        359848 MiB available memory on the node where the printing process lives
------------------
     ethr =  7.55E-09,  avg # of iterations =  3.6

     negative rho (up, down):  0.000E+00 8.560E-05

     total cpu time spent up to now is        8.6 secs

     total energy              =    -658.53617741 Ry
     estimated scf accuracy    <       0.00000119 Ry

     total magnetization       =     4.09 Bohr mag/cell
     absolute magnetization    =     4.30 Bohr mag/cell

     iteration #  9     ecut=   100.00 Ry     beta= 0.40
     Davidson diagonalization with overlap

---- Real-time Memory Report at c_bands before calling an iterative solver
            79 MiB given to the printing process from OS
             0 MiB allocation reported by mallinfo(arena+hblkhd)
        359842 MiB available memory on the node where the printing process lives
------------------
     ethr =  3.71E-09,  avg # of iterations =  1.2

     negative rho (up, down):  0.000E+00 8.541E-05

     total cpu time spent up to now is        9.3 secs

     total energy              =    -658.53617752 Ry
     estimated scf accuracy    <       0.00000032 Ry

     total magnetization       =     4.09 Bohr mag/cell
     absolute magnetization    =     4.30 Bohr mag/cell

     iteration # 10     ecut=   100.00 Ry     beta= 0.40
     Davidson diagonalization with overlap

---- Real-time Memory Report at c_bands before calling an iterative solver
            80 MiB given to the printing process from OS
             0 MiB allocation reported by mallinfo(arena+hblkhd)
        359836 MiB available memory on the node where the printing process lives
------------------
     ethr =  1.00E-09,  avg # of iterations =  2.2

     negative rho (up, down):  0.000E+00 8.527E-05

     total cpu time spent up to now is       10.2 secs

     total energy              =    -658.53617763 Ry
     estimated scf accuracy    <       0.00000007 Ry

     total magnetization       =     4.09 Bohr mag/cell
     absolute magnetization    =     4.30 Bohr mag/cell

     iteration # 11     ecut=   100.00 Ry     beta= 0.40
     Davidson diagonalization with overlap

---- Real-time Memory Report at c_bands before calling an iterative solver
            80 MiB given to the printing process from OS
             0 MiB allocation reported by mallinfo(arena+hblkhd)
        359835 MiB available memory on the node where the printing process lives
------------------
     ethr =  2.06E-10,  avg # of iterations =  2.8

     negative rho (up, down):  0.000E+00 8.520E-05

     total cpu time spent up to now is       11.1 secs

     total energy              =    -658.53617767 Ry
     estimated scf accuracy    <       0.00000005 Ry

     total magnetization       =     4.08 Bohr mag/cell
     absolute magnetization    =     4.30 Bohr mag/cell

     iteration # 12     ecut=   100.00 Ry     beta= 0.40
     Davidson diagonalization with overlap

---- Real-time Memory Report at c_bands before calling an iterative solver
            81 MiB given to the printing process from OS
             0 MiB allocation reported by mallinfo(arena+hblkhd)
        359829 MiB available memory on the node where the printing process lives
------------------
     ethr =  1.65E-10,  avg # of iterations =  1.0

     negative rho (up, down):  0.000E+00 8.519E-05

     total cpu time spent up to now is       11.8 secs

     total energy              =    -658.53617766 Ry
     estimated scf accuracy    <       0.00000003 Ry

     total magnetization       =     4.08 Bohr mag/cell
     absolute magnetization    =     4.29 Bohr mag/cell

     iteration # 13     ecut=   100.00 Ry     beta= 0.40
     Davidson diagonalization with overlap

---- Real-time Memory Report at c_bands before calling an iterative solver
            82 MiB given to the printing process from OS
             0 MiB allocation reported by mallinfo(arena+hblkhd)
        359827 MiB available memory on the node where the printing process lives
------------------
     ethr =  8.87E-11,  avg # of iterations =  1.5

     negative rho (up, down):  0.000E+00 8.514E-05

     total cpu time spent up to now is       12.7 secs

     total energy              =    -658.53617766 Ry
     estimated scf accuracy    <          4.8E-09 Ry

     total magnetization       =     4.08 Bohr mag/cell
     absolute magnetization    =     4.29 Bohr mag/cell

     iteration # 14     ecut=   100.00 Ry     beta= 0.40
     Davidson diagonalization with overlap

---- Real-time Memory Report at c_bands before calling an iterative solver
            82 MiB given to the printing process from OS
             0 MiB allocation reported by mallinfo(arena+hblkhd)
        359826 MiB available memory on the node where the printing process lives
------------------
     ethr =  1.49E-11,  avg # of iterations =  2.3

     negative rho (up, down):  0.000E+00 8.514E-05
 
     Magnetic moment per site  (integrated on atomic sphere of radius R)
     atom   1 (R=0.357)  charge= 14.3348  magn=  2.0825
     atom   2 (R=0.357)  charge= 14.3350  magn=  2.0825

     total cpu time spent up to now is       13.6 secs

     End of self-consistent calculation

 ------ SPIN UP ------------


          k = 0.0000 0.0000 0.0000 (  2469 PWs)   bands (ev):

   -68.2942 -68.1130 -34.3975 -34.3975 -34.3975 -34.0276 -34.0276 -34.0276
    10.9329  14.5688  14.5688  17.4474  17.4474  17.4474  18.7790  18.7790
    20.1517  20.1517  20.1517  30.1855

     occupation numbers 
     1.0000   1.0000   1.0000   1.0000   1.0000   1.0000   1.0000   1.0000
     1.0000   1.0000   1.0000   1.0000   1.0000   1.0000   1.0000   1.0000
     0.0000   0.0000   0.0000   0.0000

          k = 0.0000 0.0000 0.1000 (  2441 PWs)   bands (ev):

   -68.2891 -68.1168 -34.3965 -34.3879 -34.3879 -34.0449 -34.0361 -34.0361
    11.1521  14.6656  14.6711  17.4450  17.4450  17.5098  18.6729  18.8206
    19.9555  19.9555  20.0818  28.8277

     occupation numbers 
     1.0000   1.0000   1.0000   1.0000   1.0000   1.0000   1.0000   1.0000
     1.0000   1.0000   1.0000   1.0000   1.0000   1.0000   1.0000   1.0000
     0.0701   0.0701   0.0000   0.0000

          k = 0.0000 0.0000 0.2000 (  2429 PWs)   bands (ev):

   -68.2745 -68.1279 -34.3914 -34.3603 -34.3603 -34.0928 -34.0610 -34.0610
    11.7876  14.9353  14.9488  17.4524  17.4524  17.6922  18.3645  18.9402
    19.4689  19.4689  19.8799  26.3002

     occupation numbers 
     1.0000   1.0000   1.0000   1.0000   1.0000   1.0000   1.0000   1.0000
     1.0000   1.0000   1.0000   1.0000   1.0000   1.0000   1.0000   1.0000
     1.0000   1.0000   1.0000   0.0000

          k = 0.0000 0.0000 0.3000 (  2429 PWs)   bands (ev):

   -68.2523 -68.1457 -34.3767 -34.3177 -34.3177 -34.1602 -34.1002 -34.1002
    12.7630  15.2276  15.3963  17.5071  17.5071  17.8840  17.9792  18.8843
    18.8843  19.1372  19.5686  23.7691

     occupation numbers 
     1.0000   1.0000   1.0000   1.0000   1.0000   1.0000   1.0000   1.0000
     1.0000   1.0000   1.0000   1.0000   1.0000   1.0000   1.0000   1.0000
     1.0000   1.0000   1.0000   0.0000

          k = 0.0000 0.0000 0.4000 (  2416 PWs)   bands (ev):

   -68.2253 -68.1692 -34.3465 -34.2648 -34.2648 -34.2328 -34.1504 -34.1504
    13.9063  15.3079  15.9709  17.2813  17.6540  17.6540  18.3463  18.3465
    18.3465  19.1819  19.4782  21.6426

     occupation numbers 
     1.0000   1.0000   1.0000   1.0000   1.0000   1.0000   1.0000   1.0000
     1.0000   1.0000   1.0000   1.0000   1.0000   1.0000   1.0000   1.0000
     1.0000   1.0000   1.0000   0.0000

          k = 0.0000 0.0000-0.5000 (  2416 PWs)   bands (ev):

   -68.1967 -68.1966 -34.2979 -34.2977 -34.2071 -34.2071 -34.2070 -34.2070
    14.8780  14.8780  16.6206  16.6206  17.9292  17.9292  17.9293  17.9293
    18.7603  18.7604  20.2056  20.2056

     occupation numbers 
     1.0000   1.0000   1.0000   1.0000   1.0000   1.0000   1.0000   1.0000
     1.0000   1.0000   1.0000   1.0000   1.0000   1.0000   1.0000   1.0000
     1.0000   1.0000   0.0000   0.0000

          k = 0.0000 0.1000 0.1000 (  2425 PWs)   bands (ev):

   -68.2842 -68.1203 -34.4118 -34.3788 -34.3628 -34.0783 -34.0442 -34.0276
    11.3671  14.7560  14.7759  17.3222  17.4282  17.6915  18.6653  18.7896
    19.6215  19.7611  20.1804  28.8913

     occupation numbers 
     1.0000   1.0000   1.0000   1.0000   1.0000   1.0000   1.0000   1.0000
     1.0000   1.0000   1.0000   1.0000   1.0000   1.0000   1.0000   1.0000
     1.0000   1.0000   0.0000   0.0000

          k = 0.0000 0.1000 0.2000 (  2430 PWs)   bands (ev):

   -68.2702 -68.1308 -34.4202 -34.3524 -34.3242 -34.1372 -34.0677 -34.0386
    11.9880  15.0024  15.0623  17.2343  17.3938  17.9648  18.4493  18.8925
    19.0749  19.2905  20.1067  26.5599

     occupation numbers 
     1.0000   1.0000   1.0000   1.0000   1.0000   1.0000   1.0000   1.0000
     1.0000   1.0000   1.0000   1.0000   1.0000   1.0000   1.0000   1.0000
     1.0000   1.0000   0.0000   0.0000

          k = 0.0000 0.1000 0.3000 (  2421 PWs)   bands (ev):

   -68.2490 -68.1476 -34.4146 -34.3117 -34.2762 -34.2096 -34.1049 -34.0685
    12.9329  15.2934  15.4767  17.2283  17.3375  18.1305  18.3031  18.4893
    18.7601  19.0943  19.8663  24.0056

     occupation numbers 
     1.0000   1.0000   1.0000   1.0000   1.0000   1.0000   1.0000   1.0000
     1.0000   1.0000   1.0000   1.0000   1.0000   1.0000   1.0000   1.0000
     1.0000   1.0000   1.0000   0.0000

          k = 0.0000 0.1000 0.4000 (  2423 PWs)   bands (ev):

   -68.2232 -68.1699 -34.3906 -34.2830 -34.2613 -34.2219 -34.1525 -34.1126
    14.0222  15.3591  16.0016  17.0866  17.3345  17.9707  17.9844  18.3448
    18.6937  19.4537  19.5167  21.8153

     occupation numbers 
     1.0000   1.0000   1.0000   1.0000   1.0000   1.0000   1.0000   1.0000
     1.0000   1.0000   1.0000   1.0000   1.0000   1.0000   1.0000   1.0000
     1.0000   1.0000   1.0000   0.0000

          k = 0.0000 0.1000-0.5000 (  2424 PWs)   bands (ev):

   -68.1959 -68.1958 -34.3460 -34.3460 -34.2064 -34.2063 -34.1656 -34.1656
    14.9359  14.9359  16.5765  16.5765  17.5791  17.5791  18.0996  18.0997
    19.1106  19.1106  20.2649  20.2649

     occupation numbers 
     1.0000   1.0000   1.0000   1.0000   1.0000   1.0000   1.0000   1.0000
     1.0000   1.0000   1.0000   1.0000   1.0000   1.0000   1.0000   1.0000
     1.0000   1.0000   0.0000   0.0000

          k = 0.0000 0.2000 0.2000 (  2412 PWs)   bands (ev):

   -68.2581 -68.1394 -34.4494 -34.3296 -34.2716 -34.2098 -34.0874 -34.0278
    12.5578  15.1540  15.3935  17.0044  17.2987  18.3650  18.4670  18.5640
    18.8276  18.8905  20.2560  26.5312

     occupation numbers 
     1.0000   1.0000   1.0000   1.0000   1.0000   1.0000   1.0000   1.0000
     1.0000   1.0000   1.0000   1.0000   1.0000   1.0000   1.0000   1.0000
     1.0000   1.0000   0.0000   0.0000

          k = 0.0000 0.2000 0.3000 (  2418 PWs)   bands (ev):

   -68.2396 -68.1534 -34.4626 -34.2946 -34.2892 -34.2158 -34.1186 -34.0382
    13.3888  15.3049  15.8467  16.8763  17.2409  17.8769  18.4756  18.5261
    18.7940  18.9796  20.2013  24.4494

     occupation numbers 
     1.0000   1.0000   1.0000   1.0000   1.0000   1.0000   1.0000   1.0000
     1.0000   1.0000   1.0000   1.0000   1.0000   1.0000   1.0000   1.0000
     1.0000   1.0000   0.0000   0.0000

          k = 0.0000 0.2000 0.4000 (  2426 PWs)   bands (ev):

   -68.2174 -68.1720 -34.4539 -34.3630 -34.2513 -34.1602 -34.1588 -34.0667
    14.2696  15.2831  16.3294  16.8851  17.1137  17.3905  18.3804  18.4329
    19.2276  19.3771  19.9767  22.1959

     occupation numbers 
     1.0000   1.0000   1.0000   1.0000   1.0000   1.0000   1.0000   1.0000
     1.0000   1.0000   1.0000   1.0000   1.0000   1.0000   1.0000   1.0000
     1.0000   1.0000   0.0001   0.0000

          k = 0.0000 0.2000-0.5000 (  2422 PWs)   bands (ev):

   -68.1941 -68.1940 -34.4202 -34.4202 -34.2046 -34.2044 -34.1091 -34.1090
    14.9438  14.9438  16.7815  16.7815  17.0543  17.0543  18.4139  18.4140
    19.6354  19.6354  20.4141  20.4142

     occupation numbers 
     1.0000   1.0000   1.0000   1.0000   1.0000   1.0000   1.0000   1.0000
     1.0000   1.0000   1.0000   1.0000   1.0000   1.0000   1.0000   1.0000
     1.0000   1.0000   0.0000   0.0000

          k = 0.0000 0.3000 0.3000 (  2426 PWs)   bands (ev):

   -68.2256 -68.1629 -34.4955 -34.3702 -34.2685 -34.1575 -34.1406 -34.0280
    13.9617  15.2156  16.4076  16.6295  17.3138  17.4434  18.4085  18.6987
    18.8953  19.2813  20.3502  24.0962

     occupation numbers 
     1.0000   1.0000   1.0000   1.0000   1.0000   1.0000   1.0000   1.0000
     1.0000   1.0000   1.0000   1.0000   1.0000   1.0000   1.0000   1.0000
     1.0000   1.0000   0.0000   0.0000

          k = 0.0000 0.3000 0.4000 (  2413 PWs)   bands (ev):

   -68.2089 -68.1759 -34.5049 -34.4393 -34.2364 -34.1692 -34.1060 -34.0377
    14.4418  15.0313  16.5340  16.8798  16.9994  17.7108  18.4917  18.7647
    19.2391  19.7210  20.2981  22.3994

     occupation numbers 
     1.0000   1.0000   1.0000   1.0000   1.0000   1.0000   1.0000   1.0000
     1.0000   1.0000   1.0000   1.0000   1.0000   1.0000   1.0000   1.0000
     1.0000   1.0000   0.0000   0.0000

          k = 0.0000 0.3000-0.5000 (  2422 PWs)   bands (ev):

   -68.1918 -68.1917 -34.4861 -34.4861 -34.2022 -34.2021 -34.0649 -34.0649
    14.7776  14.7777  16.6151  16.6151  17.4886  17.4886  18.6736  18.6736
    20.0741  20.0741  20.5458  20.5458

     occupation numbers 
     1.0000   1.0000   1.0000   1.0000   1.0000   1.0000   1.0000   1.0000
     1.0000   1.0000   1.0000   1.0000   1.0000   1.0000   1.0000   1.0000
     0.0000   0.0000   0.0000   0.0000

          k = 0.0000 0.4000 0.4000 (  2432 PWs)   bands (ev):

   -68.1992 -68.1819 -34.5328 -34.4984 -34.2187 -34.1833 -34.0641 -34.0281
    14.5124  14.7770  16.3394  16.5142  17.7737  18.6436  18.6583  18.9681
    19.1515  20.1121  20.4271  21.8354

     occupation numbers 
     1.0000   1.0000   1.0000   1.0000   1.0000   1.0000   1.0000   1.0000
     1.0000   1.0000   1.0000   1.0000   1.0000   1.0000   1.0000   1.0000
     1.0000   0.0000   0.0000   0.0000

          k = 0.0000 0.4000-0.5000 (  2426 PWs)   bands (ev):

   -68.1899 -68.1898 -34.5310 -34.5310 -34.2004 -34.2002 -34.0375 -34.0375
    14.6015  14.6015  16.3300  16.3300  18.4285  18.4285  18.8295  18.8295
    20.3585  20.3585  20.4857  20.4857

     occupation numbers 
     1.0000   1.0000   1.0000   1.0000   1.0000   1.0000   1.0000   1.0000
     1.0000   1.0000   1.0000   1.0000   1.0000   1.0000   1.0000   1.0000
     0.0000   0.0000   0.0000   0.0000

          k = 0.0000-0.5000-0.5000 (  2408 PWs)   bands (ev):

   -68.1892 -68.1891 -34.5469 -34.5469 -34.1997 -34.1995 -34.0282 -34.0282
    14.5325  14.5326  16.2315  16.2315  18.8684  18.8684  19.0005  19.0005
    20.3044  20.3044  20.4566  20.4566

     occupation numbers 
     1.0000   1.0000   1.0000   1.0000   1.0000   1.0000   1.0000   1.0000
     1.0000   1.0000   1.0000   1.0000   1.0000   1.0000   1.0000   1.0000
     0.0000   0.0000   0.0000   0.0000

          k = 0.1000 0.1000 0.1000 (  2433 PWs)   bands (ev):

   -68.2795 -68.1236 -34.4019 -34.4019 -34.3319 -34.1086 -34.0365 -34.0365
    11.5785  14.8621  14.8621  17.2990  17.2990  17.8782  18.7165  18.7165
    19.1900  19.9849  19.9849  29.2698

     occupation numbers 
     1.0000   1.0000   1.0000   1.0000   1.0000   1.0000   1.0000   1.0000
     1.0000   1.0000   1.0000   1.0000   1.0000   1.0000   1.0000   1.0000
     1.0000   0.0000   0.0000   0.0000

          k = 0.1000 0.1000 0.2000 (  2430 PWs)   bands (ev):

   -68.2662 -68.1335 -34.4209 -34.3733 -34.2883 -34.1688 -34.0624 -34.0399
    12.1874  15.1124  15.1335  17.1679  17.2350  18.2026  18.5137  18.5986
    18.8532  19.5081  20.0301  26.8374

     occupation numbers 
     1.0000   1.0000   1.0000   1.0000   1.0000   1.0000   1.0000   1.0000
     1.0000   1.0000   1.0000   1.0000   1.0000   1.0000   1.0000   1.0000
     1.0000   1.0000   0.0000   0.0000

          k = 0.1000 0.1000 0.3000 (  2416 PWs)   bands (ev):

   -68.2458 -68.1494 -34.4249 -34.3291 -34.2409 -34.2397 -34.1032 -34.0605
    13.1064  15.4184  15.5010  17.1234  17.1496  18.0517  18.2487  18.5871
    18.9526  19.0622  19.8755  24.2670

     occupation numbers 
     1.0000   1.0000   1.0000   1.0000   1.0000   1.0000   1.0000   1.0000
     1.0000   1.0000   1.0000   1.0000   1.0000   1.0000   1.0000   1.0000
     1.0000   1.0000   1.0000   0.0000

          k = 0.1000 0.1000 0.4000 (  2428 PWs)   bands (ev):

   -68.2212 -68.1705 -34.4089 -34.3119 -34.2742 -34.1889 -34.1554 -34.0951
    14.1500  15.4547  15.9821  16.8926  17.2722  17.6830  18.0792  18.4712
    18.9536  19.4839  19.5896  22.0465

     occupation numbers 
     1.0000   1.0000   1.0000   1.0000   1.0000   1.0000   1.0000   1.0000
     1.0000   1.0000   1.0000   1.0000   1.0000   1.0000   1.0000   1.0000
     1.0000   1.0000   1.0000   0.0000

          k = 0.1000 0.1000-0.5000 (  2418 PWs)   bands (ev):

   -68.1952 -68.1951 -34.3705 -34.3705 -34.2143 -34.2142 -34.1394 -34.1393
    15.0199  15.0199  16.4827  16.4827  17.4703  17.4703  18.1569  18.1570
    19.2607  19.2608  20.4227  20.4228

     occupation numbers 
     1.0000   1.0000   1.0000   1.0000   1.0000   1.0000   1.0000   1.0000
     1.0000   1.0000   1.0000   1.0000   1.0000   1.0000   1.0000   1.0000
     1.0000   1.0000   0.0000   0.0000

          k = 0.1000 0.2000 0.2000 (  2421 PWs)   bands (ev):

   -68.2545 -68.1416 -34.4385 -34.3625 -34.2384 -34.2331 -34.0787 -34.0376
    12.7529  15.2795  15.4479  16.9589  17.1117  17.9896  18.5979  18.6375
    18.8047  19.2608  20.0544  26.9047

     occupation numbers 
     1.0000   1.0000   1.0000   1.0000   1.0000   1.0000   1.0000   1.0000
     1.0000   1.0000   1.0000   1.0000   1.0000   1.0000   1.0000   1.0000
     1.0000   1.0000   0.0000   0.0000

          k = 0.1000 0.2000 0.3000 (  2423 PWs)   bands (ev):

   -68.2368 -68.1548 -34.4547 -34.3236 -34.3061 -34.1882 -34.1143 -34.0450
    13.5722  15.4515  15.8559  16.8182  17.0427  17.4945  18.5060  18.8327
    18.9465  19.1256  20.0134  24.7868

     occupation numbers 
     1.0000   1.0000   1.0000   1.0000   1.0000   1.0000   1.0000   1.0000
     1.0000   1.0000   1.0000   1.0000   1.0000   1.0000   1.0000   1.0000
     1.0000   1.0000   0.0000   0.0000

          k = 0.1000 0.2000 0.4000 (  2424 PWs)   bands (ev):

   -68.2156 -68.1724 -34.4517 -34.3735 -34.2724 -34.1618 -34.1409 -34.0664
    14.4286  15.4340  16.2296  16.7173  17.0725  17.2447  18.4186  18.5350
    19.1620  19.7681  19.8031  22.5525

     occupation numbers 
     1.0000   1.0000   1.0000   1.0000   1.0000   1.0000   1.0000   1.0000
     1.0000   1.0000   1.0000   1.0000   1.0000   1.0000   1.0000   1.0000
     1.0000   1.0000   1.0000   0.0000

          k = 0.1000 0.2000-0.5000 (  2428 PWs)   bands (ev):

   -68.1934 -68.1933 -34.4243 -34.4243 -34.2164 -34.2163 -34.0994 -34.0993
    15.0825  15.0825  16.5300  16.5300  17.1539  17.1539  18.4298  18.4298
    19.4744  19.4744  20.8291  20.8291

     occupation numbers 
     1.0000   1.0000   1.0000   1.0000   1.0000   1.0000   1.0000   1.0000
     1.0000   1.0000   1.0000   1.0000   1.0000   1.0000   1.0000   1.0000
     1.0000   1.0000   0.0000   0.0000

          k = 0.1000 0.3000 0.3000 (  2433 PWs)   bands (ev):

   -68.2234 -68.1637 -34.4836 -34.3772 -34.2951 -34.1400 -34.1386 -34.0389
    14.1529  15.3635  16.4069  16.5873  17.0451  17.1719  18.6361  18.6997
    18.8969  19.6643  20.1017  24.5519

     occupation numbers 
     1.0000   1.0000   1.0000   1.0000   1.0000   1.0000   1.0000   1.0000
     1.0000   1.0000   1.0000   1.0000   1.0000   1.0000   1.0000   1.0000
     1.0000   1.0000   0.0000   0.0000

          k = 0.1000 0.3000 0.4000 (  2424 PWs)   bands (ev):

   -68.2074 -68.1760 -34.4944 -34.4387 -34.2557 -34.1725 -34.0988 -34.0465
    14.6197  15.1782  16.4837  16.6734  17.0318  17.4731  18.6014  18.7221
    19.0918  19.9835  20.2916  22.9277

     occupation numbers 
     1.0000   1.0000   1.0000   1.0000   1.0000   1.0000   1.0000   1.0000
     1.0000   1.0000   1.0000   1.0000   1.0000   1.0000   1.0000   1.0000
     1.0000   0.0000   0.0000   0.0000

          k = 0.1000 0.3000-0.5000 (  2426 PWs)   bands (ev):

   -68.1911 -68.1910 -34.4797 -34.4797 -34.2131 -34.2129 -34.0670 -34.0670
    14.9330  14.9330  16.5183  16.5183  17.4226  17.4226  18.6880  18.6880
    19.5955  19.5955  21.2970  21.2970

     occupation numbers 
     1.0000   1.0000   1.0000   1.0000   1.0000   1.0000   1.0000   1.0000
     1.0000   1.0000   1.0000   1.0000   1.0000   1.0000   1.0000   1.0000
     1.0000   1.0000   0.0000   0.0000

          k = 0.1000 0.4000 0.4000 (  2426 PWs)   bands (ev):

   -68.1981 -68.1816 -34.5199 -34.4908 -34.2328 -34.1884 -34.0670 -34.0400
    14.6817  14.9237  16.3113  16.4509  17.6845  18.3058  18.7199  18.8736
    18.9732  19.9464  20.8706  22.6021

     occupation numbers 
     1.0000   1.0000   1.0000   1.0000   1.0000   1.0000   1.0000   1.0000
     1.0000   1.0000   1.0000   1.0000   1.0000   1.0000   1.0000   1.0000
     1.0000   0.2963   0.0000   0.0000

          k = 0.1000 0.4000-0.5000 (  2422 PWs)   bands (ev):

   -68.1892 -68.1891 -34.5194 -34.5194 -34.2092 -34.2090 -34.0471 -34.0471
    14.7567  14.7567  16.2972  16.2972  18.2844  18.2844  18.8425  18.8425
    19.5190  19.5190  21.6538  21.6538

     occupation numbers 
     1.0000   1.0000   1.0000   1.0000   1.0000   1.0000   1.0000   1.0000
     1.0000   1.0000   1.0000   1.0000   1.0000   1.0000   1.0000   1.0000
     1.0000   1.0000   0.0000   0.0000

          k = 0.1000-0.5000-0.5000 (  2424 PWs)   bands (ev):

   -68.1885 -68.1884 -34.5338 -34.5338 -34.2076 -34.2074 -34.0404 -34.0404
    14.6871  14.6871  16.2102  16.2102  18.8882  18.8882  19.0044  19.0044
    19.1633  19.1633  21.7877  21.7877

     occupation numbers 
     1.0000   1.0000   1.0000   1.0000   1.0000   1.0000   1.0000   1.0000
     1.0000   1.0000   1.0000   1.0000   1.0000   1.0000   1.0000   1.0000
     1.0000   1.0000   0.0000   0.0000

          k = 0.2000 0.2000 0.2000 (  2428 PWs)   bands (ev):

   -68.2442 -68.1482 -34.4072 -34.4072 -34.2861 -34.1905 -34.0661 -34.0661
    13.3008  15.6013  15.6013  16.8389  16.8389  17.3679  18.7377  18.7377
    19.1356  19.5923  19.5923  27.8812

     occupation numbers 
     1.0000   1.0000   1.0000   1.0000   1.0000   1.0000   1.0000   1.0000
     1.0000   1.0000   1.0000   1.0000   1.0000   1.0000   1.0000   1.0000
     1.0000   1.0000   1.0000   0.0000

          k = 0.2000 0.2000 0.3000 (  2422 PWs)   bands (ev):

   -68.2289 -68.1591 -34.4399 -34.3589 -34.3473 -34.1471 -34.1110 -34.0615
    14.0700  15.8242  15.8886  16.6788  16.7320  16.9520  18.6407  18.9132
    19.1049  19.6962  19.7237  25.5394

     occupation numbers 
     1.0000   1.0000   1.0000   1.0000   1.0000   1.0000   1.0000   1.0000
     1.0000   1.0000   1.0000   1.0000   1.0000   1.0000   1.0000   1.0000
     1.0000   1.0000   1.0000   0.0000

          k = 0.2000 0.2000 0.4000 (  2423 PWs)   bands (ev):

   -68.2105 -68.1738 -34.4520 -34.4020 -34.2987 -34.1684 -34.1113 -34.0677
    14.8122  15.7424  16.0725  16.5017  16.8803  17.0034  18.5584  18.7434
    19.1058  19.5838  20.4583  23.3068

     occupation numbers 
     1.0000   1.0000   1.0000   1.0000   1.0000   1.0000   1.0000   1.0000
     1.0000   1.0000   1.0000   1.0000   1.0000   1.0000   1.0000   1.0000
     1.0000   1.0000   0.0000   0.0000

          k = 0.2000 0.2000-0.5000 (  2428 PWs)   bands (ev):

   -68.1915 -68.1914 -34.4390 -34.4390 -34.2331 -34.2330 -34.0845 -34.0845
    15.3479  15.3479  16.3035  16.3036  17.0772  17.0772  18.5678  18.5678
    19.3405  19.3405  21.5824  21.5824

     occupation numbers 
     1.0000   1.0000   1.0000   1.0000   1.0000   1.0000   1.0000   1.0000
     1.0000   1.0000   1.0000   1.0000   1.0000   1.0000   1.0000   1.0000
     1.0000   1.0000   0.0000   0.0000

          k = 0.2000 0.3000 0.3000 (  2417 PWs)   bands (ev):

   -68.2171 -68.1663 -34.4490 -34.3964 -34.3462 -34.1319 -34.1133 -34.0707
    14.6844  15.7660  16.3962  16.4823  16.5729  16.6916  18.7718  18.8963
    18.9868  19.6203  20.4098  25.6573

     occupation numbers 
     1.0000   1.0000   1.0000   1.0000   1.0000   1.0000   1.0000   1.0000
     1.0000   1.0000   1.0000   1.0000   1.0000   1.0000   1.0000   1.0000
     1.0000   1.0000   0.0000   0.0000

          k = 0.2000 0.3000 0.4000 (  2423 PWs)   bands (ev):

   -68.2032 -68.1766 -34.4656 -34.4387 -34.2965 -34.1789 -34.0898 -34.0716
    15.1040  15.5563  16.3709  16.3716  16.9418  16.9698  18.7625  18.8195
    19.0328  19.5207  21.2183  24.0119

     occupation numbers 
     1.0000   1.0000   1.0000   1.0000   1.0000   1.0000   1.0000   1.0000
     1.0000   1.0000   1.0000   1.0000   1.0000   1.0000   1.0000   1.0000
     1.0000   1.0000   0.0000   0.0000

          k = 0.2000 0.3000-0.5000 (  2428 PWs)   bands (ev):

   -68.1892 -68.1891 -34.4635 -34.4634 -34.2371 -34.2369 -34.0765 -34.0765
    15.3328  15.3328  16.3334  16.3334  17.1764  17.1764  18.7634  18.7634
    19.2687  19.2687  22.3688  22.3688

     occupation numbers 
     1.0000   1.0000   1.0000   1.0000   1.0000   1.0000   1.0000   1.0000
     1.0000   1.0000   1.0000   1.0000   1.0000   1.0000   1.0000   1.0000
     1.0000   1.0000   0.0000   0.0000

          k = 0.2000 0.4000 0.4000 (  2417 PWs)   bands (ev):

   -68.1951 -68.1810 -34.4827 -34.4704 -34.2684 -34.1995 -34.0787 -34.0744
    15.1499  15.3114  16.2464  16.3248  17.4064  17.5253  18.8586  18.8863
    18.9854  19.4139  22.0479  23.9992

     occupation numbers 
     1.0000   1.0000   1.0000   1.0000   1.0000   1.0000   1.0000   1.0000
     1.0000   1.0000   1.0000   1.0000   1.0000   1.0000   1.0000   1.0000
     1.0000   1.0000   0.0000   0.0000

          k = 0.2000 0.4000-0.5000 (  2410 PWs)   bands (ev):

   -68.1874 -68.1873 -34.4864 -34.4864 -34.2318 -34.2317 -34.0752 -34.0752
    15.1775  15.1775  16.2284  16.2284  17.7668  17.7668  18.8955  18.8956
    19.1486  19.1487  23.0494  23.0494

     occupation numbers 
     1.0000   1.0000   1.0000   1.0000   1.0000   1.0000   1.0000   1.0000
     1.0000   1.0000   1.0000   1.0000   1.0000   1.0000   1.0000   1.0000
     1.0000   1.0000   0.0000   0.0000

          k = 0.2000-0.5000-0.5000 (  2416 PWs)   bands (ev):

   -68.1867 -68.1866 -34.4956 -34.4956 -34.2283 -34.2281 -34.0758 -34.0758
    15.1110  15.1110  16.1647  16.1647  18.1535  18.1535  18.9384  18.9384
    19.0146  19.0146  23.3651  23.3651

     occupation numbers 
     1.0000   1.0000   1.0000   1.0000   1.0000   1.0000   1.0000   1.0000
     1.0000   1.0000   1.0000   1.0000   1.0000   1.0000   1.0000   1.0000
     1.0000   1.0000   0.0000   0.0000

          k = 0.3000 0.3000 0.3000 (  2410 PWs)   bands (ev):

   -68.2079 -68.1710 -34.4210 -34.3956 -34.3956 -34.1207 -34.1207 -34.0959
    15.3726  16.0927  16.3606  16.3606  16.3645  16.3645  18.8856  18.8856
    19.2117  19.2117  21.2525  27.1042

     occupation numbers 
     1.0000   1.0000   1.0000   1.0000   1.0000   1.0000   1.0000   1.0000
     1.0000   1.0000   1.0000   1.0000   1.0000   1.0000   1.0000   1.0000
     1.0000   1.0000   0.0000   0.0000

          k = 0.3000 0.3000 0.4000 (  2420 PWs)   bands (ev):

   -68.1973 -68.1779 -34.4410 -34.4311 -34.3291 -34.1845 -34.1071 -34.0906
    15.6672  15.8174  16.2839  16.3055  16.5974  16.8136  18.8707  18.9734
    19.0047  19.2466  22.2150  25.1811

     occupation numbers 
     1.0000   1.0000   1.0000   1.0000   1.0000   1.0000   1.0000   1.0000
     1.0000   1.0000   1.0000   1.0000   1.0000   1.0000   1.0000   1.0000
     1.0000   1.0000   0.0000   0.0000

          k = 0.3000 0.3000-0.5000 (  2410 PWs)   bands (ev):

   -68.1870 -68.1869 -34.4463 -34.4463 -34.2563 -34.2562 -34.0956 -34.0956
    15.6815  15.6815  16.2672  16.2672  16.9452  16.9453  18.8815  18.8815
    19.1364  19.1364  23.4789  23.4789

     occupation numbers 
     1.0000   1.0000   1.0000   1.0000   1.0000   1.0000   1.0000   1.0000
     1.0000   1.0000   1.0000   1.0000   1.0000   1.0000   1.0000   1.0000
     1.0000   1.0000   0.0000   0.0000

          k = 0.3000 0.4000 0.4000 (  2413 PWs)   bands (ev):

   -68.1909 -68.1807 -34.4429 -34.4253 -34.3123 -34.2063 -34.1285 -34.1022
    15.7275  15.7855  16.1937  16.3248  16.8648  17.0012  18.9523  18.9880
    18.9981  19.1480  23.2862  25.6340

     occupation numbers 
     1.0000   1.0000   1.0000   1.0000   1.0000   1.0000   1.0000   1.0000
     1.0000   1.0000   1.0000   1.0000   1.0000   1.0000   1.0000   1.0000
     1.0000   1.0000   0.0000   0.0000

          k = 0.3000 0.4000-0.5000 (  2412 PWs)   bands (ev):

   -68.1852 -68.1850 -34.4378 -34.4378 -34.2583 -34.2582 -34.1192 -34.1192
    15.7041  15.7041  16.2119  16.2119  17.1522  17.1522  18.9682  18.9682
    19.0631  19.0632  24.5234  24.5234

     occupation numbers 
     1.0000   1.0000   1.0000   1.0000   1.0000   1.0000   1.0000   1.0000
     1.0000   1.0000   1.0000   1.0000   1.0000   1.0000   1.0000   1.0000
     1.0000   1.0000   0.0000   0.0000

          k = 0.3000-0.5000-0.5000 (  2420 PWs)   bands (ev):

   -68.1845 -68.1844 -34.4366 -34.4366 -34.2538 -34.2537 -34.1315 -34.1315
    15.6808  15.6808  16.1420  16.1420  17.3570  17.3570  18.9947  18.9948
    19.0273  19.0273  25.1001  25.1001

     occupation numbers 
     1.0000   1.0000   1.0000   1.0000   1.0000   1.0000   1.0000   1.0000
     1.0000   1.0000   1.0000   1.0000   1.0000   1.0000   1.0000   1.0000
     1.0000   1.0000   0.0000   0.0000

          k = 0.4000 0.4000 0.4000 (  2398 PWs)   bands (ev):

   -68.1867 -68.1813 -34.4150 -34.3536 -34.3536 -34.1975 -34.1975 -34.1355
    15.8819  16.2108  16.2108  16.5604  16.6156  16.6156  19.0074  19.0074
    19.0487  19.0487  24.5721  27.4390

     occupation numbers 
     1.0000   1.0000   1.0000   1.0000   1.0000   1.0000   1.0000   1.0000
     1.0000   1.0000   1.0000   1.0000   1.0000   1.0000   1.0000   1.0000
     1.0000   1.0000   0.0000   0.0000

          k = 0.4000 0.4000-0.5000 (  2408 PWs)   bands (ev):

   -68.1833 -68.1832 -34.3870 -34.3870 -34.2751 -34.2749 -34.1710 -34.1710
    16.0132  16.0133  16.3444  16.3445  16.7587  16.7587  19.0178  19.0179
    19.0420  19.0420  25.9855  25.9855

     occupation numbers 
     1.0000   1.0000   1.0000   1.0000   1.0000   1.0000   1.0000   1.0000
     1.0000   1.0000   1.0000   1.0000   1.0000   1.0000   1.0000   1.0000
     1.0000   1.0000   0.0000   0.0000

          k = 0.4000-0.5000-0.5000 (  2412 PWs)   bands (ev):

   -68.1826 -68.1825 -34.3629 -34.3629 -34.2744 -34.2743 -34.2025 -34.2025
    16.1899  16.1899  16.2017  16.2017  16.7755  16.7755  19.0313  19.0313
    19.0376  19.0376  26.9756  26.9756

     occupation numbers 
     1.0000   1.0000   1.0000   1.0000   1.0000   1.0000   1.0000   1.0000
     1.0000   1.0000   1.0000   1.0000   1.0000   1.0000   1.0000   1.0000
     1.0000   1.0000   0.0000   0.0000

          k =-0.5000-0.5000-0.5000 (  2440 PWs)   bands (ev):

   -68.1820 -68.1819 -34.2823 -34.2823 -34.2823 -34.2821 -34.2821 -34.2821
    16.3989  16.3989  16.3989  16.3989  16.3989  16.3989  19.0415  19.0415
    19.0415  19.0415  28.9744  28.9744

     occupation numbers 
     1.0000   1.0000   1.0000   1.0000   1.0000   1.0000   1.0000   1.0000
     1.0000   1.0000   1.0000   1.0000   1.0000   1.0000   1.0000   1.0000
     1.0000   1.0000   0.0000   0.0000

 ------ SPIN DOWN ----------


          k = 0.0000 0.0000 0.0000 (  2469 PWs)   bands (ev):

   -65.8230 -65.6276 -31.9976 -31.9976 -31.9976 -31.5940 -31.5940 -31.5940
    11.0881  16.3090  16.3090  19.1884  19.1884  19.1884  21.4655  21.4655
    22.1630  22.1630  22.1630  30.4496

     occupation numbers 
     1.0000   1.0000   1.0000   1.0000   1.0000   1.0000   1.0000   1.0000
     1.0000   1.0000   1.0000   1.0000   1.0000   1.0000   0.0000   0.0000
     0.0000   0.0000   0.0000   0.0000

          k = 0.0000 0.0000 0.1000 (  2441 PWs)   bands (ev):

   -65.8175 -65.6316 -31.9969 -31.9872 -31.9872 -31.6133 -31.6033 -31.6033
    11.3088  16.3941  16.4219  19.1785  19.1785  19.2564  21.3291  21.5168
    21.9136  21.9136  22.0853  29.3045

     occupation numbers 
     1.0000   1.0000   1.0000   1.0000   1.0000   1.0000   1.0000   1.0000
     1.0000   1.0000   1.0000   1.0000   1.0000   1.0000   0.0000   0.0000
     0.0000   0.0000   0.0000   0.0000

          k = 0.0000 0.0000 0.2000 (  2429 PWs)   bands (ev):

   -65.8017 -65.6435 -31.9921 -31.9570 -31.9570 -31.6664 -31.6303 -31.6303
    11.9524  16.5856  16.7535  19.1670  19.1670  19.4551  20.9344  21.3214
    21.3214  21.6571  21.8611  27.0887

     occupation numbers 
     1.0000   1.0000   1.0000   1.0000   1.0000   1.0000   1.0000   1.0000
     1.0000   1.0000   1.0000   1.0000   1.0000   1.0000   0.0000   0.0000
     0.0000   0.0000   0.0000   0.0000

          k = 0.0000 0.0000 0.3000 (  2429 PWs)   bands (ev):

   -65.7777 -65.6628 -31.9771 -31.9104 -31.9104 -31.7410 -31.6730 -31.6730
    12.9580  16.6815  17.2817  19.1998  19.1998  19.7684  20.3246  20.6459
    20.6459  21.5162  21.8549  24.9440

     occupation numbers 
     1.0000   1.0000   1.0000   1.0000   1.0000   1.0000   1.0000   1.0000
     1.0000   1.0000   1.0000   1.0000   1.0000   1.0000   0.0000   0.0000
     0.0000   0.0000   0.0000   0.0000

          k = 0.0000 0.0000 0.4000 (  2416 PWs)   bands (ev):

   -65.7486 -65.6881 -31.9450 -31.8526 -31.8526 -31.8211 -31.7277 -31.7277
    14.2037  16.3645  17.9679  19.3317  19.3317  19.5698  20.0510  20.0510
    20.1701  21.0889  22.1019  23.3660

     occupation numbers 
     1.0000   1.0000   1.0000   1.0000   1.0000   1.0000   1.0000   1.0000
     1.0000   1.0000   1.0000   1.0000   1.0000   1.0000   0.0000   0.0000
     0.0000   0.0000   0.0000   0.0000

          k = 0.0000 0.0000-0.5000 (  2416 PWs)   bands (ev):

   -65.7176 -65.7176 -31.8922 -31.8922 -31.7895 -31.7895 -31.7895 -31.7895
    15.4593  15.4593  18.7554  18.7554  19.6082  19.6082  19.6082  19.6082
    20.6246  20.6246  22.5050  22.5050

     occupation numbers 
     1.0000   1.0000   1.0000   1.0000   1.0000   1.0000   1.0000   1.0000
     1.0000   1.0000   1.0000   1.0000   1.0000   1.0000   1.0000   1.0000
     0.0000   0.0000   0.0000   0.0000

          k = 0.0000 0.1000 0.1000 (  2425 PWs)   bands (ev):

   -65.8122 -65.6354 -32.0137 -31.9772 -31.9600 -31.6499 -31.6120 -31.5941
    11.5259  16.5010  16.5085  19.0410  19.1553  19.4516  21.3113  21.4768
    21.5234  21.6696  22.1946  29.4395

     occupation numbers 
     1.0000   1.0000   1.0000   1.0000   1.0000   1.0000   1.0000   1.0000
     1.0000   1.0000   1.0000   1.0000   1.0000   1.0000   0.0000   0.0000
     0.0000   0.0000   0.0000   0.0000

          k = 0.0000 0.1000 0.2000 (  2430 PWs)   bands (ev):

   -65.7971 -65.6466 -32.0234 -31.9483 -31.9179 -31.7149 -31.6376 -31.6061
    12.1573  16.6935  16.8206  18.9305  19.1060  19.7465  20.8862  21.0132
    21.1112  21.5968  22.1089  27.3839

     occupation numbers 
     1.0000   1.0000   1.0000   1.0000   1.0000   1.0000   1.0000   1.0000
     1.0000   1.0000   1.0000   1.0000   1.0000   1.0000   0.0000   0.0000
     0.0000   0.0000   0.0000   0.0000

          k = 0.0000 0.1000 0.3000 (  2421 PWs)   bands (ev):

   -65.7742 -65.6648 -32.0181 -31.9038 -31.8657 -31.7947 -31.6781 -31.6389
    13.1395  16.7768  17.3128  18.9029  19.0631  20.1128  20.2240  20.5242
    20.5373  21.8061  21.8363  25.1821

     occupation numbers 
     1.0000   1.0000   1.0000   1.0000   1.0000   1.0000   1.0000   1.0000
     1.0000   1.0000   1.0000   1.0000   1.0000   0.0000   0.0000   0.0000
     0.0000   0.0000   0.0000   0.0000

          k = 0.0000 0.1000 0.4000 (  2423 PWs)   bands (ev):

   -65.7463 -65.6888 -31.9927 -31.8755 -31.8487 -31.8064 -31.7300 -31.6871
    14.3472  16.4419  17.9281  18.9654  18.9953  19.6559  20.0506  20.1377
    20.5385  21.4457  22.0687  23.4939

     occupation numbers 
     1.0000   1.0000   1.0000   1.0000   1.0000   1.0000   1.0000   1.0000
     1.0000   1.0000   1.0000   1.0000   1.0000   1.0000   0.0000   0.0000
     0.0000   0.0000   0.0000   0.0000

          k = 0.0000 0.1000-0.5000 (  2424 PWs)   bands (ev):

   -65.7168 -65.7168 -31.9444 -31.9444 -31.7887 -31.7887 -31.7449 -31.7449
    15.5565  15.5565  18.5596  18.5596  19.2412  19.2412  19.9347  19.9347
    20.9963  20.9963  22.5208  22.5208

     occupation numbers 
     1.0000   1.0000   1.0000   1.0000   1.0000   1.0000   1.0000   1.0000
     1.0000   1.0000   1.0000   1.0000   1.0000   1.0000   0.7528   0.7524
     0.0000   0.0000   0.0000   0.0000

          k = 0.0000 0.2000 0.2000 (  2412 PWs)   bands (ev):

   -65.7839 -65.6559 -32.0557 -31.9234 -31.8607 -31.7947 -31.6590 -31.5944
    12.7483  16.8765  17.0754  18.6692  18.9809  20.1814  20.2045  20.6826
    21.0959  21.5217  22.2778  27.4179

     occupation numbers 
     1.0000   1.0000   1.0000   1.0000   1.0000   1.0000   1.0000   1.0000
     1.0000   1.0000   1.0000   1.0000   1.0000   0.0000   0.0000   0.0000
     0.0000   0.0000   0.0000   0.0000

          k = 0.0000 0.2000 0.3000 (  2418 PWs)   bands (ev):

   -65.7640 -65.6709 -32.0708 -31.8850 -31.8821 -31.7998 -31.6930 -31.6058
    13.6495  16.8684  17.5265  18.5140  18.8716  19.5534  20.3816  20.6491
    20.8908  21.6814  22.2134  25.5966

     occupation numbers 
     1.0000   1.0000   1.0000   1.0000   1.0000   1.0000   1.0000   1.0000
     1.0000   1.0000   1.0000   1.0000   1.0000   1.0000   0.0000   0.0000
     0.0000   0.0000   0.0000   0.0000

          k = 0.0000 0.2000 0.4000 (  2426 PWs)   bands (ev):

   -65.7400 -65.6910 -32.0620 -31.9631 -31.8377 -31.7393 -31.7367 -31.6371
    14.7180  16.5007  18.0369  18.5060  18.7561  19.0275  20.3614  20.6224
    21.1245  21.9580  21.9683  23.7550

     occupation numbers 
     1.0000   1.0000   1.0000   1.0000   1.0000   1.0000   1.0000   1.0000
     1.0000   1.0000   1.0000   1.0000   1.0000   1.0000   0.0000   0.0000
     0.0000   0.0000   0.0000   0.0000

          k = 0.0000 0.2000-0.5000 (  2422 PWs)   bands (ev):

[...]
    13.3222  16.8903  17.3325  18.7946  18.8447  19.7340  20.4030  20.6650
    20.7771  21.7654  21.8539  25.4520

     occupation numbers 
     1.0000   1.0000   1.0000   1.0000   1.0000   1.0000   1.0000   1.0000
     1.0000   1.0000   1.0000   1.0000   1.0000   1.0000   0.0000   0.0000
     0.0000   0.0000   0.0000   0.0000

          k = 0.1000 0.1000 0.4000 (  2428 PWs)   bands (ev):

   -65.7441 -65.6894 -32.0127 -31.9070 -31.8631 -31.7702 -31.7333 -31.6678
    14.4962  16.5380  17.8694  18.6981  18.8812  19.3625  20.2536  20.3015
    20.8478  21.5728  22.0480  23.6811

     occupation numbers 
     1.0000   1.0000   1.0000   1.0000   1.0000   1.0000   1.0000   1.0000
     1.0000   1.0000   1.0000   1.0000   1.0000   1.0000   0.0000   0.0000
     0.0000   0.0000   0.0000   0.0000

          k = 0.1000 0.1000-0.5000 (  2418 PWs)   bands (ev):

   -65.7160 -65.7160 -31.9710 -31.9710 -31.7976 -31.7976 -31.7161 -31.7161
    15.6653  15.6653  18.3774  18.3775  19.0960  19.0960  20.0940  20.0940
    21.2488  21.2488  22.5797  22.5797

     occupation numbers 
     1.0000   1.0000   1.0000   1.0000   1.0000   1.0000   1.0000   1.0000
     1.0000   1.0000   1.0000   1.0000   1.0000   1.0000   0.0000   0.0000
     0.0000   0.0000   0.0000   0.0000

          k = 0.1000 0.2000 0.2000 (  2421 PWs)   bands (ev):

   -65.7800 -65.6583 -32.0438 -31.9599 -31.8240 -31.8202 -31.6497 -31.6050
    12.9460  17.0009  17.1332  18.6168  18.7858  19.6330  20.4398  21.1384
    21.1670  21.4799  22.0472  27.8270

     occupation numbers 
     1.0000   1.0000   1.0000   1.0000   1.0000   1.0000   1.0000   1.0000
     1.0000   1.0000   1.0000   1.0000   1.0000   1.0000   0.0000   0.0000
     0.0000   0.0000   0.0000   0.0000

          k = 0.1000 0.2000 0.3000 (  2423 PWs)   bands (ev):

   -65.7610 -65.6725 -32.0622 -31.9173 -31.9004 -31.7694 -31.6885 -31.6133
    13.8351  17.0181  17.5238  18.4505  18.6632  19.1255  20.7352  20.9220
    20.9798  21.6608  22.0203  25.9524

     occupation numbers 
     1.0000   1.0000   1.0000   1.0000   1.0000   1.0000   1.0000   1.0000
     1.0000   1.0000   1.0000   1.0000   1.0000   1.0000   0.0000   0.0000
     0.0000   0.0000   0.0000   0.0000

          k = 0.1000 0.2000 0.4000 (  2424 PWs)   bands (ev):

   -65.7380 -65.6915 -32.0596 -31.9745 -31.8612 -31.7403 -31.7179 -31.6366
    14.8823  16.6397  17.9200  18.3730  18.6152  18.8714  20.5330  20.6961
    21.3925  21.8486  22.0025  24.0786

     occupation numbers 
     1.0000   1.0000   1.0000   1.0000   1.0000   1.0000   1.0000   1.0000
     1.0000   1.0000   1.0000   1.0000   1.0000   1.0000   0.0000   0.0000
     0.0000   0.0000   0.0000   0.0000

          k = 0.1000 0.2000-0.5000 (  2428 PWs)   bands (ev):

   -65.7140 -65.7140 -32.0300 -32.0300 -31.7999 -31.7999 -31.6726 -31.6726
    15.8808  15.8808  18.2246  18.2246  18.7073  18.7073  20.5385  20.5386
    21.6456  21.6456  22.7569  22.7569

     occupation numbers 
     1.0000   1.0000   1.0000   1.0000   1.0000   1.0000   1.0000   1.0000
     1.0000   1.0000   1.0000   1.0000   1.0000   1.0000   0.0000   0.0000
     0.0000   0.0000   0.0000   0.0000

          k = 0.1000 0.3000 0.3000 (  2433 PWs)   bands (ev):

   -65.7464 -65.6821 -32.0943 -31.9786 -31.8861 -31.7168 -31.7148 -31.6067
    14.5657  16.8415  18.0040  18.1809  18.6066  18.6490  20.6727  21.1670
    21.5072  21.6037  22.1402  25.6948

     occupation numbers 
     1.0000   1.0000   1.0000   1.0000   1.0000   1.0000   1.0000   1.0000
     1.0000   1.0000   1.0000   1.0000   1.0000   1.0000   0.0000   0.0000
     0.0000   0.0000   0.0000   0.0000

          k = 0.1000 0.3000 0.4000 (  2424 PWs)   bands (ev):

   -65.7291 -65.6953 -32.1066 -32.0461 -31.8429 -31.7518 -31.6721 -31.6150
    15.3289  16.4665  18.0571  18.2468  18.5658  18.7175  20.7913  21.0987
    21.7115  22.0707  22.1401  24.2966

     occupation numbers 
     1.0000   1.0000   1.0000   1.0000   1.0000   1.0000   1.0000   1.0000
     1.0000   1.0000   1.0000   1.0000   1.0000   1.0000   0.0000   0.0000
     0.0000   0.0000   0.0000   0.0000

          k = 0.1000 0.3000-0.5000 (  2426 PWs)   bands (ev):

   -65.7114 -65.7114 -32.0908 -32.0908 -31.7961 -31.7961 -31.6374 -31.6374
    15.9676  15.9676  18.0876  18.0876  18.7890  18.7890  20.9684  20.9684
    21.8758  21.8759  22.9941  22.9941

     occupation numbers 
     1.0000   1.0000   1.0000   1.0000   1.0000   1.0000   1.0000   1.0000
     1.0000   1.0000   1.0000   1.0000   1.0000   1.0000   0.0000   0.0000
     0.0000   0.0000   0.0000   0.0000

          k = 0.1000 0.4000 0.4000 (  2426 PWs)   bands (ev):

   -65.7191 -65.7013 -32.1349 -32.1033 -31.8176 -31.7690 -31.6374 -31.6080
    15.6662  16.1790  17.8579  18.0006  19.1242  19.1923  21.0579  21.2905
    21.7137  22.0868  22.5876  23.8957

     occupation numbers 
     1.0000   1.0000   1.0000   1.0000   1.0000   1.0000   1.0000   1.0000
     1.0000   1.0000   1.0000   1.0000   1.0000   1.0000   0.0000   0.0000
     0.0000   0.0000   0.0000   0.0000

          k = 0.1000 0.4000-0.5000 (  2422 PWs)   bands (ev):

   -65.7094 -65.7094 -32.1346 -32.1346 -31.7916 -31.7916 -31.6158 -31.6158
    15.9166  15.9166  17.8361  17.8361  19.4788  19.4788  21.2504  21.2504
    21.8679  21.8679  23.1490  23.1490

     occupation numbers 
     1.0000   1.0000   1.0000   1.0000   1.0000   1.0000   1.0000   1.0000
     1.0000   1.0000   1.0000   1.0000   1.0000   1.0000   0.0000   0.0000
     0.0000   0.0000   0.0000   0.0000

          k = 0.1000-0.5000-0.5000 (  2424 PWs)   bands (ev):

   -65.7086 -65.7086 -32.1504 -32.1504 -31.7898 -31.7898 -31.6085 -31.6085
    15.8797  15.8797  17.7401  17.7401  19.9129  19.9129  21.3455  21.3455
    21.7600  21.7600  23.1859  23.1859

     occupation numbers 
     1.0000   1.0000   1.0000   1.0000   1.0000   1.0000   1.0000   1.0000
     1.0000   1.0000   1.0000   1.0000   0.9984   0.9984   0.0000   0.0000
     0.0000   0.0000   0.0000   0.0000

          k = 0.2000 0.2000 0.2000 (  2428 PWs)   bands (ev):

   -65.7690 -65.6653 -32.0095 -32.0095 -31.8782 -31.7717 -31.6362 -31.6362
    13.5113  17.2929  17.2929  18.4798  18.4798  18.9128  20.9519  21.3559
    21.3559  21.5556  21.5556  28.8534

     occupation numbers 
     1.0000   1.0000   1.0000   1.0000   1.0000   1.0000   1.0000   1.0000
     1.0000   1.0000   1.0000   1.0000   1.0000   1.0000   0.0000   0.0000
     0.0000   0.0000   0.0000   0.0000

          k = 0.2000 0.2000 0.3000 (  2422 PWs)   bands (ev):

   -65.7523 -65.6770 -32.0460 -31.9565 -31.9455 -31.7243 -31.6852 -31.6313
    14.3556  17.3835  17.5153  18.3032  18.3039  18.5118  21.0971  21.1639
    21.4976  21.6272  21.7349  26.7024

     occupation numbers 
     1.0000   1.0000   1.0000   1.0000   1.0000   1.0000   1.0000   1.0000
     1.0000   1.0000   1.0000   1.0000   1.0000   1.0000   0.0000   0.0000
     0.0000   0.0000   0.0000   0.0000

          k = 0.2000 0.2000 0.4000 (  2423 PWs)   bands (ev):

   -65.7325 -65.6929 -32.0598 -32.0055 -31.8906 -31.7480 -31.6853 -31.6380
    15.3163  16.9139  17.7456  18.1241  18.3382  18.5682  20.8334  20.9508
    21.6898  21.7489  22.3014  24.7466

     occupation numbers 
     1.0000   1.0000   1.0000   1.0000   1.0000   1.0000   1.0000   1.0000
     1.0000   1.0000   1.0000   1.0000   1.0000   1.0000   0.0000   0.0000
     0.0000   0.0000   0.0000   0.0000

          k = 0.2000 0.2000-0.5000 (  2428 PWs)   bands (ev):

   -65.7119 -65.7119 -32.0460 -32.0460 -31.8187 -31.8187 -31.6562 -31.6562
    16.1988  16.1988  17.9463  17.9463  18.5133  18.5133  20.8049  20.8049
    21.7313  21.7313  23.2950  23.2951

     occupation numbers 
     1.0000   1.0000   1.0000   1.0000   1.0000   1.0000   1.0000   1.0000
     1.0000   1.0000   1.0000   1.0000   1.0000   1.0000   0.0000   0.0000
     0.0000   0.0000   0.0000   0.0000

          k = 0.2000 0.3000 0.3000 (  2417 PWs)   bands (ev):

   -65.7396 -65.6848 -32.0563 -31.9993 -31.9428 -31.7081 -31.6874 -31.6414
    15.0893  17.2393  17.9460  18.0432  18.1132  18.1850  21.1054  21.3204
    21.5797  21.7309  22.1839  26.7836

     occupation numbers 
     1.0000   1.0000   1.0000   1.0000   1.0000   1.0000   1.0000   1.0000
     1.0000   1.0000   1.0000   1.0000   1.0000   1.0000   0.0000   0.0000
     0.0000   0.0000   0.0000   0.0000

          k = 0.2000 0.3000 0.4000 (  2423 PWs)   bands (ev):

   -65.7246 -65.6958 -32.0749 -32.0458 -31.8883 -31.7595 -31.6619 -31.6425
    15.8229  16.8465  17.9039  17.9079  18.2519  18.3865  21.0768  21.2472
    21.7115  21.7756  22.9107  25.3095

     occupation numbers 
     1.0000   1.0000   1.0000   1.0000   1.0000   1.0000   1.0000   1.0000
     1.0000   1.0000   1.0000   1.0000   1.0000   1.0000   0.0000   0.0000
     0.0000   0.0000   0.0000   0.0000

          k = 0.2000 0.3000-0.5000 (  2428 PWs)   bands (ev):

   -65.7094 -65.7094 -32.0729 -32.0729 -31.8231 -31.8231 -31.6476 -31.6476
    16.3907  16.3907  17.8620  17.8620  18.4421  18.4421  21.1380  21.1380
    21.7729  21.7729  23.8987  23.8987

     occupation numbers 
     1.0000   1.0000   1.0000   1.0000   1.0000   1.0000   1.0000   1.0000
     1.0000   1.0000   1.0000   1.0000   1.0000   1.0000   0.0000   0.0000
     0.0000   0.0000   0.0000   0.0000

          k = 0.2000 0.4000 0.4000 (  2417 PWs)   bands (ev):

   -65.7157 -65.7006 -32.0940 -32.0807 -31.8574 -31.7818 -31.6500 -31.6457
    16.1607  16.5820  17.7488  17.8255  18.5559  18.7081  21.2614  21.4051
    21.7228  21.8036  23.5759  25.1807

     occupation numbers 
     1.0000   1.0000   1.0000   1.0000   1.0000   1.0000   1.0000   1.0000
     1.0000   1.0000   1.0000   1.0000   1.0000   1.0000   0.0000   0.0000
     0.0000   0.0000   0.0000   0.0000

          k = 0.2000 0.4000-0.5000 (  2410 PWs)   bands (ev):

   -65.7074 -65.7074 -32.0982 -32.0982 -31.8171 -31.8171 -31.6466 -31.6466
    16.3615  16.3615  17.7191  17.7191  18.8526  18.8526  21.3781  21.3781
    21.7776  21.7776  24.3628  24.3628

     occupation numbers 
     1.0000   1.0000   1.0000   1.0000   1.0000   1.0000   1.0000   1.0000
     1.0000   1.0000   1.0000   1.0000   1.0000   1.0000   0.0000   0.0000
     0.0000   0.0000   0.0000   0.0000

          k = 0.2000-0.5000-0.5000 (  2416 PWs)   bands (ev):

   -65.7066 -65.7066 -32.1084 -32.1084 -31.8131 -31.8131 -31.6474 -31.6474
    16.3238  16.3238  17.6461  17.6461  19.1181  19.1181  21.4556  21.4556
    21.7734  21.7734  24.5422  24.5422

     occupation numbers 
     1.0000   1.0000   1.0000   1.0000   1.0000   1.0000   1.0000   1.0000
     1.0000   1.0000   1.0000   1.0000   1.0000   1.0000   0.0000   0.0000
     0.0000   0.0000   0.0000   0.0000

          k = 0.3000 0.3000 0.3000 (  2410 PWs)   bands (ev):

   -65.7296 -65.6898 -32.0263 -31.9977 -31.9977 -31.6962 -31.6962 -31.6684
    15.8135  17.4916  17.8529  17.8529  17.8820  17.8820  21.4511  21.4511
    21.5277  21.5277  22.9499  28.1692

     occupation numbers 
     1.0000   1.0000   1.0000   1.0000   1.0000   1.0000   1.0000   1.0000
     1.0000   1.0000   1.0000   1.0000   1.0000   1.0000   0.0000   0.0000
     0.0000   0.0000   0.0000   0.0000

          k = 0.3000 0.3000 0.4000 (  2420 PWs)   bands (ev):

   -65.7182 -65.6972 -32.0482 -32.0371 -31.9246 -31.7661 -31.6814 -31.6629
    16.4580  17.1298  17.7596  17.7600  17.8912  18.1679  21.3499  21.4504
    21.6603  21.7017  23.7827  26.3715

     occupation numbers 
     1.0000   1.0000   1.0000   1.0000   1.0000   1.0000   1.0000   1.0000
     1.0000   1.0000   1.0000   1.0000   1.0000   1.0000   0.0000   0.0000
     0.0000   0.0000   0.0000   0.0000

          k = 0.3000 0.3000-0.5000 (  2410 PWs)   bands (ev):

   -65.7069 -65.7069 -32.0540 -32.0540 -31.8447 -31.8447 -31.6686 -31.6686
    16.8256  16.8256  17.7177  17.7177  18.1455  18.1455  21.3736  21.3736
    21.7497  21.7497  24.8617  24.8617

     occupation numbers 
     1.0000   1.0000   1.0000   1.0000   1.0000   1.0000   1.0000   1.0000
     1.0000   1.0000   1.0000   1.0000   1.0000   1.0000   0.0000   0.0000
     0.0000   0.0000   0.0000   0.0000

          k = 0.3000 0.4000 0.4000 (  2413 PWs)   bands (ev):

   -65.7112 -65.7002 -32.0503 -32.0308 -31.9064 -31.7899 -31.7051 -31.6758
    16.8490  17.0342  17.6344  17.7258  17.9770  18.2466  21.4974  21.5710
    21.7037  21.7280  24.6855  26.7033

     occupation numbers 
     1.0000   1.0000   1.0000   1.0000   1.0000   1.0000   1.0000   1.0000
     1.0000   1.0000   1.0000   1.0000   1.0000   1.0000   0.0000   0.0000
     0.0000   0.0000   0.0000   0.0000

          k = 0.3000 0.4000-0.5000 (  2412 PWs)   bands (ev):

   -65.7049 -65.7049 -32.0448 -32.0448 -31.8469 -31.8469 -31.6948 -31.6948
    16.9339  16.9339  17.6229  17.6229  18.2665  18.2665  21.5542  21.5542
    21.7649  21.7649  25.7190  25.7190

     occupation numbers 
     1.0000   1.0000   1.0000   1.0000   1.0000   1.0000   1.0000   1.0000
     1.0000   1.0000   1.0000   1.0000   1.0000   1.0000   0.0000   0.0000
     0.0000   0.0000   0.0000   0.0000

          k = 0.3000-0.5000-0.5000 (  2420 PWs)   bands (ev):

   -65.7041 -65.7041 -32.0435 -32.0435 -31.8418 -31.8418 -31.7084 -31.7084
    16.9172  16.9172  17.5546  17.5546  18.4377  18.4377  21.6071  21.6072
    21.7900  21.7900  26.1507  26.1507

     occupation numbers 
     1.0000   1.0000   1.0000   1.0000   1.0000   1.0000   1.0000   1.0000
     1.0000   1.0000   1.0000   1.0000   1.0000   1.0000   0.0000   0.0000
     0.0000   0.0000   0.0000   0.0000

          k = 0.4000 0.4000 0.4000 (  2398 PWs)   bands (ev):

   -65.7066 -65.7008 -32.0196 -31.9520 -31.9520 -31.7807 -31.7807 -31.7125
    17.2189  17.4908  17.5839  17.5839  17.8765  17.8765  21.6903  21.6903
    21.7223  21.7223  25.8180  28.4001

     occupation numbers 
     1.0000   1.0000   1.0000   1.0000   1.0000   1.0000   1.0000   1.0000
     1.0000   1.0000   1.0000   1.0000   1.0000   1.0000   0.0000   0.0000
     0.0000   0.0000   0.0000   0.0000

          k = 0.4000 0.4000-0.5000 (  2408 PWs)   bands (ev):

   -65.7029 -65.7029 -31.9889 -31.9889 -31.8658 -31.8658 -31.7516 -31.7516
    17.3172  17.3172  17.6542  17.6542  17.9030  17.9030  21.7059  21.7059
    21.7765  21.7765  27.0566  27.0566

     occupation numbers 
     1.0000   1.0000   1.0000   1.0000   1.0000   1.0000   1.0000   1.0000
     1.0000   1.0000   1.0000   1.0000   1.0000   1.0000   0.0000   0.0000
     0.0000   0.0000   0.0000   0.0000

          k = 0.4000-0.5000-0.5000 (  2412 PWs)   bands (ev):

   -65.7021 -65.7021 -31.9625 -31.9625 -31.8650 -31.8650 -31.7863 -31.7863
    17.4404  17.4404  17.5359  17.5359  17.9461  17.9461  21.7484  21.7484
    21.8035  21.8035  27.9218  27.9218

     occupation numbers 
     1.0000   1.0000   1.0000   1.0000   1.0000   1.0000   1.0000   1.0000
     1.0000   1.0000   1.0000   1.0000   1.0000   1.0000   0.0000   0.0000
     0.0000   0.0000   0.0000   0.0000

          k =-0.5000-0.5000-0.5000 (  2440 PWs)   bands (ev):

   -65.7014 -65.7014 -31.8738 -31.8738 -31.8738 -31.8738 -31.8738 -31.8738
    17.6520  17.6520  17.6520  17.6521  17.6521  17.6521  21.8086  21.8086
    21.8086  21.8086  29.8166  29.8166

     occupation numbers 
     1.0000   1.0000   1.0000   1.0000   1.0000   1.0000   1.0000   1.0000
     1.0000   1.0000   1.0000   1.0000   1.0000   1.0000   0.0000   0.0000
     0.0000   0.0000   0.0000   0.0000

     the Fermi energy is    19.9413 ev

!    total energy              =    -658.53617766 Ry
     total all-electron energy =     -5091.129244 Ry
     estimated scf accuracy    <          5.1E-11 Ry
     smearing contrib. (-TS)   =      -0.00001242 Ry
     internal energy E=F+TS    =    -658.53616524 Ry

     The total energy is F=E-TS. E is the sum of the following terms:
     one-electron contribution =    -206.82779741 Ry
     hartree contribution      =     125.43405568 Ry
     xc contribution           =     -55.59313734 Ry
     ewald contribution        =    -355.96003473 Ry
     one-center paw contrib.   =    -165.58925144 Ry
      -> PAW hartree energy AE =     183.32289235 Ry
      -> PAW hartree energy PS =    -182.02198898 Ry
      -> PAW xc energy AE      =    -110.16946410 Ry
      -> PAW xc energy PS      =      26.07393474 Ry
      -> total E_H with PAW    =     126.73495905 Ry
      -> total E_XC with PAW   =    -139.68866669 Ry

     total magnetization       =     4.08 Bohr mag/cell
     absolute magnetization    =     4.29 Bohr mag/cell

     convergence has been achieved in  14 iterations

     Writing all to output data dir ./out/Fe.save/
 
     init_run     :      0.28s CPU      0.35s WALL (       1 calls)
     electrons    :     12.38s CPU     13.16s WALL (       1 calls)

     Called by init_run:
     wfcinit      :      0.08s CPU      0.11s WALL (       1 calls)
     potinit      :      0.11s CPU      0.14s WALL (       1 calls)
     hinit0       :      0.06s CPU      0.06s WALL (       1 calls)

     Called by electrons:
     c_bands      :      9.04s CPU      9.46s WALL (      14 calls)
     sum_band     :      1.65s CPU      1.69s WALL (      14 calls)
     v_of_rho     :      0.16s CPU      0.16s WALL (      15 calls)
     v_h          :      0.01s CPU      0.01s WALL (      15 calls)
     v_xc         :      0.15s CPU      0.15s WALL (      15 calls)
     newd         :      0.12s CPU      0.14s WALL (      15 calls)
     PAW_pot      :      1.47s CPU      1.77s WALL (      15 calls)
     mix_rho      :      0.03s CPU      0.03s WALL (      14 calls)

     Called by c_bands:
     init_us_2    :      0.11s CPU      0.11s WALL (    1568 calls)
     init_us_2:cp :      0.11s CPU      0.11s WALL (    1568 calls)
     cegterg      :      8.33s CPU      8.60s WALL (     784 calls)

     Called by sum_band:
     sum_band:wei :      0.01s CPU      0.01s WALL (      14 calls)
     sum_band:loo :      1.38s CPU      1.42s WALL (      14 calls)
     sum_band:buf :      0.01s CPU      0.01s WALL (     784 calls)
     sum_band:ini :      0.06s CPU      0.05s WALL (     784 calls)
     sum_band:cal :      0.09s CPU      0.09s WALL (     784 calls)
     sum_band:bec :      0.00s CPU      0.01s WALL (     784 calls)
     addusdens    :      0.19s CPU      0.19s WALL (      14 calls)
                                        0.00s GPU  (      14 calls)
     addusd:skk   :      0.00s CPU      0.00s WALL (      14 calls)
                                        0.00s GPU  (      14 calls)

     Called by *egterg:
     cdiaghg      :      1.26s CPU      1.28s WALL (    2719 calls)
     cegterg:over :      0.22s CPU      0.21s WALL (    1991 calls)
     cegterg:upda :      0.04s CPU      0.07s WALL (    1991 calls)
     cegterg:last :      0.11s CPU      0.12s WALL (    1671 calls)
     h_psi        :      6.39s CPU      6.61s WALL (    2775 calls)
     s_psi        :      0.10s CPU      0.09s WALL (    2775 calls)
     g_psi        :      0.02s CPU      0.02s WALL (    1991 calls)

     Called by h_psi:
     h_psi:calbec :      0.31s CPU      0.29s WALL (    2775 calls)
     vloc_psi     :      5.99s CPU      6.19s WALL (    2775 calls)
     add_vuspsi   :      0.06s CPU      0.10s WALL (    2775 calls)

     General routines
     calbec       :      0.40s CPU      0.37s WALL (    3559 calls)
     fft          :      0.09s CPU      0.09s WALL (     369 calls)
     ffts         :      0.01s CPU      0.01s WALL (      58 calls)
     fftw         :      6.79s CPU      6.75s WALL (   96938 calls)
     interpolate  :      0.01s CPU      0.01s WALL (      30 calls)
 
     Parallel routines

     PAW routines
     PAW_pot      :      1.47s CPU      1.77s WALL (      15 calls)
     PAW_symme    :      0.03s CPU      0.03s WALL (      28 calls)
 
     PWSCF        :     12.81s CPU     13.88s WALL

 
   This run was terminated on:   8: 0:13  16Apr2024            

=------------------------------------------------------------------------------=
   JOB DONE.
=------------------------------------------------------------------------------=
