
     Program PWSCF v.7.2 starts on 16Apr2024 at  7:58:59 

     This program is part of the open-source Quantum ESPRESSO suite
     for quantum simulation of materials; please cite
         "P. Giannozzi et al., J. Phys.:Condens. Matter 21 395502 (2009);
         "P. Giannozzi et al., J. Phys.:Condens. Matter 29 465901 (2017);
         "P. Giannozzi et al., J. Chem. Phys. 152 154105 (2020);
          URL http://www.quantum-espresso.org", 
     in publications or presentations arising from this work. More details at
     http://www.quantum-espresso.org/quote

     Parallel version (MPI), running on    20 processors

     MPI processes distributed on     1 nodes
     360721 MiB available memory on the printing compute node when the environment starts
 
     Waiting for input...
     Reading input from standard input

     Current dimensions of program PWSCF are:
     Max number of different atomic species (ntypx) = 10
     Max number of k-points (npk) = 120000
     Max angular momentum in pseudopotentials (lmaxx) =  4
     file Fe.pbe-spn-kjpaw_psl.1.0.0.UPF: wavefunction(s)  3P 3D renormalized
     Found identity + ( -0.5000 -0.5000 -0.5000) symmetry
     This is a supercell, fractional translations are disabled
 
     K-points division:     npool     =       2
     R & G space division:  proc/nbgrp/npool/nimage =      10
     Subspace diagonalization in iterative solution of the eigenvalue problem:
     a serial algorithm will be used

 
     Parallelization info
     --------------------
     sticks:   dense  smooth     PW     G-vecs:    dense   smooth      PW
     Min         148      85     26                 4292     1859     311
     Max         149      86     27                 4295     1863     312
     Sum        1481     853    261                42931    18613    3119
 
     Using Slab Decomposition
 


     bravais-lattice index     =            1
     lattice parameter (alat)  =       5.1590  a.u.
     unit-cell volume          =     137.3044 (a.u.)^3
     number of atoms/cell      =            2
     number of atomic types    =            1
     number of electrons       =        32.00
     number of Kohn-Sham states=           20
     kinetic-energy cutoff     =     100.0000  Ry
     charge density cutoff     =     700.0000  Ry
     scf convergence threshold =      4.0E-10
     mixing beta               =       0.4000
     number of iterations used =            8  plain     mixing
     Exchange-correlation= SLA  PW   PBX  PBC
                           (   1   4   3   4   0   0   0)

     celldm(1)=   5.158952  celldm(2)=   0.000000  celldm(3)=   0.000000
     celldm(4)=   0.000000  celldm(5)=   0.000000  celldm(6)=   0.000000

     crystal axes: (cart. coord. in units of alat)
               a(1) = (   1.000000   0.000000   0.000000 )  
               a(2) = (   0.000000   1.000000   0.000000 )  
               a(3) = (   0.000000   0.000000   1.000000 )  

     reciprocal axes: (cart. coord. in units 2 pi/alat)
               b(1) = (  1.000000  0.000000  0.000000 )  
               b(2) = (  0.000000  1.000000  0.000000 )  
               b(3) = (  0.000000  0.000000  1.000000 )  


     PseudoPot. # 1 for Fe read from file:
     /truba/home/amuhaymin/ZnS/pseudo/QE/Fe.pbe-spn-kjpaw_psl.1.0.0.UPF
     MD5 check sum: fc81f059e5c5069939230b1155715ae8
     Pseudo is Projector augmented-wave + core cor, Zval = 16.0
     Generated using &quot;atomic&quot; code by A. Dal Corso  v.6.3
     Shape of augmentation charge: PSQ
     Using radial grid of 1191 points,  6 beta functions with: 
                l(1) =   0
                l(2) =   0
                l(3) =   1
                l(4) =   1
                l(5) =   2
                l(6) =   2
     Q(r) pseudized with 0 coefficients 


     atomic species   valence    mass     pseudopotential
        Fe            16.00    55.84500     Fe( 1.00)

     Starting magnetic structure 
     atomic species   magnetization
        Fe           0.312

     48 Sym. Ops., with inversion, found


                                    s                        frac. trans.

      isym =  1     identity                                     

 cryst.   s( 1) = (     1          0          0      )
                  (     0          1          0      )
                  (     0          0          1      )

 cart.    s( 1) = (  1.0000000  0.0000000  0.0000000 )
                  (  0.0000000  1.0000000  0.0000000 )
                  (  0.0000000  0.0000000  1.0000000 )


      isym =  2     180 deg rotation - cart. axis [0,0,1]        

 cryst.   s( 2) = (    -1          0          0      )
                  (     0         -1          0      )
                  (     0          0          1      )

 cart.    s( 2) = ( -1.0000000  0.0000000  0.0000000 )
                  (  0.0000000 -1.0000000  0.0000000 )
                  (  0.0000000  0.0000000  1.0000000 )


      isym =  3     180 deg rotation - cart. axis [0,1,0]        

 cryst.   s( 3) = (    -1          0          0      )
                  (     0          1          0      )
                  (     0          0         -1      )

 cart.    s( 3) = ( -1.0000000  0.0000000  0.0000000 )
                  (  0.0000000  1.0000000  0.0000000 )
                  (  0.0000000  0.0000000 -1.0000000 )


      isym =  4     180 deg rotation - cart. axis [1,0,0]        

 cryst.   s( 4) = (     1          0          0      )
                  (     0         -1          0      )
                  (     0          0         -1      )

 cart.    s( 4) = (  1.0000000  0.0000000  0.0000000 )
                  (  0.0000000 -1.0000000  0.0000000 )
                  (  0.0000000  0.0000000 -1.0000000 )


      isym =  5     180 deg rotation - cart. axis [1,1,0]        

 cryst.   s( 5) = (     0          1          0      )
                  (     1          0          0      )
                  (     0          0         -1      )

 cart.    s( 5) = (  0.0000000  1.0000000  0.0000000 )
                  (  1.0000000  0.0000000  0.0000000 )
                  (  0.0000000  0.0000000 -1.0000000 )


      isym =  6     180 deg rotation - cart. axis [1,-1,0]       

 cryst.   s( 6) = (     0         -1          0      )
                  (    -1          0          0      )
                  (     0          0         -1      )

 cart.    s( 6) = (  0.0000000 -1.0000000  0.0000000 )
                  ( -1.0000000  0.0000000  0.0000000 )
                  (  0.0000000  0.0000000 -1.0000000 )


      isym =  7      90 deg rotation - cart. axis [0,0,-1]       

 cryst.   s( 7) = (     0         -1          0      )
                  (     1          0          0      )
                  (     0          0          1      )

 cart.    s( 7) = (  0.0000000  1.0000000  0.0000000 )
                  ( -1.0000000  0.0000000  0.0000000 )
                  (  0.0000000  0.0000000  1.0000000 )


      isym =  8      90 deg rotation - cart. axis [0,0,1]        

 cryst.   s( 8) = (     0          1          0      )
                  (    -1          0          0      )
                  (     0          0          1      )

 cart.    s( 8) = (  0.0000000 -1.0000000  0.0000000 )
                  (  1.0000000  0.0000000  0.0000000 )
                  (  0.0000000  0.0000000  1.0000000 )


      isym =  9     180 deg rotation - cart. axis [1,0,1]        

 cryst.   s( 9) = (     0          0          1      )
                  (     0         -1          0      )
                  (     1          0          0      )

 cart.    s( 9) = (  0.0000000  0.0000000  1.0000000 )
                  (  0.0000000 -1.0000000  0.0000000 )
                  (  1.0000000  0.0000000  0.0000000 )


      isym = 10     180 deg rotation - cart. axis [-1,0,1]       

 cryst.   s(10) = (     0          0         -1      )
                  (     0         -1          0      )
                  (    -1          0          0      )

 cart.    s(10) = (  0.0000000  0.0000000 -1.0000000 )
                  (  0.0000000 -1.0000000  0.0000000 )
                  ( -1.0000000  0.0000000  0.0000000 )


      isym = 11      90 deg rotation - cart. axis [0,1,0]        

 cryst.   s(11) = (     0          0         -1      )
                  (     0          1          0      )
                  (     1          0          0      )

 cart.    s(11) = (  0.0000000  0.0000000  1.0000000 )
                  (  0.0000000  1.0000000  0.0000000 )
                  ( -1.0000000  0.0000000  0.0000000 )


      isym = 12      90 deg rotation - cart. axis [0,-1,0]       

 cryst.   s(12) = (     0          0          1      )
                  (     0          1          0      )
                  (    -1          0          0      )

 cart.    s(12) = (  0.0000000  0.0000000 -1.0000000 )
                  (  0.0000000  1.0000000  0.0000000 )
                  (  1.0000000  0.0000000  0.0000000 )


      isym = 13     180 deg rotation - cart. axis [0,1,1]        

 cryst.   s(13) = (    -1          0          0      )
                  (     0          0          1      )
                  (     0          1          0      )

 cart.    s(13) = ( -1.0000000  0.0000000  0.0000000 )
                  (  0.0000000  0.0000000  1.0000000 )
                  (  0.0000000  1.0000000  0.0000000 )


      isym = 14     180 deg rotation - cart. axis [0,1,-1]       

 cryst.   s(14) = (    -1          0          0      )
                  (     0          0         -1      )
                  (     0         -1          0      )

 cart.    s(14) = ( -1.0000000  0.0000000  0.0000000 )
                  (  0.0000000  0.0000000 -1.0000000 )
                  (  0.0000000 -1.0000000  0.0000000 )


      isym = 15      90 deg rotation - cart. axis [-1,0,0]       

 cryst.   s(15) = (     1          0          0      )
                  (     0          0         -1      )
                  (     0          1          0      )

 cart.    s(15) = (  1.0000000  0.0000000  0.0000000 )
                  (  0.0000000  0.0000000  1.0000000 )
                  (  0.0000000 -1.0000000  0.0000000 )


      isym = 16      90 deg rotation - cart. axis [1,0,0]        

 cryst.   s(16) = (     1          0          0      )
                  (     0          0          1      )
                  (     0         -1          0      )

 cart.    s(16) = (  1.0000000  0.0000000  0.0000000 )
                  (  0.0000000  0.0000000 -1.0000000 )
                  (  0.0000000  1.0000000  0.0000000 )


      isym = 17     120 deg rotation - cart. axis [-1,-1,-1]     

 cryst.   s(17) = (     0          0          1      )
                  (     1          0          0      )
                  (     0          1          0      )

 cart.    s(17) = (  0.0000000  1.0000000  0.0000000 )
                  (  0.0000000  0.0000000  1.0000000 )
                  (  1.0000000  0.0000000  0.0000000 )


      isym = 18     120 deg rotation - cart. axis [-1,1,1]       

 cryst.   s(18) = (     0          0         -1      )
                  (    -1          0          0      )
                  (     0          1          0      )

 cart.    s(18) = (  0.0000000 -1.0000000  0.0000000 )
                  (  0.0000000  0.0000000  1.0000000 )
                  ( -1.0000000  0.0000000  0.0000000 )


      isym = 19     120 deg rotation - cart. axis [1,1,-1]       

 cryst.   s(19) = (     0          0         -1      )
                  (     1          0          0      )
                  (     0         -1          0      )

 cart.    s(19) = (  0.0000000  1.0000000  0.0000000 )
                  (  0.0000000  0.0000000 -1.0000000 )
                  ( -1.0000000  0.0000000  0.0000000 )


      isym = 20     120 deg rotation - cart. axis [1,-1,1]       

 cryst.   s(20) = (     0          0          1      )
                  (    -1          0          0      )
                  (     0         -1          0      )

 cart.    s(20) = (  0.0000000 -1.0000000  0.0000000 )
                  (  0.0000000  0.0000000 -1.0000000 )
                  (  1.0000000  0.0000000  0.0000000 )


      isym = 21     120 deg rotation - cart. axis [1,1,1]        

 cryst.   s(21) = (     0          1          0      )
                  (     0          0          1      )
                  (     1          0          0      )

 cart.    s(21) = (  0.0000000  0.0000000  1.0000000 )
                  (  1.0000000  0.0000000  0.0000000 )
                  (  0.0000000  1.0000000  0.0000000 )


      isym = 22     120 deg rotation - cart. axis [-1,1,-1]      

 cryst.   s(22) = (     0         -1          0      )
                  (     0          0         -1      )
                  (     1          0          0      )

 cart.    s(22) = (  0.0000000  0.0000000  1.0000000 )
                  ( -1.0000000  0.0000000  0.0000000 )
                  (  0.0000000 -1.0000000  0.0000000 )


      isym = 23     120 deg rotation - cart. axis [1,-1,-1]      

 cryst.   s(23) = (     0         -1          0      )
                  (     0          0          1      )
                  (    -1          0          0      )

 cart.    s(23) = (  0.0000000  0.0000000 -1.0000000 )
                  ( -1.0000000  0.0000000  0.0000000 )
                  (  0.0000000  1.0000000  0.0000000 )


      isym = 24     120 deg rotation - cart. axis [-1,-1,1]      

 cryst.   s(24) = (     0          1          0      )
                  (     0          0         -1      )
                  (    -1          0          0      )

 cart.    s(24) = (  0.0000000  0.0000000 -1.0000000 )
                  (  1.0000000  0.0000000  0.0000000 )
                  (  0.0000000 -1.0000000  0.0000000 )


      isym = 25     inversion                                    

 cryst.   s(25) = (    -1          0          0      )
                  (     0         -1          0      )
                  (     0          0         -1      )

 cart.    s(25) = ( -1.0000000  0.0000000  0.0000000 )
                  (  0.0000000 -1.0000000  0.0000000 )
                  (  0.0000000  0.0000000 -1.0000000 )


      isym = 26     inv. 180 deg rotation - cart. axis [0,0,1]   

 cryst.   s(26) = (     1          0          0      )
                  (     0          1          0      )
                  (     0          0         -1      )

 cart.    s(26) = (  1.0000000  0.0000000  0.0000000 )
                  (  0.0000000  1.0000000  0.0000000 )
                  (  0.0000000  0.0000000 -1.0000000 )


      isym = 27     inv. 180 deg rotation - cart. axis [0,1,0]   

 cryst.   s(27) = (     1          0          0      )
                  (     0         -1          0      )
                  (     0          0          1      )

 cart.    s(27) = (  1.0000000  0.0000000  0.0000000 )
                  (  0.0000000 -1.0000000  0.0000000 )
                  (  0.0000000  0.0000000  1.0000000 )


      isym = 28     inv. 180 deg rotation - cart. axis [1,0,0]   

 cryst.   s(28) = (    -1          0          0      )
                  (     0          1          0      )
                  (     0          0          1      )

 cart.    s(28) = ( -1.0000000  0.0000000  0.0000000 )
                  (  0.0000000  1.0000000  0.0000000 )
                  (  0.0000000  0.0000000  1.0000000 )


      isym = 29     inv. 180 deg rotation - cart. axis [1,1,0]   

 cryst.   s(29) = (     0         -1          0      )
                  (    -1          0          0      )
                  (     0          0          1      )

 cart.    s(29) = (  0.0000000 -1.0000000  0.0000000 )
                  ( -1.0000000  0.0000000  0.0000000 )
                  (  0.0000000  0.0000000  1.0000000 )


      isym = 30     inv. 180 deg rotation - cart. axis [1,-1,0]  

 cryst.   s(30) = (     0          1          0      )
                  (     1          0          0      )
                  (     0          0          1      )

 cart.    s(30) = (  0.0000000  1.0000000  0.0000000 )
                  (  1.0000000  0.0000000  0.0000000 )
                  (  0.0000000  0.0000000  1.0000000 )


      isym = 31     inv.  90 deg rotation - cart. axis [0,0,-1]  

 cryst.   s(31) = (     0          1          0      )
                  (    -1          0          0      )
                  (     0          0         -1      )

 cart.    s(31) = (  0.0000000 -1.0000000  0.0000000 )
                  (  1.0000000  0.0000000  0.0000000 )
                  (  0.0000000  0.0000000 -1.0000000 )


      isym = 32     inv.  90 deg rotation - cart. axis [0,0,1]   

 cryst.   s(32) = (     0         -1          0      )
                  (     1          0          0      )
                  (     0          0         -1      )

 cart.    s(32) = (  0.0000000  1.0000000  0.0000000 )
                  ( -1.0000000  0.0000000  0.0000000 )
                  (  0.0000000  0.0000000 -1.0000000 )


      isym = 33     inv. 180 deg rotation - cart. axis [1,0,1]   

 cryst.   s(33) = (     0          0         -1      )
                  (     0          1          0      )
                  (    -1          0          0      )

 cart.    s(33) = (  0.0000000  0.0000000 -1.0000000 )
                  (  0.0000000  1.0000000  0.0000000 )
                  ( -1.0000000  0.0000000  0.0000000 )


      isym = 34     inv. 180 deg rotation - cart. axis [-1,0,1]  

 cryst.   s(34) = (     0          0          1      )
                  (     0          1          0      )
                  (     1          0          0      )

 cart.    s(34) = (  0.0000000  0.0000000  1.0000000 )
                  (  0.0000000  1.0000000  0.0000000 )
                  (  1.0000000  0.0000000  0.0000000 )


      isym = 35     inv.  90 deg rotation - cart. axis [0,1,0]   

 cryst.   s(35) = (     0          0          1      )
                  (     0         -1          0      )
                  (    -1          0          0      )

 cart.    s(35) = (  0.0000000  0.0000000 -1.0000000 )
                  (  0.0000000 -1.0000000  0.0000000 )
                  (  1.0000000  0.0000000  0.0000000 )


      isym = 36     inv.  90 deg rotation - cart. axis [0,-1,0]  

 cryst.   s(36) = (     0          0         -1      )
                  (     0         -1          0      )
                  (     1          0          0      )

 cart.    s(36) = (  0.0000000  0.0000000  1.0000000 )
                  (  0.0000000 -1.0000000  0.0000000 )
                  ( -1.0000000  0.0000000  0.0000000 )


      isym = 37     inv. 180 deg rotation - cart. axis [0,1,1]   

 cryst.   s(37) = (     1          0          0      )
                  (     0          0         -1      )
                  (     0         -1          0      )

 cart.    s(37) = (  1.0000000  0.0000000  0.0000000 )
                  (  0.0000000  0.0000000 -1.0000000 )
                  (  0.0000000 -1.0000000  0.0000000 )


      isym = 38     inv. 180 deg rotation - cart. axis [0,1,-1]  

 cryst.   s(38) = (     1          0          0      )
                  (     0          0          1      )
                  (     0          1          0      )

 cart.    s(38) = (  1.0000000  0.0000000  0.0000000 )
                  (  0.0000000  0.0000000  1.0000000 )
                  (  0.0000000  1.0000000  0.0000000 )


      isym = 39     inv.  90 deg rotation - cart. axis [-1,0,0]  

 cryst.   s(39) = (    -1          0          0      )
                  (     0          0          1      )
                  (     0         -1          0      )

 cart.    s(39) = ( -1.0000000  0.0000000  0.0000000 )
                  (  0.0000000  0.0000000 -1.0000000 )
                  (  0.0000000  1.0000000  0.0000000 )


      isym = 40     inv.  90 deg rotation - cart. axis [1,0,0]   

 cryst.   s(40) = (    -1          0          0      )
                  (     0          0         -1      )
                  (     0          1          0      )

 cart.    s(40) = ( -1.0000000  0.0000000  0.0000000 )
                  (  0.0000000  0.0000000  1.0000000 )
                  (  0.0000000 -1.0000000  0.0000000 )


      isym = 41     inv. 120 deg rotation - cart. axis [-1,-1,-1]

 cryst.   s(41) = (     0          0         -1      )
                  (    -1          0          0      )
                  (     0         -1          0      )

 cart.    s(41) = (  0.0000000 -1.0000000  0.0000000 )
                  (  0.0000000  0.0000000 -1.0000000 )
                  ( -1.0000000  0.0000000  0.0000000 )


      isym = 42     inv. 120 deg rotation - cart. axis [-1,1,1]  

 cryst.   s(42) = (     0          0          1      )
                  (     1          0          0      )
                  (     0         -1          0      )

 cart.    s(42) = (  0.0000000  1.0000000  0.0000000 )
                  (  0.0000000  0.0000000 -1.0000000 )
                  (  1.0000000  0.0000000  0.0000000 )


      isym = 43     inv. 120 deg rotation - cart. axis [1,1,-1]  

 cryst.   s(43) = (     0          0          1      )
                  (    -1          0          0      )
                  (     0          1          0      )

 cart.    s(43) = (  0.0000000 -1.0000000  0.0000000 )
                  (  0.0000000  0.0000000  1.0000000 )
                  (  1.0000000  0.0000000  0.0000000 )


      isym = 44     inv. 120 deg rotation - cart. axis [1,-1,1]  

 cryst.   s(44) = (     0          0         -1      )
                  (     1          0          0      )
                  (     0          1          0      )

 cart.    s(44) = (  0.0000000  1.0000000  0.0000000 )
                  (  0.0000000  0.0000000  1.0000000 )
                  ( -1.0000000  0.0000000  0.0000000 )


      isym = 45     inv. 120 deg rotation - cart. axis [1,1,1]   

 cryst.   s(45) = (     0         -1          0      )
                  (     0          0         -1      )
                  (    -1          0          0      )

 cart.    s(45) = (  0.0000000  0.0000000 -1.0000000 )
                  ( -1.0000000  0.0000000  0.0000000 )
                  (  0.0000000 -1.0000000  0.0000000 )


      isym = 46     inv. 120 deg rotation - cart. axis [-1,1,-1] 

 cryst.   s(46) = (     0          1          0      )
                  (     0          0          1      )
                  (    -1          0          0      )

 cart.    s(46) = (  0.0000000  0.0000000 -1.0000000 )
                  (  1.0000000  0.0000000  0.0000000 )
                  (  0.0000000  1.0000000  0.0000000 )


      isym = 47     inv. 120 deg rotation - cart. axis [1,-1,-1] 

 cryst.   s(47) = (     0          1          0      )
                  (     0          0         -1      )
                  (     1          0          0      )

 cart.    s(47) = (  0.0000000  0.0000000  1.0000000 )
                  (  1.0000000  0.0000000  0.0000000 )
                  (  0.0000000 -1.0000000  0.0000000 )


      isym = 48     inv. 120 deg rotation - cart. axis [-1,-1,1] 

 cryst.   s(48) = (     0         -1          0      )
                  (     0          0          1      )
                  (     1          0          0      )

 cart.    s(48) = (  0.0000000  0.0000000  1.0000000 )
                  ( -1.0000000  0.0000000  0.0000000 )
                  (  0.0000000  1.0000000  0.0000000 )


     point group O_h (m-3m) 
     there are 10 classes
     the character table:

       E     8C3   3C2   6C4   6C2'  i     8S6   3s_h  6S4   6s_d 
A_1g   1.00  1.00  1.00  1.00  1.00  1.00  1.00  1.00  1.00  1.00
A_2g   1.00  1.00  1.00 -1.00 -1.00  1.00  1.00  1.00 -1.00 -1.00
E_g    2.00 -1.00  2.00  0.00  0.00  2.00 -1.00  2.00  0.00  0.00
T_1g   3.00  0.00 -1.00  1.00 -1.00  3.00  0.00 -1.00  1.00 -1.00
T_2g   3.00  0.00 -1.00 -1.00  1.00  3.00  0.00 -1.00 -1.00  1.00
A_1u   1.00  1.00  1.00  1.00  1.00 -1.00 -1.00 -1.00 -1.00 -1.00
A_2u   1.00  1.00  1.00 -1.00 -1.00 -1.00 -1.00 -1.00  1.00  1.00
E_u    2.00 -1.00  2.00  0.00  0.00 -2.00  1.00 -2.00  0.00  0.00
T_1u   3.00  0.00 -1.00  1.00 -1.00 -3.00  0.00  1.00 -1.00  1.00
T_2u   3.00  0.00 -1.00 -1.00  1.00 -3.00  0.00  1.00  1.00 -1.00

     the symmetry operations in each class and the name of the first element:

     E        1
          identity                                               
     8C3     17   19   20   18   24   21   22   23
          120 deg rotation - cart. axis [-1,-1,-1]               
     3C2      2    4    3
          180 deg rotation - cart. axis [0,0,1]                  
     6C4      7    8   15   16   12   11
           90 deg rotation - cart. axis [0,0,-1]                 
     6C2'     5    6   14   13   10    9
          180 deg rotation - cart. axis [1,1,0]                  
     i       25
          inversion                                              
     8S6     41   43   44   42   48   45   46   47
          inv. 120 deg rotation - cart. axis [-1,-1,-1]          
     3s_h    26   28   27
          inv. 180 deg rotation - cart. axis [0,0,1]             
     6S4     31   32   39   40   36   35
          inv.  90 deg rotation - cart. axis [0,0,-1]            
     6s_d    29   30   38   37   34   33
          inv. 180 deg rotation - cart. axis [1,1,0]             

   Cartesian axes

     site n.     atom                  positions (alat units)
         1           Fe  tau(   1) = (   0.0000000   0.0000000   0.0000000  )
         2           Fe  tau(   2) = (   0.5000000   0.5000000   0.5000000  )

   Crystallographic axes

     site n.     atom                  positions (cryst. coord.)
         1           Fe  tau(   1) = (  0.0000000  0.0000000  0.0000000  )
         2           Fe  tau(   2) = (  0.5000000  0.5000000  0.5000000  )

     number of k points=    56  Gaussian smearing, width (Ry)=  0.0010
                       cart. coord. in units 2pi/alat
        k(    1) = (   0.0000000   0.0000000   0.0000000), wk =   0.0010000
        k(    2) = (   0.0000000   0.0000000   0.1000000), wk =   0.0060000
        k(    3) = (   0.0000000   0.0000000   0.2000000), wk =   0.0060000
        k(    4) = (   0.0000000   0.0000000   0.3000000), wk =   0.0060000
        k(    5) = (   0.0000000   0.0000000   0.4000000), wk =   0.0060000
        k(    6) = (   0.0000000   0.0000000  -0.5000000), wk =   0.0030000
        k(    7) = (   0.0000000   0.1000000   0.1000000), wk =   0.0120000
        k(    8) = (   0.0000000   0.1000000   0.2000000), wk =   0.0240000
        k(    9) = (   0.0000000   0.1000000   0.3000000), wk =   0.0240000
        k(   10) = (   0.0000000   0.1000000   0.4000000), wk =   0.0240000
        k(   11) = (   0.0000000   0.1000000  -0.5000000), wk =   0.0120000
        k(   12) = (   0.0000000   0.2000000   0.2000000), wk =   0.0120000
        k(   13) = (   0.0000000   0.2000000   0.3000000), wk =   0.0240000
        k(   14) = (   0.0000000   0.2000000   0.4000000), wk =   0.0240000
        k(   15) = (   0.0000000   0.2000000  -0.5000000), wk =   0.0120000
        k(   16) = (   0.0000000   0.3000000   0.3000000), wk =   0.0120000
        k(   17) = (   0.0000000   0.3000000   0.4000000), wk =   0.0240000
        k(   18) = (   0.0000000   0.3000000  -0.5000000), wk =   0.0120000
        k(   19) = (   0.0000000   0.4000000   0.4000000), wk =   0.0120000
        k(   20) = (   0.0000000   0.4000000  -0.5000000), wk =   0.0120000
        k(   21) = (   0.0000000  -0.5000000  -0.5000000), wk =   0.0030000
        k(   22) = (   0.1000000   0.1000000   0.1000000), wk =   0.0080000
        k(   23) = (   0.1000000   0.1000000   0.2000000), wk =   0.0240000
        k(   24) = (   0.1000000   0.1000000   0.3000000), wk =   0.0240000
        k(   25) = (   0.1000000   0.1000000   0.4000000), wk =   0.0240000
        k(   26) = (   0.1000000   0.1000000  -0.5000000), wk =   0.0120000
        k(   27) = (   0.1000000   0.2000000   0.2000000), wk =   0.0240000
        k(   28) = (   0.1000000   0.2000000   0.3000000), wk =   0.0480000
        k(   29) = (   0.1000000   0.2000000   0.4000000), wk =   0.0480000
        k(   30) = (   0.1000000   0.2000000  -0.5000000), wk =   0.0240000
        k(   31) = (   0.1000000   0.3000000   0.3000000), wk =   0.0240000
        k(   32) = (   0.1000000   0.3000000   0.4000000), wk =   0.0480000
        k(   33) = (   0.1000000   0.3000000  -0.5000000), wk =   0.0240000
        k(   34) = (   0.1000000   0.4000000   0.4000000), wk =   0.0240000
        k(   35) = (   0.1000000   0.4000000  -0.5000000), wk =   0.0240000
        k(   36) = (   0.1000000  -0.5000000  -0.5000000), wk =   0.0060000
        k(   37) = (   0.2000000   0.2000000   0.2000000), wk =   0.0080000
        k(   38) = (   0.2000000   0.2000000   0.3000000), wk =   0.0240000
        k(   39) = (   0.2000000   0.2000000   0.4000000), wk =   0.0240000
        k(   40) = (   0.2000000   0.2000000  -0.5000000), wk =   0.0120000
        k(   41) = (   0.2000000   0.3000000   0.3000000), wk =   0.0240000
        k(   42) = (   0.2000000   0.3000000   0.4000000), wk =   0.0480000
        k(   43) = (   0.2000000   0.3000000  -0.5000000), wk =   0.0240000
        k(   44) = (   0.2000000   0.4000000   0.4000000), wk =   0.0240000
        k(   45) = (   0.2000000   0.4000000  -0.5000000), wk =   0.0240000
        k(   46) = (   0.2000000  -0.5000000  -0.5000000), wk =   0.0060000
        k(   47) = (   0.3000000   0.3000000   0.3000000), wk =   0.0080000
        k(   48) = (   0.3000000   0.3000000   0.4000000), wk =   0.0240000
        k(   49) = (   0.3000000   0.3000000  -0.5000000), wk =   0.0120000
        k(   50) = (   0.3000000   0.4000000   0.4000000), wk =   0.0240000
        k(   51) = (   0.3000000   0.4000000  -0.5000000), wk =   0.0240000
        k(   52) = (   0.3000000  -0.5000000  -0.5000000), wk =   0.0060000
        k(   53) = (   0.4000000   0.4000000   0.4000000), wk =   0.0080000
        k(   54) = (   0.4000000   0.4000000  -0.5000000), wk =   0.0120000
        k(   55) = (   0.4000000  -0.5000000  -0.5000000), wk =   0.0060000
        k(   56) = (  -0.5000000  -0.5000000  -0.5000000), wk =   0.0010000

                       cryst. coord.
        k(    1) = (   0.0000000   0.0000000   0.0000000), wk =   0.0010000
        k(    2) = (   0.0000000   0.0000000   0.1000000), wk =   0.0060000
        k(    3) = (   0.0000000   0.0000000   0.2000000), wk =   0.0060000
        k(    4) = (   0.0000000   0.0000000   0.3000000), wk =   0.0060000
        k(    5) = (   0.0000000   0.0000000   0.4000000), wk =   0.0060000
        k(    6) = (   0.0000000   0.0000000  -0.5000000), wk =   0.0030000
        k(    7) = (   0.0000000   0.1000000   0.1000000), wk =   0.0120000
        k(    8) = (   0.0000000   0.1000000   0.2000000), wk =   0.0240000
        k(    9) = (   0.0000000   0.1000000   0.3000000), wk =   0.0240000
        k(   10) = (   0.0000000   0.1000000   0.4000000), wk =   0.0240000
        k(   11) = (   0.0000000   0.1000000  -0.5000000), wk =   0.0120000
        k(   12) = (   0.0000000   0.2000000   0.2000000), wk =   0.0120000
        k(   13) = (   0.0000000   0.2000000   0.3000000), wk =   0.0240000
        k(   14) = (   0.0000000   0.2000000   0.4000000), wk =   0.0240000
        k(   15) = (   0.0000000   0.2000000  -0.5000000), wk =   0.0120000
        k(   16) = (   0.0000000   0.3000000   0.3000000), wk =   0.0120000
        k(   17) = (   0.0000000   0.3000000   0.4000000), wk =   0.0240000
        k(   18) = (   0.0000000   0.3000000  -0.5000000), wk =   0.0120000
        k(   19) = (   0.0000000   0.4000000   0.4000000), wk =   0.0120000
        k(   20) = (   0.0000000   0.4000000  -0.5000000), wk =   0.0120000
        k(   21) = (   0.0000000  -0.5000000  -0.5000000), wk =   0.0030000
        k(   22) = (   0.1000000   0.1000000   0.1000000), wk =   0.0080000
        k(   23) = (   0.1000000   0.1000000   0.2000000), wk =   0.0240000
        k(   24) = (   0.1000000   0.1000000   0.3000000), wk =   0.0240000
        k(   25) = (   0.1000000   0.1000000   0.4000000), wk =   0.0240000
        k(   26) = (   0.1000000   0.1000000  -0.5000000), wk =   0.0120000
        k(   27) = (   0.1000000   0.2000000   0.2000000), wk =   0.0240000
        k(   28) = (   0.1000000   0.2000000   0.3000000), wk =   0.0480000
        k(   29) = (   0.1000000   0.2000000   0.4000000), wk =   0.0480000
        k(   30) = (   0.1000000   0.2000000  -0.5000000), wk =   0.0240000
        k(   31) = (   0.1000000   0.3000000   0.3000000), wk =   0.0240000
        k(   32) = (   0.1000000   0.3000000   0.4000000), wk =   0.0480000
        k(   33) = (   0.1000000   0.3000000  -0.5000000), wk =   0.0240000
        k(   34) = (   0.1000000   0.4000000   0.4000000), wk =   0.0240000
        k(   35) = (   0.1000000   0.4000000  -0.5000000), wk =   0.0240000
        k(   36) = (   0.1000000  -0.5000000  -0.5000000), wk =   0.0060000
        k(   37) = (   0.2000000   0.2000000   0.2000000), wk =   0.0080000
        k(   38) = (   0.2000000   0.2000000   0.3000000), wk =   0.0240000
        k(   39) = (   0.2000000   0.2000000   0.4000000), wk =   0.0240000
        k(   40) = (   0.2000000   0.2000000  -0.5000000), wk =   0.0120000
        k(   41) = (   0.2000000   0.3000000   0.3000000), wk =   0.0240000
        k(   42) = (   0.2000000   0.3000000   0.4000000), wk =   0.0480000
        k(   43) = (   0.2000000   0.3000000  -0.5000000), wk =   0.0240000
        k(   44) = (   0.2000000   0.4000000   0.4000000), wk =   0.0240000
        k(   45) = (   0.2000000   0.4000000  -0.5000000), wk =   0.0240000
        k(   46) = (   0.2000000  -0.5000000  -0.5000000), wk =   0.0060000
        k(   47) = (   0.3000000   0.3000000   0.3000000), wk =   0.0080000
        k(   48) = (   0.3000000   0.3000000   0.4000000), wk =   0.0240000
        k(   49) = (   0.3000000   0.3000000  -0.5000000), wk =   0.0120000
        k(   50) = (   0.3000000   0.4000000   0.4000000), wk =   0.0240000
        k(   51) = (   0.3000000   0.4000000  -0.5000000), wk =   0.0240000
        k(   52) = (   0.3000000  -0.5000000  -0.5000000), wk =   0.0060000
        k(   53) = (   0.4000000   0.4000000   0.4000000), wk =   0.0080000
        k(   54) = (   0.4000000   0.4000000  -0.5000000), wk =   0.0120000
        k(   55) = (   0.4000000  -0.5000000  -0.5000000), wk =   0.0060000
        k(   56) = (  -0.5000000  -0.5000000  -0.5000000), wk =   0.0010000

     Dense  grid:    42931 G-vectors     FFT dimensions: (  45,  45,  45)

     Smooth grid:    18613 G-vectors     FFT dimensions: (  36,  36,  36)

     Dynamical RAM for                 wfc:       0.07 MB

     Dynamical RAM for     wfc (w. buffer):       4.02 MB

     Dynamical RAM for           str. fact:       0.07 MB

     Dynamical RAM for           local pot:       0.00 MB

     Dynamical RAM for          nlocal pot:       0.13 MB

     Dynamical RAM for                qrad:       2.12 MB

     Dynamical RAM for          rho,v,vnew:       0.86 MB

     Dynamical RAM for               rhoin:       0.29 MB

     Dynamical RAM for            rho*nmix:       2.10 MB

     Dynamical RAM for           G-vectors:       0.26 MB

     Dynamical RAM for          h,s,v(r/c):       0.07 MB

     Dynamical RAM for          <psi|beta>:       0.01 MB

     Dynamical RAM for                 psi:       0.14 MB

     Dynamical RAM for                hpsi:       0.14 MB

     Dynamical RAM for                spsi:       0.14 MB

     Dynamical RAM for      wfcinit/wfcrot:       0.15 MB

     Dynamical RAM for           addusdens:       6.26 MB

     Estimated static dynamical RAM per process >       8.33 MB

     Estimated max dynamical RAM per process >      16.68 MB

     Estimated total dynamical RAM >     312.70 MB
     Generating pointlists ...
     new r_m :   0.3572 (alat units)  1.8430 (a.u.) for type    1

     The initial density is read from file :
     ./out/Fe.save/charge-density


     starting charge      32.3542, renormalised to      32.0000

     negative rho (up, down):  0.000E+00 7.466E-05
     Starting wfcs from file
     Checking if some PAW data can be deallocated... 

     total cpu time spent up to now is        0.5 secs

     Self-consistent Calculation

     iteration #  1     ecut=   100.00 Ry     beta= 0.40
     Davidson diagonalization with overlap

---- Real-time Memory Report at c_bands before calling an iterative solver
            56 MiB given to the printing process from OS
             0 MiB allocation reported by mallinfo(arena+hblkhd)
        360161 MiB available memory on the node where the printing process lives
------------------
     ethr =  1.00E-05,  avg # of iterations =  4.4

     negative rho (up, down):  0.000E+00 5.972E-05

     total cpu time spent up to now is        1.8 secs

     total energy              =    -658.51064914 Ry
     estimated scf accuracy    <       0.05065992 Ry

     total magnetization       =     4.08 Bohr mag/cell
     absolute magnetization    =     4.24 Bohr mag/cell

     iteration #  2     ecut=   100.00 Ry     beta= 0.40
     Davidson diagonalization with overlap

---- Real-time Memory Report at c_bands before calling an iterative solver
            72 MiB given to the printing process from OS
             0 MiB allocation reported by mallinfo(arena+hblkhd)
        359923 MiB available memory on the node where the printing process lives
------------------
     ethr =  1.58E-04,  avg # of iterations =  3.0

     negative rho (up, down):  0.000E+00 6.770E-05

     total cpu time spent up to now is        2.8 secs

     total energy              =    -658.52581748 Ry
     estimated scf accuracy    <       0.01018086 Ry

     total magnetization       =     3.96 Bohr mag/cell
     absolute magnetization    =     4.14 Bohr mag/cell

     iteration #  3     ecut=   100.00 Ry     beta= 0.40
     Davidson diagonalization with overlap

---- Real-time Memory Report at c_bands before calling an iterative solver
            74 MiB given to the printing process from OS
             0 MiB allocation reported by mallinfo(arena+hblkhd)
        359905 MiB available memory on the node where the printing process lives
------------------
     ethr =  3.18E-05,  avg # of iterations =  1.9

     negative rho (up, down):  0.000E+00 7.606E-05

     total cpu time spent up to now is        3.5 secs

     total energy              =    -658.52662742 Ry
     estimated scf accuracy    <       0.00057862 Ry

     total magnetization       =     3.98 Bohr mag/cell
     absolute magnetization    =     4.16 Bohr mag/cell

     iteration #  4     ecut=   100.00 Ry     beta= 0.40
     Davidson diagonalization with overlap

---- Real-time Memory Report at c_bands before calling an iterative solver
            75 MiB given to the printing process from OS
             0 MiB allocation reported by mallinfo(arena+hblkhd)
        359898 MiB available memory on the node where the printing process lives
------------------
     ethr =  1.81E-06,  avg # of iterations =  3.7

     negative rho (up, down):  0.000E+00 7.569E-05

     total cpu time spent up to now is        4.6 secs

     total energy              =    -658.52716265 Ry
     estimated scf accuracy    <       0.00171243 Ry

     total magnetization       =     4.03 Bohr mag/cell
     absolute magnetization    =     4.20 Bohr mag/cell

     iteration #  5     ecut=   100.00 Ry     beta= 0.40
     Davidson diagonalization with overlap

---- Real-time Memory Report at c_bands before calling an iterative solver
            76 MiB given to the printing process from OS
             0 MiB allocation reported by mallinfo(arena+hblkhd)
        359888 MiB available memory on the node where the printing process lives
------------------
     ethr =  1.81E-06,  avg # of iterations =  1.0

     negative rho (up, down):  0.000E+00 7.527E-05

     total cpu time spent up to now is        5.3 secs

     total energy              =    -658.52695577 Ry
     estimated scf accuracy    <       0.00109211 Ry

     total magnetization       =     4.03 Bohr mag/cell
     absolute magnetization    =     4.20 Bohr mag/cell

     iteration #  6     ecut=   100.00 Ry     beta= 0.40
     Davidson diagonalization with overlap

---- Real-time Memory Report at c_bands before calling an iterative solver
            77 MiB given to the printing process from OS
             0 MiB allocation reported by mallinfo(arena+hblkhd)
        359880 MiB available memory on the node where the printing process lives
------------------
     ethr =  1.81E-06,  avg # of iterations =  2.0

     negative rho (up, down):  0.000E+00 7.557E-05

     total cpu time spent up to now is        6.1 secs

     total energy              =    -658.52695538 Ry
     estimated scf accuracy    <       0.00021927 Ry

     total magnetization       =     4.01 Bohr mag/cell
     absolute magnetization    =     4.19 Bohr mag/cell

     iteration #  7     ecut=   100.00 Ry     beta= 0.40
     Davidson diagonalization with overlap

---- Real-time Memory Report at c_bands before calling an iterative solver
            77 MiB given to the printing process from OS
             0 MiB allocation reported by mallinfo(arena+hblkhd)
        359869 MiB available memory on the node where the printing process lives
------------------
     ethr =  6.85E-07,  avg # of iterations =  2.0

     negative rho (up, down):  0.000E+00 7.670E-05

     total cpu time spent up to now is        7.0 secs

     total energy              =    -658.52696247 Ry
     estimated scf accuracy    <       0.00002919 Ry

     total magnetization       =     4.00 Bohr mag/cell
     absolute magnetization    =     4.18 Bohr mag/cell

     iteration #  8     ecut=   100.00 Ry     beta= 0.40
     Davidson diagonalization with overlap

---- Real-time Memory Report at c_bands before calling an iterative solver
            79 MiB given to the printing process from OS
             0 MiB allocation reported by mallinfo(arena+hblkhd)
        359862 MiB available memory on the node where the printing process lives
------------------
     ethr =  9.12E-08,  avg # of iterations =  3.2

     negative rho (up, down):  0.000E+00 7.723E-05

     total cpu time spent up to now is        7.9 secs

     total energy              =    -658.52697070 Ry
     estimated scf accuracy    <       0.00000129 Ry

     total magnetization       =     4.00 Bohr mag/cell
     absolute magnetization    =     4.18 Bohr mag/cell

     iteration #  9     ecut=   100.00 Ry     beta= 0.40
     Davidson diagonalization with overlap

---- Real-time Memory Report at c_bands before calling an iterative solver
            80 MiB given to the printing process from OS
             0 MiB allocation reported by mallinfo(arena+hblkhd)
        359855 MiB available memory on the node where the printing process lives
------------------
     ethr =  4.03E-09,  avg # of iterations =  2.0

     negative rho (up, down):  0.000E+00 7.735E-05

     total cpu time spent up to now is        8.7 secs

     total energy              =    -658.52697073 Ry
     estimated scf accuracy    <       0.00000049 Ry

     total magnetization       =     4.00 Bohr mag/cell
     absolute magnetization    =     4.18 Bohr mag/cell

     iteration # 10     ecut=   100.00 Ry     beta= 0.40
     Davidson diagonalization with overlap

---- Real-time Memory Report at c_bands before calling an iterative solver
            81 MiB given to the printing process from OS
             0 MiB allocation reported by mallinfo(arena+hblkhd)
        359849 MiB available memory on the node where the printing process lives
------------------
     ethr =  1.53E-09,  avg # of iterations =  2.0

     negative rho (up, down):  0.000E+00 7.759E-05

     total cpu time spent up to now is        9.5 secs

     total energy              =    -658.52697086 Ry
     estimated scf accuracy    <       0.00000016 Ry

     total magnetization       =     4.00 Bohr mag/cell
     absolute magnetization    =     4.18 Bohr mag/cell

     iteration # 11     ecut=   100.00 Ry     beta= 0.40
     Davidson diagonalization with overlap

---- Real-time Memory Report at c_bands before calling an iterative solver
            82 MiB given to the printing process from OS
             0 MiB allocation reported by mallinfo(arena+hblkhd)
        359844 MiB available memory on the node where the printing process lives
------------------
     ethr =  4.95E-10,  avg # of iterations =  3.7

     negative rho (up, down):  0.000E+00 7.792E-05

     total cpu time spent up to now is       10.6 secs

     total energy              =    -658.52697089 Ry
     estimated scf accuracy    <       0.00000090 Ry

     total magnetization       =     4.00 Bohr mag/cell
     absolute magnetization    =     4.18 Bohr mag/cell

     iteration # 12     ecut=   100.00 Ry     beta= 0.40
     Davidson diagonalization with overlap

---- Real-time Memory Report at c_bands before calling an iterative solver
            82 MiB given to the printing process from OS
             0 MiB allocation reported by mallinfo(arena+hblkhd)
        359842 MiB available memory on the node where the printing process lives
------------------
     ethr =  4.95E-10,  avg # of iterations =  2.8

     negative rho (up, down):  0.000E+00 7.801E-05

     total cpu time spent up to now is       11.6 secs

     total energy              =    -658.52697099 Ry
     estimated scf accuracy    <       0.00000017 Ry

     total magnetization       =     4.00 Bohr mag/cell
     absolute magnetization    =     4.18 Bohr mag/cell

     iteration # 13     ecut=   100.00 Ry     beta= 0.40
     Davidson diagonalization with overlap

---- Real-time Memory Report at c_bands before calling an iterative solver
            82 MiB given to the printing process from OS
             0 MiB allocation reported by mallinfo(arena+hblkhd)
        359841 MiB available memory on the node where the printing process lives
------------------
     ethr =  4.95E-10,  avg # of iterations =  2.0

     negative rho (up, down):  0.000E+00 7.810E-05

     total cpu time spent up to now is       12.5 secs

     total energy              =    -658.52697101 Ry
     estimated scf accuracy    <       0.00000002 Ry

     total magnetization       =     4.00 Bohr mag/cell
     absolute magnetization    =     4.18 Bohr mag/cell

     iteration # 14     ecut=   100.00 Ry     beta= 0.40
     Davidson diagonalization with overlap

---- Real-time Memory Report at c_bands before calling an iterative solver
            82 MiB given to the printing process from OS
             0 MiB allocation reported by mallinfo(arena+hblkhd)
        359837 MiB available memory on the node where the printing process lives
------------------
     ethr =  6.33E-11,  avg # of iterations =  3.3

     negative rho (up, down):  0.000E+00 7.811E-05

     total cpu time spent up to now is       13.4 secs

     total energy              =    -658.52697102 Ry
     estimated scf accuracy    <          1.1E-09 Ry

     total magnetization       =     4.00 Bohr mag/cell
     absolute magnetization    =     4.19 Bohr mag/cell

     iteration # 15     ecut=   100.00 Ry     beta= 0.40
     Davidson diagonalization with overlap

---- Real-time Memory Report at c_bands before calling an iterative solver
            82 MiB given to the printing process from OS
             0 MiB allocation reported by mallinfo(arena+hblkhd)
        359838 MiB available memory on the node where the printing process lives
------------------
     ethr =  3.40E-12,  avg # of iterations =  2.6

     negative rho (up, down):  0.000E+00 7.809E-05

     total cpu time spent up to now is       14.4 secs

     total energy              =    -658.52697102 Ry
     estimated scf accuracy    <          9.4E-10 Ry

     total magnetization       =     4.01 Bohr mag/cell
     absolute magnetization    =     4.19 Bohr mag/cell

     iteration # 16     ecut=   100.00 Ry     beta= 0.40
     Davidson diagonalization with overlap

---- Real-time Memory Report at c_bands before calling an iterative solver
            82 MiB given to the printing process from OS
             0 MiB allocation reported by mallinfo(arena+hblkhd)
        359834 MiB available memory on the node where the printing process lives
------------------
     ethr =  2.93E-12,  avg # of iterations =  1.9

     negative rho (up, down):  0.000E+00 7.810E-05
 
     Magnetic moment per site  (integrated on atomic sphere of radius R)
     atom   1 (R=0.357)  charge= 14.2993  magn=  2.0327
     atom   2 (R=0.357)  charge= 14.2996  magn=  2.0327

     total cpu time spent up to now is       15.3 secs

     End of self-consistent calculation

 ------ SPIN UP ------------


          k = 0.0000 0.0000 0.0000 (  2325 PWs)   bands (ev):

   -67.2644 -67.0476 -33.3760 -33.3760 -33.3760 -32.9500 -32.9500 -32.9500
    11.7409  15.3558  15.3558  18.4304  18.4304  18.4304  19.8652  19.8652
    21.3184  21.3184  21.3184  31.5918

     occupation numbers 
     1.0000   1.0000   1.0000   1.0000   1.0000   1.0000   1.0000   1.0000
     1.0000   1.0000   1.0000   1.0000   1.0000   1.0000   1.0000   1.0000
     0.0000   0.0000   0.0000   0.0000

          k = 0.0000 0.0000 0.1000 (  2333 PWs)   bands (ev):

   -67.2583 -67.0521 -33.3752 -33.3650 -33.3650 -32.9703 -32.9598 -32.9598
    11.9680  15.4584  15.4665  18.4275  18.4275  18.4968  19.7502  19.9103
    21.1071  21.1071  21.2434  30.2204

     occupation numbers 
     1.0000   1.0000   1.0000   1.0000   1.0000   1.0000   1.0000   1.0000
     1.0000   1.0000   1.0000   1.0000   1.0000   1.0000   1.0000   1.0000
     0.0000   0.0000   0.0000   0.0000

          k = 0.0000 0.0000 0.2000 (  2301 PWs)   bands (ev):

   -67.2408 -67.0653 -33.3700 -33.3331 -33.3331 -33.0262 -32.9884 -32.9884
    12.6251  15.7535  15.7587  18.4344  18.4344  18.6907  19.4163  20.0400
    20.5846  20.5846  21.0267  27.6493

     occupation numbers 
     1.0000   1.0000   1.0000   1.0000   1.0000   1.0000   1.0000   1.0000
     1.0000   1.0000   1.0000   1.0000   1.0000   1.0000   1.0000   1.0000
     1.0000   1.0000   0.1297   0.0000

          k = 0.0000 0.0000 0.3000 (  2316 PWs)   bands (ev):

   -67.2142 -67.0866 -33.3540 -33.2841 -33.2841 -33.1047 -33.0336 -33.0336
    13.6293  16.0762  16.2340  18.4916  18.4916  18.8973  18.9961  19.9590
    19.9590  20.2536  20.6931  25.0620

     occupation numbers 
     1.0000   1.0000   1.0000   1.0000   1.0000   1.0000   1.0000   1.0000
     1.0000   1.0000   1.0000   1.0000   1.0000   1.0000   1.0000   1.0000
     1.0000   1.0000   1.0000   0.0000

          k = 0.0000 0.0000 0.4000 (  2316 PWs)   bands (ev):

   -67.1818 -67.1147 -33.3200 -33.2231 -33.2231 -33.1892 -33.0914 -33.0914
    14.7963  16.1849  16.8459  18.2484  18.6473  18.6473  19.3849  19.3849
    19.3871  20.2792  20.6203  22.8783

     occupation numbers 
     1.0000   1.0000   1.0000   1.0000   1.0000   1.0000   1.0000   1.0000
     1.0000   1.0000   1.0000   1.0000   1.0000   1.0000   1.0000   1.0000
     1.0000   1.0000   1.0000   0.0000

          k = 0.0000 0.0000-0.5000 (  2360 PWs)   bands (ev):

   -67.1475 -67.1475 -33.2643 -33.2642 -33.1566 -33.1566 -33.1566 -33.1566
    15.7720  15.7721  17.5399  17.5399  18.9402  18.9402  18.9402  18.9402
    19.8287  19.8288  21.3884  21.3885

     occupation numbers 
     1.0000   1.0000   1.0000   1.0000   1.0000   1.0000   1.0000   1.0000
     1.0000   1.0000   1.0000   1.0000   1.0000   1.0000   1.0000   1.0000
     1.0000   1.0000   0.0000   0.0000

          k = 0.0000 0.1000 0.1000 (  2323 PWs)   bands (ev):

   -67.2525 -67.0563 -33.3929 -33.3544 -33.3362 -33.0089 -32.9691 -32.9501
    12.1905  15.5553  15.5785  18.2959  18.4091  18.6907  19.7420  19.8767
    20.7486  20.8981  21.3492  30.2846

     occupation numbers 
     1.0000   1.0000   1.0000   1.0000   1.0000   1.0000   1.0000   1.0000
     1.0000   1.0000   1.0000   1.0000   1.0000   1.0000   1.0000   1.0000
     1.0000   1.0000   0.0000   0.0000

          k = 0.0000 0.1000 0.2000 (  2323 PWs)   bands (ev):

   -67.2357 -67.0688 -33.4031 -33.3240 -33.2918 -33.0775 -32.9962 -32.9628
    12.8316  15.8196  15.8859  18.2010  18.3713  18.9819  19.5080  19.9883
    20.1629  20.3939  21.2700  27.9176

     occupation numbers 
     1.0000   1.0000   1.0000   1.0000   1.0000   1.0000   1.0000   1.0000
     1.0000   1.0000   1.0000   1.0000   1.0000   1.0000   1.0000   1.0000
     1.0000   1.0000   0.0000   0.0000

          k = 0.0000 0.1000 0.3000 (  2317 PWs)   bands (ev):

   -67.2102 -67.0889 -33.3974 -33.2772 -33.2367 -33.1615 -33.0389 -32.9974
    13.8024  16.1418  16.3246  18.1935  18.3101  19.1629  19.3422  19.5370
    19.8276  20.2072  21.0120  25.3055

     occupation numbers 
     1.0000   1.0000   1.0000   1.0000   1.0000   1.0000   1.0000   1.0000
     1.0000   1.0000   1.0000   1.0000   1.0000   1.0000   1.0000   1.0000
     1.0000   1.0000   0.6571   0.0000

          k = 0.0000 0.1000 0.4000 (  2326 PWs)   bands (ev):

   -67.1793 -67.1155 -33.3705 -33.2468 -33.2190 -33.1742 -33.0937 -33.0483
    14.9114  16.2358  16.8814  18.0407  18.3059  18.9837  19.0028  19.3850
    19.7585  20.5933  20.6376  23.0546

     occupation numbers 
     1.0000   1.0000   1.0000   1.0000   1.0000   1.0000   1.0000   1.0000
     1.0000   1.0000   1.0000   1.0000   1.0000   1.0000   1.0000   1.0000
     1.0000   1.0000   1.0000   0.0000

          k = 0.0000 0.1000-0.5000 (  2322 PWs)   bands (ev):

   -67.1466 -67.1466 -33.3194 -33.3194 -33.1558 -33.1557 -33.1094 -33.1094
    15.8274  15.8274  17.4946  17.4947  18.5662  18.5662  19.1239  19.1240
    20.2035  20.2035  21.4479  21.4479

     occupation numbers 
     1.0000   1.0000   1.0000   1.0000   1.0000   1.0000   1.0000   1.0000
     1.0000   1.0000   1.0000   1.0000   1.0000   1.0000   1.0000   1.0000
     1.0000   1.0000   0.0000   0.0000

          k = 0.0000 0.2000 0.2000 (  2326 PWs)   bands (ev):

   -67.2210 -67.0790 -33.4372 -33.2978 -33.2314 -33.1616 -33.0188 -32.9505
    13.4165  15.9819  16.2410  17.9547  18.2696  19.4090  19.5130  19.6322
    19.9179  19.9676  21.4302  27.8755

     occupation numbers 
     1.0000   1.0000   1.0000   1.0000   1.0000   1.0000   1.0000   1.0000
     1.0000   1.0000   1.0000   1.0000   1.0000   1.0000   1.0000   1.0000
     1.0000   1.0000   0.0000   0.0000

          k = 0.0000 0.2000 0.3000 (  2311 PWs)   bands (ev):

   -67.1989 -67.0957 -33.4531 -33.2574 -33.2538 -33.1673 -33.0547 -32.9625
    14.2627  16.1488  16.7258  17.8172  18.2095  18.8831  19.5352  19.5806
    19.8667  20.0831  21.3715  25.7521

     occupation numbers 
     1.0000   1.0000   1.0000   1.0000   1.0000   1.0000   1.0000   1.0000
     1.0000   1.0000   1.0000   1.0000   1.0000   1.0000   1.0000   1.0000
     1.0000   1.0000   0.0000   0.0000

          k = 0.0000 0.2000 0.4000 (  2327 PWs)   bands (ev):

   -67.1723 -67.1180 -33.4437 -33.3392 -33.2075 -33.1034 -33.1009 -32.9956
    15.1475  16.1426  17.2406  17.8260  18.0758  18.3643  19.4270  19.4858
    20.3295  20.5085  21.1307  23.4379

     occupation numbers 
     1.0000   1.0000   1.0000   1.0000   1.0000   1.0000   1.0000   1.0000
     1.0000   1.0000   1.0000   1.0000   1.0000   1.0000   1.0000   1.0000
     1.0000   1.0000   0.0000   0.0000

          k = 0.0000 0.2000-0.5000 (  2308 PWs)   bands (ev):

   -67.1443 -67.1443 -33.4052 -33.4052 -33.1535 -33.1535 -33.0444 -33.0444
    15.8146  15.8146  17.7220  17.7220  18.0061  18.0061  19.4641  19.4641
    20.7653  20.7653  21.5944  21.5944

     occupation numbers 
     1.0000   1.0000   1.0000   1.0000   1.0000   1.0000   1.0000   1.0000
     1.0000   1.0000   1.0000   1.0000   1.0000   1.0000   1.0000   1.0000
     1.0000   1.0000   0.0000   0.0000

          k = 0.0000 0.3000 0.3000 (  2312 PWs)   bands (ev):

   -67.1820 -67.1070 -33.4917 -33.3476 -33.2272 -33.1002 -33.0798 -32.9509
    14.8295  16.0575  17.3247  17.5534  18.2824  18.4317  19.4583  19.7760
    19.9921  20.3874  21.5313  25.3651

     occupation numbers 
     1.0000   1.0000   1.0000   1.0000   1.0000   1.0000   1.0000   1.0000
     1.0000   1.0000   1.0000   1.0000   1.0000   1.0000   1.0000   1.0000
     1.0000   1.0000   0.0000   0.0000

          k = 0.0000 0.3000 0.4000 (  2319 PWs)   bands (ev):

   -67.1620 -67.1226 -33.5030 -33.4276 -33.1902 -33.1127 -33.0409 -32.9622
    15.2936  15.8709  17.4513  17.8196  17.9559  18.7169  19.5504  19.8444
    20.3550  20.8575  21.4754  23.6217

     occupation numbers 
     1.0000   1.0000   1.0000   1.0000   1.0000   1.0000   1.0000   1.0000
     1.0000   1.0000   1.0000   1.0000   1.0000   1.0000   1.0000   1.0000
     1.0000   1.0000   0.0000   0.0000

          k = 0.0000 0.3000-0.5000 (  2324 PWs)   bands (ev):

   -67.1414 -67.1414 -33.4816 -33.4816 -33.1507 -33.1507 -32.9936 -32.9936
    15.6188  15.6188  17.5375  17.5375  18.4783  18.4784  19.7472  19.7472
    21.2354  21.2354  21.7109  21.7109

     occupation numbers 
     1.0000   1.0000   1.0000   1.0000   1.0000   1.0000   1.0000   1.0000
     1.0000   1.0000   1.0000   1.0000   1.0000   1.0000   1.0000   1.0000
     0.0000   0.0000   0.0000   0.0000

          k = 0.0000 0.4000 0.4000 (  2320 PWs)   bands (ev):

   -67.1504 -67.1296 -33.5355 -33.4960 -33.1697 -33.1289 -32.9928 -32.9512
    15.3422  15.6027  17.2436  17.4298  18.7801  19.7109  19.7326  20.0723
    20.2273  21.2763  21.6138  23.0107

     occupation numbers 
     1.0000   1.0000   1.0000   1.0000   1.0000   1.0000   1.0000   1.0000
     1.0000   1.0000   1.0000   1.0000   1.0000   1.0000   1.0000   1.0000
     1.0000   0.0000   0.0000   0.0000

          k = 0.0000 0.4000-0.5000 (  2318 PWs)   bands (ev):

   -67.1391 -67.1391 -33.5337 -33.5337 -33.1485 -33.1484 -32.9620 -32.9620
    15.4229  15.4229  17.2335  17.2335  19.4808  19.4809  19.9182  19.9183
    21.5403  21.5403  21.6088  21.6089

     occupation numbers 
     1.0000   1.0000   1.0000   1.0000   1.0000   1.0000   1.0000   1.0000
     1.0000   1.0000   1.0000   1.0000   1.0000   1.0000   1.0000   1.0000
     0.0000   0.0000   0.0000   0.0000

          k = 0.0000-0.5000-0.5000 (  2296 PWs)   bands (ev):

   -67.1382 -67.1382 -33.5522 -33.5522 -33.1476 -33.1476 -32.9514 -32.9514
    15.3472  15.3472  17.1285  17.1285  19.9616  19.9616  20.1079  20.1080
    21.3772  21.3772  21.6456  21.6456

     occupation numbers 
     1.0000   1.0000   1.0000   1.0000   1.0000   1.0000   1.0000   1.0000
     1.0000   1.0000   1.0000   1.0000   1.0000   1.0000   1.0000   1.0000
     0.0000   0.0000   0.0000   0.0000

          k = 0.1000 0.1000 0.1000 (  2337 PWs)   bands (ev):

   -67.2468 -67.0603 -33.3815 -33.3815 -33.3005 -33.0440 -32.9603 -32.9603
    12.4091  15.6698  15.6698  18.2706  18.2706  18.8900  19.7975  19.7975
    20.2860  21.1388  21.1388  30.6815

     occupation numbers 
     1.0000   1.0000   1.0000   1.0000   1.0000   1.0000   1.0000   1.0000
     1.0000   1.0000   1.0000   1.0000   1.0000   1.0000   1.0000   1.0000
     1.0000   0.0000   0.0000   0.0000

          k = 0.1000 0.1000 0.2000 (  2316 PWs)   bands (ev):

   -67.2308 -67.0720 -33.4041 -33.3485 -33.2503 -33.1140 -32.9902 -32.9644
    13.0371  15.9353  15.9638  18.1298  18.2009  19.2360  19.5778  19.6539
    19.9458  20.6272  21.1877  28.2061

     occupation numbers 
     1.0000   1.0000   1.0000   1.0000   1.0000   1.0000   1.0000   1.0000
     1.0000   1.0000   1.0000   1.0000   1.0000   1.0000   1.0000   1.0000
     1.0000   1.0000   0.0000   0.0000

          k = 0.1000 0.1000 0.3000 (  2328 PWs)   bands (ev):

   -67.2064 -67.0910 -33.4094 -33.2975 -33.1976 -33.1945 -33.0371 -32.9882
    13.9799  16.2777  16.3480  18.0803  18.1099  19.0704  19.2906  19.6459
    20.0332  20.1723  21.0225  25.5763

     occupation numbers 
     1.0000   1.0000   1.0000   1.0000   1.0000   1.0000   1.0000   1.0000
     1.0000   1.0000   1.0000   1.0000   1.0000   1.0000   1.0000   1.0000
     1.0000   1.0000   0.2475   0.0000

          k = 0.1000 0.1000 0.4000 (  2321 PWs)   bands (ev):

   -67.1769 -67.1162 -33.3916 -33.2800 -33.2342 -33.1361 -33.0973 -33.0280
    15.0402  16.3371  16.8600  17.8327  18.2407  18.6772  19.1055  19.5198
    20.0391  20.6216  20.7177  23.2934

     occupation numbers 
     1.0000   1.0000   1.0000   1.0000   1.0000   1.0000   1.0000   1.0000
     1.0000   1.0000   1.0000   1.0000   1.0000   1.0000   1.0000   1.0000
     1.0000   1.0000   1.0000   0.0000

          k = 0.1000 0.1000-0.5000 (  2316 PWs)   bands (ev):

   -67.1457 -67.1457 -33.3476 -33.3476 -33.1651 -33.1651 -33.0790 -33.0790
    15.9123  15.9123  17.3942  17.3943  18.4509  18.4509  19.1859  19.1859
    20.3683  20.3683  21.6089  21.6090

     occupation numbers 
     1.0000   1.0000   1.0000   1.0000   1.0000   1.0000   1.0000   1.0000
     1.0000   1.0000   1.0000   1.0000   1.0000   1.0000   1.0000   1.0000
     1.0000   1.0000   0.0000   0.0000

          k = 0.1000 0.2000 0.2000 (  2315 PWs)   bands (ev):

   -67.2167 -67.0816 -33.4247 -33.3362 -33.1928 -33.1885 -33.0089 -32.9617
    13.6180  16.1162  16.2988  17.9058  18.0690  19.0042  19.6655  19.7038
    19.8933  20.3636  21.2139  28.2662

     occupation numbers 
     1.0000   1.0000   1.0000   1.0000   1.0000   1.0000   1.0000   1.0000
     1.0000   1.0000   1.0000   1.0000   1.0000   1.0000   1.0000   1.0000
     1.0000   1.0000   0.0000   0.0000

          k = 0.1000 0.2000 0.3000 (  2320 PWs)   bands (ev):

   -67.1955 -67.0974 -33.4440 -33.2914 -33.2731 -33.1351 -33.0500 -32.9705
    14.4525  16.3045  16.7360  17.7549  17.9969  18.4763  19.5687  19.9077
    20.0457  20.2224  21.1705  26.1054

     occupation numbers 
     1.0000   1.0000   1.0000   1.0000   1.0000   1.0000   1.0000   1.0000
     1.0000   1.0000   1.0000   1.0000   1.0000   1.0000   1.0000   1.0000
     1.0000   1.0000   0.0000   0.0000

          k = 0.1000 0.2000 0.4000 (  2317 PWs)   bands (ev):

   -67.1701 -67.1184 -33.4412 -33.3512 -33.2323 -33.1047 -33.0808 -32.9951
    15.3122  16.3028  17.1332  17.6469  18.0312  18.2098  19.4717  19.5918
    20.2753  20.9080  20.9474  23.8109

     occupation numbers 
     1.0000   1.0000   1.0000   1.0000   1.0000   1.0000   1.0000   1.0000
     1.0000   1.0000   1.0000   1.0000   1.0000   1.0000   1.0000   1.0000
     1.0000   1.0000   1.0000   0.0000

          k = 0.1000 0.2000-0.5000 (  2306 PWs)   bands (ev):

   -67.1434 -67.1434 -33.4099 -33.4099 -33.1676 -33.1676 -33.0330 -33.0330
    15.9600  15.9601  17.4498  17.4498  18.1156  18.1157  19.4811  19.4811
    20.6018  20.6018  22.0256  22.0257

     occupation numbers 
     1.0000   1.0000   1.0000   1.0000   1.0000   1.0000   1.0000   1.0000
     1.0000   1.0000   1.0000   1.0000   1.0000   1.0000   1.0000   1.0000
     1.0000   1.0000   0.0000   0.0000

          k = 0.1000 0.3000 0.3000 (  2317 PWs)   bands (ev):

   -67.1793 -67.1080 -33.4779 -33.3556 -33.2585 -33.0797 -33.0778 -32.9635
    15.0291  16.2145  17.3239  17.5083  17.9967  18.1409  19.7013  19.7782
    19.9940  20.7939  21.2654  25.8423

     occupation numbers 
     1.0000   1.0000   1.0000   1.0000   1.0000   1.0000   1.0000   1.0000
     1.0000   1.0000   1.0000   1.0000   1.0000   1.0000   1.0000   1.0000
     1.0000   1.0000   0.0000   0.0000

          k = 0.1000 0.3000 0.4000 (  2310 PWs)   bands (ev):

   -67.1602 -67.1227 -33.4908 -33.4269 -33.2130 -33.1169 -33.0325 -32.9723
    15.4795  16.0262  17.3977  17.6019  17.9886  18.4639  19.6677  19.7998
    20.2026  21.1399  21.4573  24.1780

     occupation numbers 
     1.0000   1.0000   1.0000   1.0000   1.0000   1.0000   1.0000   1.0000
     1.0000   1.0000   1.0000   1.0000   1.0000   1.0000   1.0000   1.0000
     1.0000   0.0000   0.0000   0.0000

          k = 0.1000 0.3000-0.5000 (  2304 PWs)   bands (ev):

   -67.1406 -67.1405 -33.4741 -33.4741 -33.1636 -33.1636 -32.9960 -32.9960
    15.7820  15.7820  17.4348  17.4348  18.4077  18.4077  19.7625  19.7625
    20.7301  20.7301  22.5026  22.5027

     occupation numbers 
     1.0000   1.0000   1.0000   1.0000   1.0000   1.0000   1.0000   1.0000
     1.0000   1.0000   1.0000   1.0000   1.0000   1.0000   1.0000   1.0000
     1.0000   1.0000   0.0000   0.0000

          k = 0.1000 0.4000 0.4000 (  2317 PWs)   bands (ev):

   -67.1490 -67.1293 -33.5207 -33.4873 -33.1864 -33.1350 -32.9960 -32.9649
    15.5198  15.7575  17.2137  17.3626  18.6844  19.3404  19.7988  19.9626
    20.0778  21.0986  22.0594  23.8219

     occupation numbers 
     1.0000   1.0000   1.0000   1.0000   1.0000   1.0000   1.0000   1.0000
     1.0000   1.0000   1.0000   1.0000   1.0000   1.0000   1.0000   1.0000
     1.0000   0.0000   0.0000   0.0000

          k = 0.1000 0.4000-0.5000 (  2310 PWs)   bands (ev):

   -67.1383 -67.1382 -33.5203 -33.5203 -33.1589 -33.1589 -32.9731 -32.9731
    15.5863  15.5863  17.1988  17.1988  19.3225  19.3226  19.9321  19.9322
    20.6414  20.6415  22.8556  22.8556

     occupation numbers 
     1.0000   1.0000   1.0000   1.0000   1.0000   1.0000   1.0000   1.0000
     1.0000   1.0000   1.0000   1.0000   1.0000   1.0000   1.0000   1.0000
     1.0000   1.0000   0.0000   0.0000

          k = 0.1000-0.5000-0.5000 (  2332 PWs)   bands (ev):

   -67.1374 -67.1374 -33.5370 -33.5370 -33.1570 -33.1570 -32.9655 -32.9655
    15.5102  15.5102  17.1060  17.1060  19.9829  19.9829  20.1121  20.1122
    20.2331  20.2331  22.9824  22.9824

     occupation numbers 
     1.0000   1.0000   1.0000   1.0000   1.0000   1.0000   1.0000   1.0000
     1.0000   1.0000   1.0000   1.0000   1.0000   1.0000   1.0000   1.0000
     1.0000   1.0000   0.0000   0.0000

          k = 0.2000 0.2000 0.2000 (  2325 PWs)   bands (ev):

   -67.2044 -67.0895 -33.3886 -33.3886 -33.2497 -33.1376 -32.9947 -32.9947
    14.1816  16.4614  16.4614  17.7769  17.7769  18.3422  19.8206  19.8206
    20.2316  20.7194  20.7194  29.2816

     occupation numbers 
     1.0000   1.0000   1.0000   1.0000   1.0000   1.0000   1.0000   1.0000
     1.0000   1.0000   1.0000   1.0000   1.0000   1.0000   1.0000   1.0000
     1.0000   1.0000   1.0000   0.0000

          k = 0.2000 0.2000 0.3000 (  2319 PWs)   bands (ev):

   -67.1860 -67.1024 -33.4270 -33.3328 -33.3207 -33.0876 -33.0465 -32.9895
    14.9644  16.6979  16.7746  17.6056  17.6644  17.8990  19.7149  20.0113
    20.1998  20.8327  20.8571  26.8851

     occupation numbers 
     1.0000   1.0000   1.0000   1.0000   1.0000   1.0000   1.0000   1.0000
     1.0000   1.0000   1.0000   1.0000   1.0000   1.0000   1.0000   1.0000
     1.0000   1.0000   1.0000   0.0000

          k = 0.2000 0.2000 0.4000 (  2303 PWs)   bands (ev):

   -67.1639 -67.1200 -33.4415 -33.3841 -33.2633 -33.1127 -33.0465 -32.9966
    15.7046  16.6318  16.9615  17.4171  17.8270  17.9542  19.6242  19.8158
    20.2186  20.7170  21.6344  24.5932

     occupation numbers 
     1.0000   1.0000   1.0000   1.0000   1.0000   1.0000   1.0000   1.0000
     1.0000   1.0000   1.0000   1.0000   1.0000   1.0000   1.0000   1.0000
     1.0000   1.0000   0.0000   0.0000

          k = 0.2000 0.2000-0.5000 (  2314 PWs)   bands (ev):

   -67.1411 -67.1411 -33.4269 -33.4268 -33.1874 -33.1874 -33.0158 -33.0158
    16.2336  16.2336  17.2067  17.2067  18.0361  18.0361  19.6310  19.6310
    20.4646  20.4647  22.8106  22.8107

     occupation numbers 
     1.0000   1.0000   1.0000   1.0000   1.0000   1.0000   1.0000   1.0000
     1.0000   1.0000   1.0000   1.0000   1.0000   1.0000   1.0000   1.0000
     1.0000   1.0000   0.0000   0.0000

          k = 0.2000 0.3000 0.3000 (  2309 PWs)   bands (ev):

   -67.1718 -67.1111 -33.4379 -33.3775 -33.3183 -33.0707 -33.0487 -33.0003
    15.5832  16.6421  17.3125  17.3963  17.4951  17.6253  19.8571  19.9933
    20.0772  20.7532  21.5833  26.9911

     occupation numbers 
     1.0000   1.0000   1.0000   1.0000   1.0000   1.0000   1.0000   1.0000
     1.0000   1.0000   1.0000   1.0000   1.0000   1.0000   1.0000   1.0000
     1.0000   1.0000   0.0000   0.0000

          k = 0.2000 0.3000 0.4000 (  2317 PWs)   bands (ev):

   -67.1551 -67.1232 -33.4575 -33.4266 -33.2609 -33.1250 -33.0219 -33.0013
    15.9847  16.4257  17.2780  17.2814  17.8930  17.9288  19.8457  19.9018
    20.1410  20.6507  22.4309  25.3087

     occupation numbers 
     1.0000   1.0000   1.0000   1.0000   1.0000   1.0000   1.0000   1.0000
     1.0000   1.0000   1.0000   1.0000   1.0000   1.0000   1.0000   1.0000
     1.0000   1.0000   0.0000   0.0000

          k = 0.2000 0.3000-0.5000 (  2326 PWs)   bands (ev):

   -67.1383 -67.1383 -33.4553 -33.4553 -33.1921 -33.1921 -33.0068 -33.0068
    16.2009  16.2009  17.2392  17.2392  18.1456  18.1456  19.8444  19.8444
    20.3890  20.3891  23.6222  23.6222

     occupation numbers 
     1.0000   1.0000   1.0000   1.0000   1.0000   1.0000   1.0000   1.0000
     1.0000   1.0000   1.0000   1.0000   1.0000   1.0000   1.0000   1.0000
     1.0000   1.0000   0.0000   0.0000

          k = 0.2000 0.4000 0.4000 (  2313 PWs)   bands (ev):

   -67.1453 -67.1285 -33.4777 -33.4635 -33.2283 -33.1486 -33.0094 -33.0048
    16.0105  16.1665  17.1452  17.2296  18.3877  18.5170  19.9481  19.9806
    20.0911  20.5386  23.2883  25.2750

     occupation numbers 
     1.0000   1.0000   1.0000   1.0000   1.0000   1.0000   1.0000   1.0000
     1.0000   1.0000   1.0000   1.0000   1.0000   1.0000   1.0000   1.0000
     1.0000   1.0000   0.0000   0.0000

          k = 0.2000 0.4000-0.5000 (  2328 PWs)   bands (ev):

   -67.1360 -67.1360 -33.4820 -33.4820 -33.1858 -33.1858 -33.0057 -33.0057
    16.0292  16.0292  17.1264  17.1264  18.7693  18.7693  19.9898  19.9898
    20.2619  20.2620  24.3084  24.3084

     occupation numbers 
     1.0000   1.0000   1.0000   1.0000   1.0000   1.0000   1.0000   1.0000
     1.0000   1.0000   1.0000   1.0000   1.0000   1.0000   1.0000   1.0000
     1.0000   1.0000   0.0000   0.0000

          k = 0.2000-0.5000-0.5000 (  2332 PWs)   bands (ev):

   -67.1352 -67.1351 -33.4928 -33.4928 -33.1816 -33.1816 -33.0066 -33.0066
    15.9571  15.9571  17.0583  17.0583  19.1739  19.1739  20.0372  20.0373
    20.1233  20.1234  24.6178  24.6178

     occupation numbers 
     1.0000   1.0000   1.0000   1.0000   1.0000   1.0000   1.0000   1.0000
     1.0000   1.0000   1.0000   1.0000   1.0000   1.0000   1.0000   1.0000
     1.0000   1.0000   0.0000   0.0000

          k = 0.3000 0.3000 0.3000 (  2317 PWs)   bands (ev):

   -67.1607 -67.1166 -33.4060 -33.3761 -33.3761 -33.0581 -33.0581 -33.0287
    16.2963  16.9865  17.2715  17.2715  17.2742  17.2742  19.9813  19.9813
    20.3203  20.3203  22.4701  28.4840

     occupation numbers 
     1.0000   1.0000   1.0000   1.0000   1.0000   1.0000   1.0000   1.0000
     1.0000   1.0000   1.0000   1.0000   1.0000   1.0000   1.0000   1.0000
     1.0000   1.0000   0.0000   0.0000

          k = 0.3000 0.3000 0.4000 (  2335 PWs)   bands (ev):

   -67.1480 -67.1248 -33.4293 -33.4176 -33.2992 -33.1319 -33.0425 -33.0229
    16.5660  16.6977  17.1873  17.2144  17.5338  17.7573  19.9641  20.0690
    20.1112  20.3624  23.4716  26.5153

     occupation numbers 
     1.0000   1.0000   1.0000   1.0000   1.0000   1.0000   1.0000   1.0000
     1.0000   1.0000   1.0000   1.0000   1.0000   1.0000   1.0000   1.0000
     1.0000   1.0000   0.0000   0.0000

          k = 0.3000 0.3000-0.5000 (  2344 PWs)   bands (ev):

   -67.1355 -67.1355 -33.4354 -33.4354 -33.2149 -33.2149 -33.0290 -33.0290
    16.5612  16.5612  17.1716  17.1716  17.9007  17.9008  19.9735  19.9736
    20.2505  20.2506  24.7725  24.7725

     occupation numbers 
     1.0000   1.0000   1.0000   1.0000   1.0000   1.0000   1.0000   1.0000
     1.0000   1.0000   1.0000   1.0000   1.0000   1.0000   1.0000   1.0000
     1.0000   1.0000   0.0000   0.0000

          k = 0.3000 0.4000 0.4000 (  2327 PWs)   bands (ev):

   -67.1402 -67.1280 -33.4316 -33.4111 -33.2799 -33.1571 -33.0675 -33.0367
    16.6025  16.6749  17.0906  17.2339  17.8193  17.9571  20.0532  20.0886
    20.1048  20.2603  24.5766  26.9638

     occupation numbers 
     1.0000   1.0000   1.0000   1.0000   1.0000   1.0000   1.0000   1.0000
     1.0000   1.0000   1.0000   1.0000   1.0000   1.0000   1.0000   1.0000
     1.0000   1.0000   0.0000   0.0000

          k = 0.3000 0.4000-0.5000 (  2328 PWs)   bands (ev):

   -67.1333 -67.1332 -33.4258 -33.4258 -33.2173 -33.2173 -33.0566 -33.0566
    16.5817  16.5817  17.1118  17.1118  18.1187  18.1187  20.0694  20.0695
    20.1738  20.1739  25.8373  25.8373

     occupation numbers 
     1.0000   1.0000   1.0000   1.0000   1.0000   1.0000   1.0000   1.0000
     1.0000   1.0000   1.0000   1.0000   1.0000   1.0000   1.0000   1.0000
     1.0000   1.0000   0.0000   0.0000

          k = 0.3000-0.5000-0.5000 (  2324 PWs)   bands (ev):

   -67.1324 -67.1324 -33.4245 -33.4245 -33.2119 -33.2119 -33.0711 -33.0711
    16.5579  16.5579  17.0360  17.0360  18.3335  18.3335  20.0990  20.0990
    20.1370  20.1371  26.4108  26.4108

     occupation numbers 
     1.0000   1.0000   1.0000   1.0000   1.0000   1.0000   1.0000   1.0000
     1.0000   1.0000   1.0000   1.0000   1.0000   1.0000   1.0000   1.0000
     1.0000   1.0000   0.0000   0.0000

          k = 0.4000 0.4000 0.4000 (  2338 PWs)   bands (ev):

   -67.1351 -67.1287 -33.3992 -33.3281 -33.3281 -33.1474 -33.1474 -33.0754
    16.7630  17.1112  17.1112  17.5013  17.5465  17.5465  20.1145  20.1145
    20.1568  20.1568  25.9016  28.8195

     occupation numbers 
     1.0000   1.0000   1.0000   1.0000   1.0000   1.0000   1.0000   1.0000
     1.0000   1.0000   1.0000   1.0000   1.0000   1.0000   1.0000   1.0000
     1.0000   1.0000   0.0000   0.0000

          k = 0.4000 0.4000-0.5000 (  2336 PWs)   bands (ev):

   -67.1310 -67.1310 -33.3669 -33.3669 -33.2372 -33.2372 -33.1167 -33.1167
    16.9036  16.9036  17.2561  17.2562  17.7012  17.7012  20.1250  20.1251
    20.1522  20.1523  27.3422  27.3422

     occupation numbers 
     1.0000   1.0000   1.0000   1.0000   1.0000   1.0000   1.0000   1.0000
     1.0000   1.0000   1.0000   1.0000   1.0000   1.0000   1.0000   1.0000
     1.0000   1.0000   0.0000   0.0000

          k = 0.4000-0.5000-0.5000 (  2312 PWs)   bands (ev):

   -67.1302 -67.1301 -33.3392 -33.3392 -33.2364 -33.2363 -33.1533 -33.1533
    17.0945  17.0945  17.1022  17.1022  17.7168  17.7168  20.1403  20.1404
    20.1482  20.1483  28.3410  28.3410

     occupation numbers 
     1.0000   1.0000   1.0000   1.0000   1.0000   1.0000   1.0000   1.0000
     1.0000   1.0000   1.0000   1.0000   1.0000   1.0000   1.0000   1.0000
     1.0000   1.0000   0.0000   0.0000

          k =-0.5000-0.5000-0.5000 (  2320 PWs)   bands (ev):

   -67.1293 -67.1293 -33.2457 -33.2457 -33.2457 -33.2457 -33.2457 -33.2457
    17.3147  17.3147  17.3147  17.3147  17.3147  17.3147  20.1525  20.1525
    20.1526  20.1526  30.3885  30.3885

     occupation numbers 
     1.0000   1.0000   1.0000   1.0000   1.0000   1.0000   1.0000   1.0000
     1.0000   1.0000   1.0000   1.0000   1.0000   1.0000   1.0000   1.0000
     1.0000   1.0000   0.0000   0.0000

 ------ SPIN DOWN ----------


          k = 0.0000 0.0000 0.0000 (  2325 PWs)   bands (ev):

   -64.8486 -64.6156 -31.0310 -31.0310 -31.0310 -30.5683 -30.5683 -30.5683
    11.9182  17.0614  17.0614  20.1264  20.1264  20.1264  22.5134  22.5134
    23.2810  23.2810  23.2810  31.8772

     occupation numbers 
     1.0000   1.0000   1.0000   1.0000   1.0000   1.0000   1.0000   1.0000
     1.0000   1.0000   1.0000   1.0000   1.0000   1.0000   0.0000   0.0000
     0.0000   0.0000   0.0000   0.0000

          k = 0.0000 0.0000 0.1000 (  2333 PWs)   bands (ev):

   -64.8420 -64.6204 -31.0305 -31.0190 -31.0190 -30.5907 -30.5789 -30.5789
    12.1471  17.1565  17.1796  20.1160  20.1160  20.1982  22.3674  22.5683
    23.0168  23.0168  23.1982  30.7148

     occupation numbers 
     1.0000   1.0000   1.0000   1.0000   1.0000   1.0000   1.0000   1.0000
     1.0000   1.0000   1.0000   1.0000   1.0000   1.0000   0.0000   0.0000
     0.0000   0.0000   0.0000   0.0000

          k = 0.0000 0.0000 0.2000 (  2301 PWs)   bands (ev):

   -64.8232 -64.6346 -31.0258 -30.9844 -30.9844 -30.6525 -30.6099 -30.6099
    12.8129  17.3768  17.5270  20.1041  20.1041  20.4080  21.9455  22.3900
    22.3900  22.7190  22.9593  28.4494

     occupation numbers 
     1.0000   1.0000   1.0000   1.0000   1.0000   1.0000   1.0000   1.0000
     1.0000   1.0000   1.0000   1.0000   1.0000   1.0000   0.0000   0.0000
     0.0000   0.0000   0.0000   0.0000

          k = 0.0000 0.0000 0.3000 (  2316 PWs)   bands (ev):

   -64.7945 -64.6575 -31.0096 -30.9310 -30.9310 -30.7390 -30.6588 -30.6588
    13.8486  17.5172  18.0810  20.1396  20.1396  20.7391  21.2955  21.6750
    21.6750  22.5922  22.9332  26.2353

     occupation numbers 
     1.0000   1.0000   1.0000   1.0000   1.0000   1.0000   1.0000   1.0000
     1.0000   1.0000   1.0000   1.0000   1.0000   1.0000   0.0000   0.0000
     0.0000   0.0000   0.0000   0.0000

          k = 0.0000 0.0000 0.4000 (  2316 PWs)   bands (ev):

   -64.7597 -64.6876 -30.9736 -30.8646 -30.8646 -30.8316 -30.7215 -30.7215
    15.1204  17.2517  18.8023  20.2807  20.2807  20.4939  21.0449  21.0449
    21.1640  22.1381  23.2044  24.5781

     occupation numbers 
     1.0000   1.0000   1.0000   1.0000   1.0000   1.0000   1.0000   1.0000
     1.0000   1.0000   1.0000   1.0000   1.0000   1.0000   0.0013   0.0013
     0.0000   0.0000   0.0000   0.0000

          k = 0.0000 0.0000-0.5000 (  2360 PWs)   bands (ev):

   -64.7228 -64.7227 -30.9134 -30.9134 -30.7924 -30.7924 -30.7924 -30.7924
    16.3795  16.3795  19.6324  19.6324  20.5749  20.5749  20.5749  20.5749
    21.6454  21.6455  23.6489  23.6489

     occupation numbers 
     1.0000   1.0000   1.0000   1.0000   1.0000   1.0000   1.0000   1.0000
     1.0000   1.0000   1.0000   1.0000   1.0000   1.0000   1.0000   1.0000
     0.0000   0.0000   0.0000   0.0000

          k = 0.0000 0.1000 0.1000 (  2323 PWs)   bands (ev):

   -64.8357 -64.6249 -31.0499 -31.0075 -30.9880 -30.6329 -30.5889 -30.5685
    12.3718  17.2710  17.2735  19.9697  20.0913  20.4054  22.3487  22.5254
    22.6026  22.7590  23.3147  30.8515

     occupation numbers 
     1.0000   1.0000   1.0000   1.0000   1.0000   1.0000   1.0000   1.0000
     1.0000   1.0000   1.0000   1.0000   1.0000   1.0000   0.0000   0.0000
     0.0000   0.0000   0.0000   0.0000

          k = 0.0000 0.1000 0.2000 (  2323 PWs)   bands (ev):

   -64.8176 -64.6383 -31.0616 -30.9744 -30.9399 -30.7082 -30.6183 -30.5823
    13.0241  17.4885  17.6039  19.8525  20.0394  20.7178  21.9277  22.0308
    22.1684  22.6544  23.2234  28.7536

     occupation numbers 
     1.0000   1.0000   1.0000   1.0000   1.0000   1.0000   1.0000   1.0000
     1.0000   1.0000   1.0000   1.0000   1.0000   1.0000   0.0000   0.0000
     0.0000   0.0000   0.0000   0.0000

          k = 0.0000 0.1000 0.3000 (  2317 PWs)   bands (ev):

   -64.7902 -64.6599 -31.0563 -30.9234 -30.8801 -30.8004 -30.6646 -30.6200
    14.0337  17.6148  18.1205  19.8236  19.9937  21.1056  21.2265  21.5119
    21.5593  22.8807  22.9335  26.4814

     occupation numbers 
     1.0000   1.0000   1.0000   1.0000   1.0000   1.0000   1.0000   1.0000
     1.0000   1.0000   1.0000   1.0000   1.0000   0.0000   0.0000   0.0000
     0.0000   0.0000   0.0000   0.0000

          k = 0.0000 0.1000 0.4000 (  2326 PWs)   bands (ev):

   -64.7570 -64.6884 -31.0279 -30.8937 -30.8602 -30.8122 -30.7241 -30.6753
    15.2635  17.3278  18.7686  19.8834  19.9225  20.6244  21.0184  21.1323
    21.5564  22.5184  23.1686  24.7118

     occupation numbers 
     1.0000   1.0000   1.0000   1.0000   1.0000   1.0000   1.0000   1.0000
     1.0000   1.0000   1.0000   1.0000   1.0000   1.0000   0.3958   0.0000
     0.0000   0.0000   0.0000   0.0000

          k = 0.0000 0.1000-0.5000 (  2322 PWs)   bands (ev):

   -64.7218 -64.7218 -30.9728 -30.9728 -30.7914 -30.7914 -30.7417 -30.7417
    16.4731  16.4731  19.4396  19.4396  20.1843  20.1843  20.9120  20.9120
    22.0415  22.0415  23.6656  23.6657

     occupation numbers 
     1.0000   1.0000   1.0000   1.0000   1.0000   1.0000   1.0000   1.0000
     1.0000   1.0000   1.0000   1.0000   1.0000   1.0000   1.0000   1.0000
[...]
    14.2205  17.7351  18.1440  19.7104  19.7600  20.7090  21.4152  21.6629
    21.8115  22.8371  22.9528  26.7614

     occupation numbers 
     1.0000   1.0000   1.0000   1.0000   1.0000   1.0000   1.0000   1.0000
     1.0000   1.0000   1.0000   1.0000   1.0000   1.0000   0.0000   0.0000
     0.0000   0.0000   0.0000   0.0000

          k = 0.1000 0.1000 0.4000 (  2321 PWs)   bands (ev):

   -64.7543 -64.6891 -31.0508 -30.9298 -30.8770 -30.7706 -30.7281 -30.6532
    15.4134  17.4265  18.7107  19.6002  19.8054  20.3138  21.2323  21.3037
    21.8859  22.6530  23.1465  24.9078

     occupation numbers 
     1.0000   1.0000   1.0000   1.0000   1.0000   1.0000   1.0000   1.0000
     1.0000   1.0000   1.0000   1.0000   1.0000   1.0000   0.0000   0.0000
     0.0000   0.0000   0.0000   0.0000

          k = 0.1000 0.1000-0.5000 (  2316 PWs)   bands (ev):

   -64.7208 -64.7208 -31.0034 -31.0034 -30.8019 -30.8018 -30.7086 -30.7086
    16.5808  16.5808  19.2522  19.2522  20.0341  20.0341  21.0750  21.0750
    22.3087  22.3087  23.7290  23.7291

     occupation numbers 
     1.0000   1.0000   1.0000   1.0000   1.0000   1.0000   1.0000   1.0000
     1.0000   1.0000   1.0000   1.0000   1.0000   1.0000   0.0000   0.0000
     0.0000   0.0000   0.0000   0.0000

          k = 0.1000 0.2000 0.2000 (  2315 PWs)   bands (ev):

   -64.7972 -64.6520 -31.0855 -30.9883 -30.8320 -30.8295 -30.6322 -30.5812
    13.8350  17.8070  17.9566  19.5197  19.7000  20.6049  21.4553  22.1944
    22.1977  22.5294  23.1584  29.2040

     occupation numbers 
     1.0000   1.0000   1.0000   1.0000   1.0000   1.0000   1.0000   1.0000
     1.0000   1.0000   1.0000   1.0000   1.0000   1.0000   0.0000   0.0000
     0.0000   0.0000   0.0000   0.0000

          k = 0.1000 0.2000 0.3000 (  2320 PWs)   bands (ev):

   -64.7744 -64.6689 -31.1073 -30.9395 -30.9221 -30.7695 -30.6767 -30.5908
    14.7415  17.8541  18.3733  19.3440  19.5746  20.0646  21.7635  21.9566
    22.0112  22.7246  23.1296  27.2747

     occupation numbers 
     1.0000   1.0000   1.0000   1.0000   1.0000   1.0000   1.0000   1.0000
     1.0000   1.0000   1.0000   1.0000   1.0000   1.0000   0.0000   0.0000
     0.0000   0.0000   0.0000   0.0000

          k = 0.1000 0.2000 0.4000 (  2317 PWs)   bands (ev):

   -64.7470 -64.6915 -31.1049 -31.0075 -30.8750 -30.7362 -30.7106 -30.6175
    15.7941  17.5105  18.7890  19.2619  19.5319  19.7959  21.5428  21.7033
    22.4623  22.9458  23.0997  25.3215

     occupation numbers 
     1.0000   1.0000   1.0000   1.0000   1.0000   1.0000   1.0000   1.0000
     1.0000   1.0000   1.0000   1.0000   1.0000   1.0000   0.0000   0.0000
     0.0000   0.0000   0.0000   0.0000

          k = 0.1000 0.2000-0.5000 (  2306 PWs)   bands (ev):

   -64.7183 -64.7183 -31.0713 -31.0713 -30.8047 -30.8046 -30.6587 -30.6587
    16.7780  16.7780  19.1076  19.1076  19.6292  19.6292  21.5429  21.5429
    22.7269  22.7269  23.9184  23.9184

     occupation numbers 
     1.0000   1.0000   1.0000   1.0000   1.0000   1.0000   1.0000   1.0000
     1.0000   1.0000   1.0000   1.0000   1.0000   1.0000   0.0000   0.0000
     0.0000   0.0000   0.0000   0.0000

          k = 0.1000 0.3000 0.3000 (  2317 PWs)   bands (ev):

   -64.7569 -64.6802 -31.1446 -31.0123 -30.9036 -30.7094 -30.7068 -30.5833
    15.4711  17.6700  18.9014  19.0588  19.5319  19.5583  21.6912  22.2030
    22.5896  22.6622  23.2564  26.9945

     occupation numbers 
     1.0000   1.0000   1.0000   1.0000   1.0000   1.0000   1.0000   1.0000
     1.0000   1.0000   1.0000   1.0000   1.0000   1.0000   0.0000   0.0000
     0.0000   0.0000   0.0000   0.0000

          k = 0.1000 0.3000 0.4000 (  2310 PWs)   bands (ev):

   -64.7363 -64.6959 -31.1593 -31.0901 -30.8539 -30.7492 -30.6582 -30.5929
    16.2122  17.3001  18.9287  19.1390  19.4994  19.6733  21.8118  22.1326
    22.7840  23.1809  23.2599  25.5406

     occupation numbers 
     1.0000   1.0000   1.0000   1.0000   1.0000   1.0000   1.0000   1.0000
     1.0000   1.0000   1.0000   1.0000   1.0000   1.0000   0.0000   0.0000
     0.0000   0.0000   0.0000   0.0000

          k = 0.1000 0.3000-0.5000 (  2304 PWs)   bands (ev):

   -64.7152 -64.7151 -31.1415 -31.1415 -30.8000 -30.8000 -30.6186 -30.6186
    16.8198  16.8198  18.9629  18.9629  19.7534  19.7534  21.9975  21.9975
    22.9676  22.9676  24.1690  24.1690

     occupation numbers 
     1.0000   1.0000   1.0000   1.0000   1.0000   1.0000   1.0000   1.0000
     1.0000   1.0000   1.0000   1.0000   1.0000   1.0000   0.0000   0.0000
     0.0000   0.0000   0.0000   0.0000

          k = 0.1000 0.4000 0.4000 (  2317 PWs)   bands (ev):

   -64.7242 -64.7030 -31.1922 -31.1561 -30.8247 -30.7687 -30.6187 -30.5850
    16.5080  16.9938  18.7182  18.8706  20.1131  20.2085  22.0926  22.3384
    22.7806  23.1950  23.7374  25.1140

     occupation numbers 
     1.0000   1.0000   1.0000   1.0000   1.0000   1.0000   1.0000   1.0000
     1.0000   1.0000   1.0000   1.0000   1.0000   1.0000   0.0000   0.0000
     0.0000   0.0000   0.0000   0.0000

          k = 0.1000 0.4000-0.5000 (  2310 PWs)   bands (ev):

   -64.7126 -64.7126 -31.1921 -31.1921 -30.7947 -30.7947 -30.5939 -30.5939
    16.7334  16.7334  18.6957  18.6957  20.5071  20.5071  22.2968  22.2968
    22.9527  22.9527  24.3306  24.3306

     occupation numbers 
     1.0000   1.0000   1.0000   1.0000   1.0000   1.0000   1.0000   1.0000
     1.0000   1.0000   1.0000   1.0000   1.0000   1.0000   0.0000   0.0000
     0.0000   0.0000   0.0000   0.0000

          k = 0.1000-0.5000-0.5000 (  2332 PWs)   bands (ev):

   -64.7117 -64.7116 -31.2103 -31.2103 -30.7925 -30.7925 -30.5857 -30.5857
    16.6849  16.6849  18.5940  18.5940  20.9760  20.9760  22.3980  22.3980
    22.8305  22.8306  24.3686  24.3686

     occupation numbers 
     1.0000   1.0000   1.0000   1.0000   1.0000   1.0000   1.0000   1.0000
     1.0000   1.0000   1.0000   1.0000   1.0000   1.0000   0.0000   0.0000
     0.0000   0.0000   0.0000   0.0000

          k = 0.2000 0.2000 0.2000 (  2325 PWs)   bands (ev):

   -64.7839 -64.6604 -31.0461 -31.0461 -30.8963 -30.7718 -30.6170 -30.6170
    14.4158  18.1250  18.1250  19.3751  19.3751  19.8472  22.0010  22.3986
    22.3986  22.6354  22.6354  30.2692

     occupation numbers 
     1.0000   1.0000   1.0000   1.0000   1.0000   1.0000   1.0000   1.0000
     1.0000   1.0000   1.0000   1.0000   1.0000   1.0000   0.0000   0.0000
     0.0000   0.0000   0.0000   0.0000

          k = 0.2000 0.2000 0.3000 (  2319 PWs)   bands (ev):

   -64.7640 -64.6743 -31.0887 -30.9852 -30.9739 -30.7176 -30.6733 -30.6115
    15.2748  18.2505  18.3598  19.1895  19.1927  19.4193  22.1450  22.1963
    22.5723  22.6981  22.8246  28.0532

     occupation numbers 
     1.0000   1.0000   1.0000   1.0000   1.0000   1.0000   1.0000   1.0000
     1.0000   1.0000   1.0000   1.0000   1.0000   1.0000   0.0000   0.0000
     0.0000   0.0000   0.0000   0.0000

          k = 0.2000 0.2000 0.4000 (  2303 PWs)   bands (ev):

   -64.7403 -64.6931 -31.1052 -31.0431 -30.9094 -30.7454 -30.6731 -30.6191
    16.2348  17.7960  18.6035  19.0020  19.2395  19.4836  21.8590  21.9726
    22.7637  22.8364  23.4325  26.0201

     occupation numbers 
     1.0000   1.0000   1.0000   1.0000   1.0000   1.0000   1.0000   1.0000
     1.0000   1.0000   1.0000   1.0000   1.0000   1.0000   0.0000   0.0000
     0.0000   0.0000   0.0000   0.0000

          k = 0.2000 0.2000-0.5000 (  2314 PWs)   bands (ev):

   -64.7158 -64.7158 -31.0897 -31.0897 -30.8267 -30.8267 -30.6399 -30.6399
    17.0977  17.0977  18.8154  18.8154  19.4328  19.4328  21.8223  21.8223
    22.8120  22.8120  24.4905  24.4905

     occupation numbers 
     1.0000   1.0000   1.0000   1.0000   1.0000   1.0000   1.0000   1.0000
     1.0000   1.0000   1.0000   1.0000   1.0000   1.0000   0.0000   0.0000
     0.0000   0.0000   0.0000   0.0000

          k = 0.2000 0.3000 0.3000 (  2309 PWs)   bands (ev):

   -64.7487 -64.6835 -31.1010 -31.0359 -30.9696 -30.6997 -30.6754 -30.6233
    16.0140  18.0910  18.8418  18.9156  18.9969  19.0758  22.1493  22.3645
    22.6378  22.8175  23.3119  28.1262

     occupation numbers 
     1.0000   1.0000   1.0000   1.0000   1.0000   1.0000   1.0000   1.0000
     1.0000   1.0000   1.0000   1.0000   1.0000   1.0000   0.0000   0.0000
     0.0000   0.0000   0.0000   0.0000

          k = 0.2000 0.3000 0.4000 (  2317 PWs)   bands (ev):

   -64.7308 -64.6965 -31.1228 -31.0896 -30.9070 -30.7587 -30.6464 -30.6245
    16.7263  17.6978  18.7752  18.7806  19.1690  19.3135  22.1137  22.2883
    22.7809  22.8611  24.0828  26.6002

     occupation numbers 
     1.0000   1.0000   1.0000   1.0000   1.0000   1.0000   1.0000   1.0000
     1.0000   1.0000   1.0000   1.0000   1.0000   1.0000   0.0000   0.0000
     0.0000   0.0000   0.0000   0.0000

          k = 0.2000 0.3000-0.5000 (  2326 PWs)   bands (ev):

   -64.7127 -64.7127 -31.1207 -31.1207 -30.8319 -30.8319 -30.6303 -30.6302
    17.2590  17.2590  18.7313  18.7313  19.3828  19.3828  22.1750  22.1750
    22.8519  22.8520  25.1256  25.1257

     occupation numbers 
     1.0000   1.0000   1.0000   1.0000   1.0000   1.0000   1.0000   1.0000
     1.0000   1.0000   1.0000   1.0000   1.0000   1.0000   0.0000   0.0000
     0.0000   0.0000   0.0000   0.0000

          k = 0.2000 0.4000 0.4000 (  2313 PWs)   bands (ev):

   -64.7201 -64.7021 -31.1452 -31.1299 -30.8713 -30.7842 -30.6331 -30.6285
    17.0237  17.4152  18.6070  18.6915  19.5221  19.6751  22.3075  22.4580
    22.7908  22.8862  24.7847  26.4562

     occupation numbers 
     1.0000   1.0000   1.0000   1.0000   1.0000   1.0000   1.0000   1.0000
     1.0000   1.0000   1.0000   1.0000   1.0000   1.0000   0.0000   0.0000
     0.0000   0.0000   0.0000   0.0000

          k = 0.2000 0.4000-0.5000 (  2328 PWs)   bands (ev):

   -64.7102 -64.7101 -31.1502 -31.1502 -30.8248 -30.8248 -30.6294 -30.6294
    17.1978  17.1978  18.5772  18.5772  19.8397  19.8397  22.4303  22.4303
    22.8523  22.8523  25.6067  25.6067

     occupation numbers 
     1.0000   1.0000   1.0000   1.0000   1.0000   1.0000   1.0000   1.0000
     1.0000   1.0000   1.0000   1.0000   1.0000   1.0000   0.0000   0.0000
     0.0000   0.0000   0.0000   0.0000

          k = 0.2000-0.5000-0.5000 (  2332 PWs)   bands (ev):

   -64.7092 -64.7092 -31.1620 -31.1620 -30.8200 -30.8200 -30.6305 -30.6305
    17.1499  17.1499  18.4995  18.4995  20.1251  20.1251  22.5130  22.5130
    22.8449  22.8449  25.7890  25.7890

     occupation numbers 
     1.0000   1.0000   1.0000   1.0000   1.0000   1.0000   1.0000   1.0000
     1.0000   1.0000   1.0000   1.0000   1.0000   1.0000   0.0000   0.0000
     0.0000   0.0000   0.0000   0.0000

          k = 0.3000 0.3000 0.3000 (  2317 PWs)   bands (ev):

   -64.7368 -64.6893 -31.0669 -31.0335 -31.0335 -30.6863 -30.6863 -30.6537
    16.7551  18.3496  18.7434  18.7434  18.7499  18.7499  22.5143  22.5143
    22.5839  22.5839  24.1256  29.5588

     occupation numbers 
     1.0000   1.0000   1.0000   1.0000   1.0000   1.0000   1.0000   1.0000
     1.0000   1.0000   1.0000   1.0000   1.0000   1.0000   0.0000   0.0000
     0.0000   0.0000   0.0000   0.0000

          k = 0.3000 0.3000 0.4000 (  2335 PWs)   bands (ev):

   -64.7230 -64.6981 -31.0923 -31.0793 -30.9494 -30.7668 -30.6695 -30.6476
    17.3778  17.9831  18.6276  18.6414  18.7780  19.0873  22.4017  22.5032
    22.7332  22.7697  25.0052  27.7033

     occupation numbers 
     1.0000   1.0000   1.0000   1.0000   1.0000   1.0000   1.0000   1.0000
     1.0000   1.0000   1.0000   1.0000   1.0000   1.0000   0.0000   0.0000
     0.0000   0.0000   0.0000   0.0000

          k = 0.3000 0.3000-0.5000 (  2344 PWs)   bands (ev):

   -64.7096 -64.7096 -31.0990 -31.0990 -30.8574 -30.8574 -30.6545 -30.6545
    17.6975  17.6976  18.5905  18.5906  19.0690  19.0691  22.4235  22.4235
    22.8240  22.8240  26.1357  26.1357

     occupation numbers 
     1.0000   1.0000   1.0000   1.0000   1.0000   1.0000   1.0000   1.0000
     1.0000   1.0000   1.0000   1.0000   1.0000   1.0000   0.0000   0.0000
     0.0000   0.0000   0.0000   0.0000

          k = 0.3000 0.4000 0.4000 (  2327 PWs)   bands (ev):

   -64.7146 -64.7015 -31.0949 -31.0724 -30.9285 -30.7943 -30.6969 -30.6629
    17.7401  17.8808  18.4933  18.6027  18.8966  19.1829  22.5562  22.6320
    22.7754  22.7969  25.9519  28.0359

     occupation numbers 
     1.0000   1.0000   1.0000   1.0000   1.0000   1.0000   1.0000   1.0000
     1.0000   1.0000   1.0000   1.0000   1.0000   1.0000   0.0000   0.0000
     0.0000   0.0000   0.0000   0.0000

          k = 0.3000 0.4000-0.5000 (  2328 PWs)   bands (ev):

   -64.7072 -64.7071 -31.0886 -31.0886 -30.8600 -30.8599 -30.6850 -30.6850
    17.7914  17.7914  18.4867  18.4867  19.2116  19.2117  22.6151  22.6151
    22.8374  22.8374  27.0230  27.0230

     occupation numbers 
     1.0000   1.0000   1.0000   1.0000   1.0000   1.0000   1.0000   1.0000
     1.0000   1.0000   1.0000   1.0000   1.0000   1.0000   0.0000   0.0000
     0.0000   0.0000   0.0000   0.0000

          k = 0.3000-0.5000-0.5000 (  2324 PWs)   bands (ev):

   -64.7062 -64.7062 -31.0872 -31.0872 -30.8539 -30.8539 -30.7010 -30.7010
    17.7706  17.7707  18.4111  18.4111  19.3951  19.3951  22.6715  22.6715
    22.8627  22.8627  27.4606  27.4606

     occupation numbers 
     1.0000   1.0000   1.0000   1.0000   1.0000   1.0000   1.0000   1.0000
     1.0000   1.0000   1.0000   1.0000   1.0000   1.0000   0.0000   0.0000
     0.0000   0.0000   0.0000   0.0000

          k = 0.4000 0.4000 0.4000 (  2338 PWs)   bands (ev):

   -64.7091 -64.7022 -31.0594 -30.9816 -30.9816 -30.7842 -30.7842 -30.7053
    18.0661  18.4219  18.4500  18.4500  18.7825  18.7825  22.7589  22.7589
    22.7914  22.7914  27.1331  29.7867

     occupation numbers 
     1.0000   1.0000   1.0000   1.0000   1.0000   1.0000   1.0000   1.0000
     1.0000   1.0000   1.0000   1.0000   1.0000   1.0000   0.0000   0.0000
     0.0000   0.0000   0.0000   0.0000

          k = 0.4000 0.4000-0.5000 (  2336 PWs)   bands (ev):

   -64.7047 -64.7047 -31.0242 -31.0242 -30.8822 -30.8822 -30.7506 -30.7506
    18.1787  18.1787  18.5360  18.5360  18.8209  18.8209  22.7746  22.7746
    22.8491  22.8491  28.4098  28.4098

     occupation numbers 
     1.0000   1.0000   1.0000   1.0000   1.0000   1.0000   1.0000   1.0000
     1.0000   1.0000   1.0000   1.0000   1.0000   1.0000   0.0000   0.0000
     0.0000   0.0000   0.0000   0.0000

          k = 0.4000-0.5000-0.5000 (  2312 PWs)   bands (ev):

   -64.7038 -64.7037 -30.9939 -30.9939 -30.8813 -30.8812 -30.7908 -30.7908
    18.3175  18.3175  18.4026  18.4026  18.8629  18.8629  22.8194  22.8194
    22.8771  22.8772  29.2907  29.2907

     occupation numbers 
     1.0000   1.0000   1.0000   1.0000   1.0000   1.0000   1.0000   1.0000
     1.0000   1.0000   1.0000   1.0000   1.0000   1.0000   0.0000   0.0000
     0.0000   0.0000   0.0000   0.0000

          k =-0.5000-0.5000-0.5000 (  2320 PWs)   bands (ev):

   -64.7028 -64.7028 -30.8917 -30.8917 -30.8917 -30.8917 -30.8917 -30.8917
    18.5385  18.5385  18.5385  18.5385  18.5385  18.5385  22.8827  22.8827
    22.8827  22.8827  31.2382  31.2382

     occupation numbers 
     1.0000   1.0000   1.0000   1.0000   1.0000   1.0000   1.0000   1.0000
     1.0000   1.0000   1.0000   1.0000   1.0000   1.0000   0.0000   0.0000
     0.0000   0.0000   0.0000   0.0000

     the Fermi energy is    21.0159 ev

!    total energy              =    -658.52697102 Ry
     total all-electron energy =     -5091.120037 Ry
     estimated scf accuracy    <          3.5E-11 Ry
     smearing contrib. (-TS)   =      -0.00001908 Ry
     internal energy E=F+TS    =    -658.52695194 Ry

     The total energy is F=E-TS. E is the sum of the following terms:
     one-electron contribution =    -198.64788235 Ry
     hartree contribution      =     122.54793358 Ry
     xc contribution           =     -55.66169094 Ry
     ewald contribution        =    -361.17556637 Ry
     one-center paw contrib.   =    -165.58974585 Ry
      -> PAW hartree energy AE =     183.62803049 Ry
      -> PAW hartree energy PS =    -182.32523910 Ry
      -> PAW xc energy AE      =    -110.18780170 Ry
      -> PAW xc energy PS      =      26.09013725 Ry
      -> total E_H with PAW    =     123.85072497 Ry
      -> total E_XC with PAW   =    -139.75935540 Ry

     total magnetization       =     4.00 Bohr mag/cell
     absolute magnetization    =     4.19 Bohr mag/cell

     convergence has been achieved in  16 iterations

     Writing all to output data dir ./out/Fe.save/
 
     init_run     :      0.28s CPU      0.35s WALL (       1 calls)
     electrons    :     13.95s CPU     14.84s WALL (       1 calls)

     Called by init_run:
     wfcinit      :      0.08s CPU      0.11s WALL (       1 calls)
     potinit      :      0.11s CPU      0.14s WALL (       1 calls)
     hinit0       :      0.06s CPU      0.06s WALL (       1 calls)

     Called by electrons:
     c_bands      :     10.13s CPU     10.60s WALL (      16 calls)
     sum_band     :      1.90s CPU      1.96s WALL (      16 calls)
     v_of_rho     :      0.18s CPU      0.18s WALL (      17 calls)
     v_h          :      0.01s CPU      0.01s WALL (      17 calls)
     v_xc         :      0.17s CPU      0.17s WALL (      17 calls)
     newd         :      0.13s CPU      0.16s WALL (      17 calls)
     PAW_pot      :      1.65s CPU      1.99s WALL (      17 calls)
     mix_rho      :      0.03s CPU      0.03s WALL (      16 calls)

     Called by c_bands:
     init_us_2    :      0.12s CPU      0.12s WALL (    1792 calls)
     init_us_2:cp :      0.12s CPU      0.12s WALL (    1792 calls)
     cegterg      :      9.27s CPU      9.58s WALL (     896 calls)

     Called by sum_band:
     sum_band:wei :      0.01s CPU      0.01s WALL (      16 calls)
     sum_band:loo :      1.61s CPU      1.67s WALL (      16 calls)
     sum_band:buf :      0.01s CPU      0.01s WALL (     896 calls)
     sum_band:ini :      0.07s CPU      0.06s WALL (     896 calls)
     sum_band:cal :      0.10s CPU      0.10s WALL (     896 calls)
     sum_band:bec :      0.00s CPU      0.01s WALL (     896 calls)
     addusdens    :      0.23s CPU      0.23s WALL (      16 calls)
                                        0.00s GPU  (      16 calls)
     addusd:skk   :      0.00s CPU      0.00s WALL (      16 calls)
                                        0.00s GPU  (      16 calls)

     Called by *egterg:
     cdiaghg      :      1.39s CPU      1.42s WALL (    3069 calls)
     cegterg:over :      0.23s CPU      0.22s WALL (    2229 calls)
     cegterg:upda :      0.04s CPU      0.07s WALL (    2229 calls)
     cegterg:last :      0.12s CPU      0.13s WALL (    1888 calls)
     h_psi        :      7.16s CPU      7.41s WALL (    3125 calls)
     s_psi        :      0.11s CPU      0.09s WALL (    3125 calls)
     g_psi        :      0.03s CPU      0.02s WALL (    2229 calls)

     Called by h_psi:
     h_psi:calbec :      0.33s CPU      0.30s WALL (    3125 calls)
     vloc_psi     :      6.75s CPU      6.97s WALL (    3125 calls)
     add_vuspsi   :      0.07s CPU      0.10s WALL (    3125 calls)

     General routines
     calbec       :      0.43s CPU      0.40s WALL (    4021 calls)
     fft          :      0.10s CPU      0.10s WALL (     419 calls)
     ffts         :      0.01s CPU      0.01s WALL (      66 calls)
     fftw         :      7.74s CPU      7.65s WALL (  108908 calls)
     interpolate  :      0.01s CPU      0.01s WALL (      34 calls)
 
     Parallel routines

     PAW routines
     PAW_pot      :      1.65s CPU      1.99s WALL (      17 calls)
     PAW_symme    :      0.03s CPU      0.03s WALL (      32 calls)
 
     PWSCF        :     14.39s CPU     15.52s WALL

 
   This run was terminated on:   7:59:15  16Apr2024            

=------------------------------------------------------------------------------=
   JOB DONE.
=------------------------------------------------------------------------------=
