
     Program PWSCF v.7.2 starts on 16Apr2024 at  7:52:51 

     This program is part of the open-source Quantum ESPRESSO suite
     for quantum simulation of materials; please cite
         "P. Giannozzi et al., J. Phys.:Condens. Matter 21 395502 (2009);
         "P. Giannozzi et al., J. Phys.:Condens. Matter 29 465901 (2017);
         "P. Giannozzi et al., J. Chem. Phys. 152 154105 (2020);
          URL http://www.quantum-espresso.org", 
     in publications or presentations arising from this work. More details at
     http://www.quantum-espresso.org/quote

     Parallel version (MPI), running on    20 processors

     MPI processes distributed on     1 nodes
     360743 MiB available memory on the printing compute node when the environment starts
 
     Waiting for input...
     Reading input from standard input

     Current dimensions of program PWSCF are:
     Max number of different atomic species (ntypx) = 10
     Max number of k-points (npk) = 120000
     Max angular momentum in pseudopotentials (lmaxx) =  4
     file Fe.pbe-spn-kjpaw_psl.1.0.0.UPF: wavefunction(s)  3P 3D renormalized
     Found identity + ( -0.5000 -0.5000 -0.5000) symmetry
     This is a supercell, fractional translations are disabled
 
     K-points division:     npool     =       2
     R & G space division:  proc/nbgrp/npool/nimage =      10
     Subspace diagonalization in iterative solution of the eigenvalue problem:
     a serial algorithm will be used

 
     Parallelization info
     --------------------
     sticks:   dense  smooth     PW     G-vecs:    dense   smooth      PW
     Min         166      94     29                 5146     2210     373
     Max         168      95     30                 5149     2215     376
     Sum        1669     949    293                51483    22143    3743
 
     Using Slab Decomposition
 


     bravais-lattice index     =            1
     lattice parameter (alat)  =       5.4802  a.u.
     unit-cell volume          =     164.5851 (a.u.)^3
     number of atoms/cell      =            2
     number of atomic types    =            1
     number of electrons       =        32.00
     number of Kohn-Sham states=           20
     kinetic-energy cutoff     =     100.0000  Ry
     charge density cutoff     =     700.0000  Ry
     scf convergence threshold =      4.0E-10
     mixing beta               =       0.4000
     number of iterations used =            8  plain     mixing
     Exchange-correlation= SLA  PW   PBX  PBC
                           (   1   4   3   4   0   0   0)

     celldm(1)=   5.480206  celldm(2)=   0.000000  celldm(3)=   0.000000
     celldm(4)=   0.000000  celldm(5)=   0.000000  celldm(6)=   0.000000

     crystal axes: (cart. coord. in units of alat)
               a(1) = (   1.000000   0.000000   0.000000 )  
               a(2) = (   0.000000   1.000000   0.000000 )  
               a(3) = (   0.000000   0.000000   1.000000 )  

     reciprocal axes: (cart. coord. in units 2 pi/alat)
               b(1) = (  1.000000  0.000000  0.000000 )  
               b(2) = (  0.000000  1.000000  0.000000 )  
               b(3) = (  0.000000  0.000000  1.000000 )  


     PseudoPot. # 1 for Fe read from file:
     /truba/home/amuhaymin/ZnS/pseudo/QE/Fe.pbe-spn-kjpaw_psl.1.0.0.UPF
     MD5 check sum: fc81f059e5c5069939230b1155715ae8
     Pseudo is Projector augmented-wave + core cor, Zval = 16.0
     Generated using &quot;atomic&quot; code by A. Dal Corso  v.6.3
     Shape of augmentation charge: PSQ
     Using radial grid of 1191 points,  6 beta functions with: 
                l(1) =   0
                l(2) =   0
                l(3) =   1
                l(4) =   1
                l(5) =   2
                l(6) =   2
     Q(r) pseudized with 0 coefficients 


     atomic species   valence    mass     pseudopotential
        Fe            16.00    55.84500     Fe( 1.00)

     Starting magnetic structure 
     atomic species   magnetization
        Fe           0.312

     48 Sym. Ops., with inversion, found


                                    s                        frac. trans.

      isym =  1     identity                                     

 cryst.   s( 1) = (     1          0          0      )
                  (     0          1          0      )
                  (     0          0          1      )

 cart.    s( 1) = (  1.0000000  0.0000000  0.0000000 )
                  (  0.0000000  1.0000000  0.0000000 )
                  (  0.0000000  0.0000000  1.0000000 )


      isym =  2     180 deg rotation - cart. axis [0,0,1]        

 cryst.   s( 2) = (    -1          0          0      )
                  (     0         -1          0      )
                  (     0          0          1      )

 cart.    s( 2) = ( -1.0000000  0.0000000  0.0000000 )
                  (  0.0000000 -1.0000000  0.0000000 )
                  (  0.0000000  0.0000000  1.0000000 )


      isym =  3     180 deg rotation - cart. axis [0,1,0]        

 cryst.   s( 3) = (    -1          0          0      )
                  (     0          1          0      )
                  (     0          0         -1      )

 cart.    s( 3) = ( -1.0000000  0.0000000  0.0000000 )
                  (  0.0000000  1.0000000  0.0000000 )
                  (  0.0000000  0.0000000 -1.0000000 )


      isym =  4     180 deg rotation - cart. axis [1,0,0]        

 cryst.   s( 4) = (     1          0          0      )
                  (     0         -1          0      )
                  (     0          0         -1      )

 cart.    s( 4) = (  1.0000000  0.0000000  0.0000000 )
                  (  0.0000000 -1.0000000  0.0000000 )
                  (  0.0000000  0.0000000 -1.0000000 )


      isym =  5     180 deg rotation - cart. axis [1,1,0]        

 cryst.   s( 5) = (     0          1          0      )
                  (     1          0          0      )
                  (     0          0         -1      )

 cart.    s( 5) = (  0.0000000  1.0000000  0.0000000 )
                  (  1.0000000  0.0000000  0.0000000 )
                  (  0.0000000  0.0000000 -1.0000000 )


      isym =  6     180 deg rotation - cart. axis [1,-1,0]       

 cryst.   s( 6) = (     0         -1          0      )
                  (    -1          0          0      )
                  (     0          0         -1      )

 cart.    s( 6) = (  0.0000000 -1.0000000  0.0000000 )
                  ( -1.0000000  0.0000000  0.0000000 )
                  (  0.0000000  0.0000000 -1.0000000 )


      isym =  7      90 deg rotation - cart. axis [0,0,-1]       

 cryst.   s( 7) = (     0         -1          0      )
                  (     1          0          0      )
                  (     0          0          1      )

 cart.    s( 7) = (  0.0000000  1.0000000  0.0000000 )
                  ( -1.0000000  0.0000000  0.0000000 )
                  (  0.0000000  0.0000000  1.0000000 )


      isym =  8      90 deg rotation - cart. axis [0,0,1]        

 cryst.   s( 8) = (     0          1          0      )
                  (    -1          0          0      )
                  (     0          0          1      )

 cart.    s( 8) = (  0.0000000 -1.0000000  0.0000000 )
                  (  1.0000000  0.0000000  0.0000000 )
                  (  0.0000000  0.0000000  1.0000000 )


      isym =  9     180 deg rotation - cart. axis [1,0,1]        

 cryst.   s( 9) = (     0          0          1      )
                  (     0         -1          0      )
                  (     1          0          0      )

 cart.    s( 9) = (  0.0000000  0.0000000  1.0000000 )
                  (  0.0000000 -1.0000000  0.0000000 )
                  (  1.0000000  0.0000000  0.0000000 )


      isym = 10     180 deg rotation - cart. axis [-1,0,1]       

 cryst.   s(10) = (     0          0         -1      )
                  (     0         -1          0      )
                  (    -1          0          0      )

 cart.    s(10) = (  0.0000000  0.0000000 -1.0000000 )
                  (  0.0000000 -1.0000000  0.0000000 )
                  ( -1.0000000  0.0000000  0.0000000 )


      isym = 11      90 deg rotation - cart. axis [0,1,0]        

 cryst.   s(11) = (     0          0         -1      )
                  (     0          1          0      )
                  (     1          0          0      )

 cart.    s(11) = (  0.0000000  0.0000000  1.0000000 )
                  (  0.0000000  1.0000000  0.0000000 )
                  ( -1.0000000  0.0000000  0.0000000 )


      isym = 12      90 deg rotation - cart. axis [0,-1,0]       

 cryst.   s(12) = (     0          0          1      )
                  (     0          1          0      )
                  (    -1          0          0      )

 cart.    s(12) = (  0.0000000  0.0000000 -1.0000000 )
                  (  0.0000000  1.0000000  0.0000000 )
                  (  1.0000000  0.0000000  0.0000000 )


      isym = 13     180 deg rotation - cart. axis [0,1,1]        

 cryst.   s(13) = (    -1          0          0      )
                  (     0          0          1      )
                  (     0          1          0      )

 cart.    s(13) = ( -1.0000000  0.0000000  0.0000000 )
                  (  0.0000000  0.0000000  1.0000000 )
                  (  0.0000000  1.0000000  0.0000000 )


      isym = 14     180 deg rotation - cart. axis [0,1,-1]       

 cryst.   s(14) = (    -1          0          0      )
                  (     0          0         -1      )
                  (     0         -1          0      )

 cart.    s(14) = ( -1.0000000  0.0000000  0.0000000 )
                  (  0.0000000  0.0000000 -1.0000000 )
                  (  0.0000000 -1.0000000  0.0000000 )


      isym = 15      90 deg rotation - cart. axis [-1,0,0]       

 cryst.   s(15) = (     1          0          0      )
                  (     0          0         -1      )
                  (     0          1          0      )

 cart.    s(15) = (  1.0000000  0.0000000  0.0000000 )
                  (  0.0000000  0.0000000  1.0000000 )
                  (  0.0000000 -1.0000000  0.0000000 )


      isym = 16      90 deg rotation - cart. axis [1,0,0]        

 cryst.   s(16) = (     1          0          0      )
                  (     0          0          1      )
                  (     0         -1          0      )

 cart.    s(16) = (  1.0000000  0.0000000  0.0000000 )
                  (  0.0000000  0.0000000 -1.0000000 )
                  (  0.0000000  1.0000000  0.0000000 )


      isym = 17     120 deg rotation - cart. axis [-1,-1,-1]     

 cryst.   s(17) = (     0          0          1      )
                  (     1          0          0      )
                  (     0          1          0      )

 cart.    s(17) = (  0.0000000  1.0000000  0.0000000 )
                  (  0.0000000  0.0000000  1.0000000 )
                  (  1.0000000  0.0000000  0.0000000 )


      isym = 18     120 deg rotation - cart. axis [-1,1,1]       

 cryst.   s(18) = (     0          0         -1      )
                  (    -1          0          0      )
                  (     0          1          0      )

 cart.    s(18) = (  0.0000000 -1.0000000  0.0000000 )
                  (  0.0000000  0.0000000  1.0000000 )
                  ( -1.0000000  0.0000000  0.0000000 )


      isym = 19     120 deg rotation - cart. axis [1,1,-1]       

 cryst.   s(19) = (     0          0         -1      )
                  (     1          0          0      )
                  (     0         -1          0      )

 cart.    s(19) = (  0.0000000  1.0000000  0.0000000 )
                  (  0.0000000  0.0000000 -1.0000000 )
                  ( -1.0000000  0.0000000  0.0000000 )


      isym = 20     120 deg rotation - cart. axis [1,-1,1]       

 cryst.   s(20) = (     0          0          1      )
                  (    -1          0          0      )
                  (     0         -1          0      )

 cart.    s(20) = (  0.0000000 -1.0000000  0.0000000 )
                  (  0.0000000  0.0000000 -1.0000000 )
                  (  1.0000000  0.0000000  0.0000000 )


      isym = 21     120 deg rotation - cart. axis [1,1,1]        

 cryst.   s(21) = (     0          1          0      )
                  (     0          0          1      )
                  (     1          0          0      )

 cart.    s(21) = (  0.0000000  0.0000000  1.0000000 )
                  (  1.0000000  0.0000000  0.0000000 )
                  (  0.0000000  1.0000000  0.0000000 )


      isym = 22     120 deg rotation - cart. axis [-1,1,-1]      

 cryst.   s(22) = (     0         -1          0      )
                  (     0          0         -1      )
                  (     1          0          0      )

 cart.    s(22) = (  0.0000000  0.0000000  1.0000000 )
                  ( -1.0000000  0.0000000  0.0000000 )
                  (  0.0000000 -1.0000000  0.0000000 )


      isym = 23     120 deg rotation - cart. axis [1,-1,-1]      

 cryst.   s(23) = (     0         -1          0      )
                  (     0          0          1      )
                  (    -1          0          0      )

 cart.    s(23) = (  0.0000000  0.0000000 -1.0000000 )
                  ( -1.0000000  0.0000000  0.0000000 )
                  (  0.0000000  1.0000000  0.0000000 )


      isym = 24     120 deg rotation - cart. axis [-1,-1,1]      

 cryst.   s(24) = (     0          1          0      )
                  (     0          0         -1      )
                  (    -1          0          0      )

 cart.    s(24) = (  0.0000000  0.0000000 -1.0000000 )
                  (  1.0000000  0.0000000  0.0000000 )
                  (  0.0000000 -1.0000000  0.0000000 )


      isym = 25     inversion                                    

 cryst.   s(25) = (    -1          0          0      )
                  (     0         -1          0      )
                  (     0          0         -1      )

 cart.    s(25) = ( -1.0000000  0.0000000  0.0000000 )
                  (  0.0000000 -1.0000000  0.0000000 )
                  (  0.0000000  0.0000000 -1.0000000 )


      isym = 26     inv. 180 deg rotation - cart. axis [0,0,1]   

 cryst.   s(26) = (     1          0          0      )
                  (     0          1          0      )
                  (     0          0         -1      )

 cart.    s(26) = (  1.0000000  0.0000000  0.0000000 )
                  (  0.0000000  1.0000000  0.0000000 )
                  (  0.0000000  0.0000000 -1.0000000 )


      isym = 27     inv. 180 deg rotation - cart. axis [0,1,0]   

 cryst.   s(27) = (     1          0          0      )
                  (     0         -1          0      )
                  (     0          0          1      )

 cart.    s(27) = (  1.0000000  0.0000000  0.0000000 )
                  (  0.0000000 -1.0000000  0.0000000 )
                  (  0.0000000  0.0000000  1.0000000 )


      isym = 28     inv. 180 deg rotation - cart. axis [1,0,0]   

 cryst.   s(28) = (    -1          0          0      )
                  (     0          1          0      )
                  (     0          0          1      )

 cart.    s(28) = ( -1.0000000  0.0000000  0.0000000 )
                  (  0.0000000  1.0000000  0.0000000 )
                  (  0.0000000  0.0000000  1.0000000 )


      isym = 29     inv. 180 deg rotation - cart. axis [1,1,0]   

 cryst.   s(29) = (     0         -1          0      )
                  (    -1          0          0      )
                  (     0          0          1      )

 cart.    s(29) = (  0.0000000 -1.0000000  0.0000000 )
                  ( -1.0000000  0.0000000  0.0000000 )
                  (  0.0000000  0.0000000  1.0000000 )


      isym = 30     inv. 180 deg rotation - cart. axis [1,-1,0]  

 cryst.   s(30) = (     0          1          0      )
                  (     1          0          0      )
                  (     0          0          1      )

 cart.    s(30) = (  0.0000000  1.0000000  0.0000000 )
                  (  1.0000000  0.0000000  0.0000000 )
                  (  0.0000000  0.0000000  1.0000000 )


      isym = 31     inv.  90 deg rotation - cart. axis [0,0,-1]  

 cryst.   s(31) = (     0          1          0      )
                  (    -1          0          0      )
                  (     0          0         -1      )

 cart.    s(31) = (  0.0000000 -1.0000000  0.0000000 )
                  (  1.0000000  0.0000000  0.0000000 )
                  (  0.0000000  0.0000000 -1.0000000 )


      isym = 32     inv.  90 deg rotation - cart. axis [0,0,1]   

 cryst.   s(32) = (     0         -1          0      )
                  (     1          0          0      )
                  (     0          0         -1      )

 cart.    s(32) = (  0.0000000  1.0000000  0.0000000 )
                  ( -1.0000000  0.0000000  0.0000000 )
                  (  0.0000000  0.0000000 -1.0000000 )


      isym = 33     inv. 180 deg rotation - cart. axis [1,0,1]   

 cryst.   s(33) = (     0          0         -1      )
                  (     0          1          0      )
                  (    -1          0          0      )

 cart.    s(33) = (  0.0000000  0.0000000 -1.0000000 )
                  (  0.0000000  1.0000000  0.0000000 )
                  ( -1.0000000  0.0000000  0.0000000 )


      isym = 34     inv. 180 deg rotation - cart. axis [-1,0,1]  

 cryst.   s(34) = (     0          0          1      )
                  (     0          1          0      )
                  (     1          0          0      )

 cart.    s(34) = (  0.0000000  0.0000000  1.0000000 )
                  (  0.0000000  1.0000000  0.0000000 )
                  (  1.0000000  0.0000000  0.0000000 )


      isym = 35     inv.  90 deg rotation - cart. axis [0,1,0]   

 cryst.   s(35) = (     0          0          1      )
                  (     0         -1          0      )
                  (    -1          0          0      )

 cart.    s(35) = (  0.0000000  0.0000000 -1.0000000 )
                  (  0.0000000 -1.0000000  0.0000000 )
                  (  1.0000000  0.0000000  0.0000000 )


      isym = 36     inv.  90 deg rotation - cart. axis [0,-1,0]  

 cryst.   s(36) = (     0          0         -1      )
                  (     0         -1          0      )
                  (     1          0          0      )

 cart.    s(36) = (  0.0000000  0.0000000  1.0000000 )
                  (  0.0000000 -1.0000000  0.0000000 )
                  ( -1.0000000  0.0000000  0.0000000 )


      isym = 37     inv. 180 deg rotation - cart. axis [0,1,1]   

 cryst.   s(37) = (     1          0          0      )
                  (     0          0         -1      )
                  (     0         -1          0      )

 cart.    s(37) = (  1.0000000  0.0000000  0.0000000 )
                  (  0.0000000  0.0000000 -1.0000000 )
                  (  0.0000000 -1.0000000  0.0000000 )


      isym = 38     inv. 180 deg rotation - cart. axis [0,1,-1]  

 cryst.   s(38) = (     1          0          0      )
                  (     0          0          1      )
                  (     0          1          0      )

 cart.    s(38) = (  1.0000000  0.0000000  0.0000000 )
                  (  0.0000000  0.0000000  1.0000000 )
                  (  0.0000000  1.0000000  0.0000000 )


      isym = 39     inv.  90 deg rotation - cart. axis [-1,0,0]  

 cryst.   s(39) = (    -1          0          0      )
                  (     0          0          1      )
                  (     0         -1          0      )

 cart.    s(39) = ( -1.0000000  0.0000000  0.0000000 )
                  (  0.0000000  0.0000000 -1.0000000 )
                  (  0.0000000  1.0000000  0.0000000 )


      isym = 40     inv.  90 deg rotation - cart. axis [1,0,0]   

 cryst.   s(40) = (    -1          0          0      )
                  (     0          0         -1      )
                  (     0          1          0      )

 cart.    s(40) = ( -1.0000000  0.0000000  0.0000000 )
                  (  0.0000000  0.0000000  1.0000000 )
                  (  0.0000000 -1.0000000  0.0000000 )


      isym = 41     inv. 120 deg rotation - cart. axis [-1,-1,-1]

 cryst.   s(41) = (     0          0         -1      )
                  (    -1          0          0      )
                  (     0         -1          0      )

 cart.    s(41) = (  0.0000000 -1.0000000  0.0000000 )
                  (  0.0000000  0.0000000 -1.0000000 )
                  ( -1.0000000  0.0000000  0.0000000 )


      isym = 42     inv. 120 deg rotation - cart. axis [-1,1,1]  

 cryst.   s(42) = (     0          0          1      )
                  (     1          0          0      )
                  (     0         -1          0      )

 cart.    s(42) = (  0.0000000  1.0000000  0.0000000 )
                  (  0.0000000  0.0000000 -1.0000000 )
                  (  1.0000000  0.0000000  0.0000000 )


      isym = 43     inv. 120 deg rotation - cart. axis [1,1,-1]  

 cryst.   s(43) = (     0          0          1      )
                  (    -1          0          0      )
                  (     0          1          0      )

 cart.    s(43) = (  0.0000000 -1.0000000  0.0000000 )
                  (  0.0000000  0.0000000  1.0000000 )
                  (  1.0000000  0.0000000  0.0000000 )


      isym = 44     inv. 120 deg rotation - cart. axis [1,-1,1]  

 cryst.   s(44) = (     0          0         -1      )
                  (     1          0          0      )
                  (     0          1          0      )

 cart.    s(44) = (  0.0000000  1.0000000  0.0000000 )
                  (  0.0000000  0.0000000  1.0000000 )
                  ( -1.0000000  0.0000000  0.0000000 )


      isym = 45     inv. 120 deg rotation - cart. axis [1,1,1]   

 cryst.   s(45) = (     0         -1          0      )
                  (     0          0         -1      )
                  (    -1          0          0      )

 cart.    s(45) = (  0.0000000  0.0000000 -1.0000000 )
                  ( -1.0000000  0.0000000  0.0000000 )
                  (  0.0000000 -1.0000000  0.0000000 )


      isym = 46     inv. 120 deg rotation - cart. axis [-1,1,-1] 

 cryst.   s(46) = (     0          1          0      )
                  (     0          0          1      )
                  (    -1          0          0      )

 cart.    s(46) = (  0.0000000  0.0000000 -1.0000000 )
                  (  1.0000000  0.0000000  0.0000000 )
                  (  0.0000000  1.0000000  0.0000000 )


      isym = 47     inv. 120 deg rotation - cart. axis [1,-1,-1] 

 cryst.   s(47) = (     0          1          0      )
                  (     0          0         -1      )
                  (     1          0          0      )

 cart.    s(47) = (  0.0000000  0.0000000  1.0000000 )
                  (  1.0000000  0.0000000  0.0000000 )
                  (  0.0000000 -1.0000000  0.0000000 )


      isym = 48     inv. 120 deg rotation - cart. axis [-1,-1,1] 

 cryst.   s(48) = (     0         -1          0      )
                  (     0          0          1      )
                  (     1          0          0      )

 cart.    s(48) = (  0.0000000  0.0000000  1.0000000 )
                  ( -1.0000000  0.0000000  0.0000000 )
                  (  0.0000000  1.0000000  0.0000000 )


     point group O_h (m-3m) 
     there are 10 classes
     the character table:

       E     8C3   3C2   6C4   6C2'  i     8S6   3s_h  6S4   6s_d 
A_1g   1.00  1.00  1.00  1.00  1.00  1.00  1.00  1.00  1.00  1.00
A_2g   1.00  1.00  1.00 -1.00 -1.00  1.00  1.00  1.00 -1.00 -1.00
E_g    2.00 -1.00  2.00  0.00  0.00  2.00 -1.00  2.00  0.00  0.00
T_1g   3.00  0.00 -1.00  1.00 -1.00  3.00  0.00 -1.00  1.00 -1.00
T_2g   3.00  0.00 -1.00 -1.00  1.00  3.00  0.00 -1.00 -1.00  1.00
A_1u   1.00  1.00  1.00  1.00  1.00 -1.00 -1.00 -1.00 -1.00 -1.00
A_2u   1.00  1.00  1.00 -1.00 -1.00 -1.00 -1.00 -1.00  1.00  1.00
E_u    2.00 -1.00  2.00  0.00  0.00 -2.00  1.00 -2.00  0.00  0.00
T_1u   3.00  0.00 -1.00  1.00 -1.00 -3.00  0.00  1.00 -1.00  1.00
T_2u   3.00  0.00 -1.00 -1.00  1.00 -3.00  0.00  1.00  1.00 -1.00

     the symmetry operations in each class and the name of the first element:

     E        1
          identity                                               
     8C3     17   19   20   18   24   21   22   23
          120 deg rotation - cart. axis [-1,-1,-1]               
     3C2      2    4    3
          180 deg rotation - cart. axis [0,0,1]                  
     6C4      7    8   15   16   12   11
           90 deg rotation - cart. axis [0,0,-1]                 
     6C2'     5    6   14   13   10    9
          180 deg rotation - cart. axis [1,1,0]                  
     i       25
          inversion                                              
     8S6     41   43   44   42   48   45   46   47
          inv. 120 deg rotation - cart. axis [-1,-1,-1]          
     3s_h    26   28   27
          inv. 180 deg rotation - cart. axis [0,0,1]             
     6S4     31   32   39   40   36   35
          inv.  90 deg rotation - cart. axis [0,0,-1]            
     6s_d    29   30   38   37   34   33
          inv. 180 deg rotation - cart. axis [1,1,0]             

   Cartesian axes

     site n.     atom                  positions (alat units)
         1           Fe  tau(   1) = (   0.0000000   0.0000000   0.0000000  )
         2           Fe  tau(   2) = (   0.5000000   0.5000000   0.5000000  )

   Crystallographic axes

     site n.     atom                  positions (cryst. coord.)
         1           Fe  tau(   1) = (  0.0000000  0.0000000  0.0000000  )
         2           Fe  tau(   2) = (  0.5000000  0.5000000  0.5000000  )

     number of k points=    56  Gaussian smearing, width (Ry)=  0.0010
                       cart. coord. in units 2pi/alat
        k(    1) = (   0.0000000   0.0000000   0.0000000), wk =   0.0010000
        k(    2) = (   0.0000000   0.0000000   0.1000000), wk =   0.0060000
        k(    3) = (   0.0000000   0.0000000   0.2000000), wk =   0.0060000
        k(    4) = (   0.0000000   0.0000000   0.3000000), wk =   0.0060000
        k(    5) = (   0.0000000   0.0000000   0.4000000), wk =   0.0060000
        k(    6) = (   0.0000000   0.0000000  -0.5000000), wk =   0.0030000
        k(    7) = (   0.0000000   0.1000000   0.1000000), wk =   0.0120000
        k(    8) = (   0.0000000   0.1000000   0.2000000), wk =   0.0240000
        k(    9) = (   0.0000000   0.1000000   0.3000000), wk =   0.0240000
        k(   10) = (   0.0000000   0.1000000   0.4000000), wk =   0.0240000
        k(   11) = (   0.0000000   0.1000000  -0.5000000), wk =   0.0120000
        k(   12) = (   0.0000000   0.2000000   0.2000000), wk =   0.0120000
        k(   13) = (   0.0000000   0.2000000   0.3000000), wk =   0.0240000
        k(   14) = (   0.0000000   0.2000000   0.4000000), wk =   0.0240000
        k(   15) = (   0.0000000   0.2000000  -0.5000000), wk =   0.0120000
        k(   16) = (   0.0000000   0.3000000   0.3000000), wk =   0.0120000
        k(   17) = (   0.0000000   0.3000000   0.4000000), wk =   0.0240000
        k(   18) = (   0.0000000   0.3000000  -0.5000000), wk =   0.0120000
        k(   19) = (   0.0000000   0.4000000   0.4000000), wk =   0.0120000
        k(   20) = (   0.0000000   0.4000000  -0.5000000), wk =   0.0120000
        k(   21) = (   0.0000000  -0.5000000  -0.5000000), wk =   0.0030000
        k(   22) = (   0.1000000   0.1000000   0.1000000), wk =   0.0080000
        k(   23) = (   0.1000000   0.1000000   0.2000000), wk =   0.0240000
        k(   24) = (   0.1000000   0.1000000   0.3000000), wk =   0.0240000
        k(   25) = (   0.1000000   0.1000000   0.4000000), wk =   0.0240000
        k(   26) = (   0.1000000   0.1000000  -0.5000000), wk =   0.0120000
        k(   27) = (   0.1000000   0.2000000   0.2000000), wk =   0.0240000
        k(   28) = (   0.1000000   0.2000000   0.3000000), wk =   0.0480000
        k(   29) = (   0.1000000   0.2000000   0.4000000), wk =   0.0480000
        k(   30) = (   0.1000000   0.2000000  -0.5000000), wk =   0.0240000
        k(   31) = (   0.1000000   0.3000000   0.3000000), wk =   0.0240000
        k(   32) = (   0.1000000   0.3000000   0.4000000), wk =   0.0480000
        k(   33) = (   0.1000000   0.3000000  -0.5000000), wk =   0.0240000
        k(   34) = (   0.1000000   0.4000000   0.4000000), wk =   0.0240000
        k(   35) = (   0.1000000   0.4000000  -0.5000000), wk =   0.0240000
        k(   36) = (   0.1000000  -0.5000000  -0.5000000), wk =   0.0060000
        k(   37) = (   0.2000000   0.2000000   0.2000000), wk =   0.0080000
        k(   38) = (   0.2000000   0.2000000   0.3000000), wk =   0.0240000
        k(   39) = (   0.2000000   0.2000000   0.4000000), wk =   0.0240000
        k(   40) = (   0.2000000   0.2000000  -0.5000000), wk =   0.0120000
        k(   41) = (   0.2000000   0.3000000   0.3000000), wk =   0.0240000
        k(   42) = (   0.2000000   0.3000000   0.4000000), wk =   0.0480000
        k(   43) = (   0.2000000   0.3000000  -0.5000000), wk =   0.0240000
        k(   44) = (   0.2000000   0.4000000   0.4000000), wk =   0.0240000
        k(   45) = (   0.2000000   0.4000000  -0.5000000), wk =   0.0240000
        k(   46) = (   0.2000000  -0.5000000  -0.5000000), wk =   0.0060000
        k(   47) = (   0.3000000   0.3000000   0.3000000), wk =   0.0080000
        k(   48) = (   0.3000000   0.3000000   0.4000000), wk =   0.0240000
        k(   49) = (   0.3000000   0.3000000  -0.5000000), wk =   0.0120000
        k(   50) = (   0.3000000   0.4000000   0.4000000), wk =   0.0240000
        k(   51) = (   0.3000000   0.4000000  -0.5000000), wk =   0.0240000
        k(   52) = (   0.3000000  -0.5000000  -0.5000000), wk =   0.0060000
        k(   53) = (   0.4000000   0.4000000   0.4000000), wk =   0.0080000
        k(   54) = (   0.4000000   0.4000000  -0.5000000), wk =   0.0120000
        k(   55) = (   0.4000000  -0.5000000  -0.5000000), wk =   0.0060000
        k(   56) = (  -0.5000000  -0.5000000  -0.5000000), wk =   0.0010000

                       cryst. coord.
        k(    1) = (   0.0000000   0.0000000   0.0000000), wk =   0.0010000
        k(    2) = (   0.0000000   0.0000000   0.1000000), wk =   0.0060000
        k(    3) = (   0.0000000   0.0000000   0.2000000), wk =   0.0060000
        k(    4) = (   0.0000000   0.0000000   0.3000000), wk =   0.0060000
        k(    5) = (   0.0000000   0.0000000   0.4000000), wk =   0.0060000
        k(    6) = (   0.0000000   0.0000000  -0.5000000), wk =   0.0030000
        k(    7) = (   0.0000000   0.1000000   0.1000000), wk =   0.0120000
        k(    8) = (   0.0000000   0.1000000   0.2000000), wk =   0.0240000
        k(    9) = (   0.0000000   0.1000000   0.3000000), wk =   0.0240000
        k(   10) = (   0.0000000   0.1000000   0.4000000), wk =   0.0240000
        k(   11) = (   0.0000000   0.1000000  -0.5000000), wk =   0.0120000
        k(   12) = (   0.0000000   0.2000000   0.2000000), wk =   0.0120000
        k(   13) = (   0.0000000   0.2000000   0.3000000), wk =   0.0240000
        k(   14) = (   0.0000000   0.2000000   0.4000000), wk =   0.0240000
        k(   15) = (   0.0000000   0.2000000  -0.5000000), wk =   0.0120000
        k(   16) = (   0.0000000   0.3000000   0.3000000), wk =   0.0120000
        k(   17) = (   0.0000000   0.3000000   0.4000000), wk =   0.0240000
        k(   18) = (   0.0000000   0.3000000  -0.5000000), wk =   0.0120000
        k(   19) = (   0.0000000   0.4000000   0.4000000), wk =   0.0120000
        k(   20) = (   0.0000000   0.4000000  -0.5000000), wk =   0.0120000
        k(   21) = (   0.0000000  -0.5000000  -0.5000000), wk =   0.0030000
        k(   22) = (   0.1000000   0.1000000   0.1000000), wk =   0.0080000
        k(   23) = (   0.1000000   0.1000000   0.2000000), wk =   0.0240000
        k(   24) = (   0.1000000   0.1000000   0.3000000), wk =   0.0240000
        k(   25) = (   0.1000000   0.1000000   0.4000000), wk =   0.0240000
        k(   26) = (   0.1000000   0.1000000  -0.5000000), wk =   0.0120000
        k(   27) = (   0.1000000   0.2000000   0.2000000), wk =   0.0240000
        k(   28) = (   0.1000000   0.2000000   0.3000000), wk =   0.0480000
        k(   29) = (   0.1000000   0.2000000   0.4000000), wk =   0.0480000
        k(   30) = (   0.1000000   0.2000000  -0.5000000), wk =   0.0240000
        k(   31) = (   0.1000000   0.3000000   0.3000000), wk =   0.0240000
        k(   32) = (   0.1000000   0.3000000   0.4000000), wk =   0.0480000
        k(   33) = (   0.1000000   0.3000000  -0.5000000), wk =   0.0240000
        k(   34) = (   0.1000000   0.4000000   0.4000000), wk =   0.0240000
        k(   35) = (   0.1000000   0.4000000  -0.5000000), wk =   0.0240000
        k(   36) = (   0.1000000  -0.5000000  -0.5000000), wk =   0.0060000
        k(   37) = (   0.2000000   0.2000000   0.2000000), wk =   0.0080000
        k(   38) = (   0.2000000   0.2000000   0.3000000), wk =   0.0240000
        k(   39) = (   0.2000000   0.2000000   0.4000000), wk =   0.0240000
        k(   40) = (   0.2000000   0.2000000  -0.5000000), wk =   0.0120000
        k(   41) = (   0.2000000   0.3000000   0.3000000), wk =   0.0240000
        k(   42) = (   0.2000000   0.3000000   0.4000000), wk =   0.0480000
        k(   43) = (   0.2000000   0.3000000  -0.5000000), wk =   0.0240000
        k(   44) = (   0.2000000   0.4000000   0.4000000), wk =   0.0240000
        k(   45) = (   0.2000000   0.4000000  -0.5000000), wk =   0.0240000
        k(   46) = (   0.2000000  -0.5000000  -0.5000000), wk =   0.0060000
        k(   47) = (   0.3000000   0.3000000   0.3000000), wk =   0.0080000
        k(   48) = (   0.3000000   0.3000000   0.4000000), wk =   0.0240000
        k(   49) = (   0.3000000   0.3000000  -0.5000000), wk =   0.0120000
        k(   50) = (   0.3000000   0.4000000   0.4000000), wk =   0.0240000
        k(   51) = (   0.3000000   0.4000000  -0.5000000), wk =   0.0240000
        k(   52) = (   0.3000000  -0.5000000  -0.5000000), wk =   0.0060000
        k(   53) = (   0.4000000   0.4000000   0.4000000), wk =   0.0080000
        k(   54) = (   0.4000000   0.4000000  -0.5000000), wk =   0.0120000
        k(   55) = (   0.4000000  -0.5000000  -0.5000000), wk =   0.0060000
        k(   56) = (  -0.5000000  -0.5000000  -0.5000000), wk =   0.0010000

     Dense  grid:    51483 G-vectors     FFT dimensions: (  48,  48,  48)

     Smooth grid:    22143 G-vectors     FFT dimensions: (  36,  36,  36)

     Dynamical RAM for                 wfc:       0.08 MB

     Dynamical RAM for     wfc (w. buffer):       4.82 MB

     Dynamical RAM for           str. fact:       0.08 MB

     Dynamical RAM for           local pot:       0.00 MB

     Dynamical RAM for          nlocal pot:       0.15 MB

     Dynamical RAM for                qrad:       2.12 MB

     Dynamical RAM for          rho,v,vnew:       1.00 MB

     Dynamical RAM for               rhoin:       0.33 MB

     Dynamical RAM for            rho*nmix:       2.51 MB

     Dynamical RAM for           G-vectors:       0.31 MB

     Dynamical RAM for          h,s,v(r/c):       0.07 MB

     Dynamical RAM for          <psi|beta>:       0.01 MB

     Dynamical RAM for                 psi:       0.17 MB

     Dynamical RAM for                hpsi:       0.17 MB

     Dynamical RAM for                spsi:       0.17 MB

     Dynamical RAM for      wfcinit/wfcrot:       0.18 MB

     Dynamical RAM for           addusdens:       7.50 MB

     Estimated static dynamical RAM per process >       9.50 MB

     Estimated max dynamical RAM per process >      19.51 MB

     Estimated total dynamical RAM >     365.15 MB
     Generating pointlists ...
     new r_m :   0.3572 (alat units)  1.9577 (a.u.) for type    1

     The initial density is read from file :
     ./out/Fe.save/charge-density


     starting charge      32.3333, renormalised to      32.0000

     negative rho (up, down):  0.000E+00 2.098E-04
     Starting wfcs from file
     Checking if some PAW data can be deallocated... 

     total cpu time spent up to now is        0.5 secs

     Self-consistent Calculation

     iteration #  1     ecut=   100.00 Ry     beta= 0.40
     Davidson diagonalization with overlap

---- Real-time Memory Report at c_bands before calling an iterative solver
            55 MiB given to the printing process from OS
             0 MiB allocation reported by mallinfo(arena+hblkhd)
        360190 MiB available memory on the node where the printing process lives
------------------
     ethr =  1.00E-05,  avg # of iterations =  4.8

     negative rho (up, down):  0.000E+00 1.844E-04

     total cpu time spent up to now is        1.9 secs

     total energy              =    -658.51565032 Ry
     estimated scf accuracy    <       0.05938914 Ry

     total magnetization       =     4.73 Bohr mag/cell
     absolute magnetization    =     4.98 Bohr mag/cell

     iteration #  2     ecut=   100.00 Ry     beta= 0.40
     Davidson diagonalization with overlap

---- Real-time Memory Report at c_bands before calling an iterative solver
            72 MiB given to the printing process from OS
             0 MiB allocation reported by mallinfo(arena+hblkhd)
        359882 MiB available memory on the node where the printing process lives
------------------
     ethr =  1.86E-04,  avg # of iterations =  3.3

     negative rho (up, down):  0.000E+00 2.008E-04

     total cpu time spent up to now is        3.0 secs

     total energy              =    -658.53290415 Ry
     estimated scf accuracy    <       0.02847879 Ry

     total magnetization       =     4.46 Bohr mag/cell
     absolute magnetization    =     4.77 Bohr mag/cell

     iteration #  3     ecut=   100.00 Ry     beta= 0.40
     Davidson diagonalization with overlap

---- Real-time Memory Report at c_bands before calling an iterative solver
            73 MiB given to the printing process from OS
             0 MiB allocation reported by mallinfo(arena+hblkhd)
        359867 MiB available memory on the node where the printing process lives
------------------
     ethr =  8.90E-05,  avg # of iterations =  2.0

     negative rho (up, down):  0.000E+00 2.138E-04

     total cpu time spent up to now is        3.8 secs

     total energy              =    -658.53597614 Ry
     estimated scf accuracy    <       0.00078934 Ry

     total magnetization       =     4.56 Bohr mag/cell
     absolute magnetization    =     4.84 Bohr mag/cell

     iteration #  4     ecut=   100.00 Ry     beta= 0.40
     Davidson diagonalization with overlap

---- Real-time Memory Report at c_bands before calling an iterative solver
            74 MiB given to the printing process from OS
             0 MiB allocation reported by mallinfo(arena+hblkhd)
        359854 MiB available memory on the node where the printing process lives
------------------
     ethr =  2.47E-06,  avg # of iterations =  3.8

     negative rho (up, down):  0.000E+00 2.146E-04

     total cpu time spent up to now is        5.0 secs

     total energy              =    -658.53674067 Ry
     estimated scf accuracy    <       0.00389173 Ry

     total magnetization       =     4.59 Bohr mag/cell
     absolute magnetization    =     4.87 Bohr mag/cell

     iteration #  5     ecut=   100.00 Ry     beta= 0.40
     Davidson diagonalization with overlap

---- Real-time Memory Report at c_bands before calling an iterative solver
            75 MiB given to the printing process from OS
             0 MiB allocation reported by mallinfo(arena+hblkhd)
        359847 MiB available memory on the node where the printing process lives
------------------
     ethr =  2.47E-06,  avg # of iterations =  1.0

     negative rho (up, down):  0.000E+00 2.131E-04

     total cpu time spent up to now is        5.7 secs

     total energy              =    -658.53643862 Ry
     estimated scf accuracy    <       0.00143555 Ry

     total magnetization       =     4.59 Bohr mag/cell
     absolute magnetization    =     4.88 Bohr mag/cell

     iteration #  6     ecut=   100.00 Ry     beta= 0.40
     Davidson diagonalization with overlap

---- Real-time Memory Report at c_bands before calling an iterative solver
            76 MiB given to the printing process from OS
             0 MiB allocation reported by mallinfo(arena+hblkhd)
        359834 MiB available memory on the node where the printing process lives
------------------
     ethr =  2.47E-06,  avg # of iterations =  2.0

     negative rho (up, down):  0.000E+00 2.133E-04

     total cpu time spent up to now is        6.6 secs

     total energy              =    -658.53655217 Ry
     estimated scf accuracy    <       0.00013348 Ry

     total magnetization       =     4.57 Bohr mag/cell
     absolute magnetization    =     4.86 Bohr mag/cell

     iteration #  7     ecut=   100.00 Ry     beta= 0.40
     Davidson diagonalization with overlap

---- Real-time Memory Report at c_bands before calling an iterative solver
            77 MiB given to the printing process from OS
             0 MiB allocation reported by mallinfo(arena+hblkhd)
        359829 MiB available memory on the node where the printing process lives
------------------
     ethr =  4.17E-07,  avg # of iterations =  2.3

     negative rho (up, down):  0.000E+00 2.157E-04

     total cpu time spent up to now is        7.5 secs

     total energy              =    -658.53655430 Ry
     estimated scf accuracy    <       0.00003869 Ry

     total magnetization       =     4.57 Bohr mag/cell
     absolute magnetization    =     4.86 Bohr mag/cell

     iteration #  8     ecut=   100.00 Ry     beta= 0.40
     Davidson diagonalization with overlap

---- Real-time Memory Report at c_bands before calling an iterative solver
            78 MiB given to the printing process from OS
             0 MiB allocation reported by mallinfo(arena+hblkhd)
        359818 MiB available memory on the node where the printing process lives
------------------
     ethr =  1.21E-07,  avg # of iterations =  2.3

     negative rho (up, down):  0.000E+00 2.161E-04

     total cpu time spent up to now is        8.4 secs

     total energy              =    -658.53655751 Ry
     estimated scf accuracy    <       0.00000616 Ry

     total magnetization       =     4.56 Bohr mag/cell
     absolute magnetization    =     4.85 Bohr mag/cell

     iteration #  9     ecut=   100.00 Ry     beta= 0.40
     Davidson diagonalization with overlap

---- Real-time Memory Report at c_bands before calling an iterative solver
            78 MiB given to the printing process from OS
             0 MiB allocation reported by mallinfo(arena+hblkhd)
        359816 MiB available memory on the node where the printing process lives
------------------
     ethr =  1.92E-08,  avg # of iterations =  2.0

     negative rho (up, down):  0.000E+00 2.155E-04

     total cpu time spent up to now is        9.2 secs

     total energy              =    -658.53655735 Ry
     estimated scf accuracy    <       0.00000276 Ry

     total magnetization       =     4.56 Bohr mag/cell
     absolute magnetization    =     4.85 Bohr mag/cell

     iteration # 10     ecut=   100.00 Ry     beta= 0.40
     Davidson diagonalization with overlap

---- Real-time Memory Report at c_bands before calling an iterative solver
            80 MiB given to the printing process from OS
             0 MiB allocation reported by mallinfo(arena+hblkhd)
        359808 MiB available memory on the node where the printing process lives
------------------
     ethr =  8.62E-09,  avg # of iterations =  2.0

     negative rho (up, down):  0.000E+00 2.154E-04

     total cpu time spent up to now is       10.1 secs

     total energy              =    -658.53655765 Ry
     estimated scf accuracy    <       0.00000069 Ry

     total magnetization       =     4.56 Bohr mag/cell
     absolute magnetization    =     4.85 Bohr mag/cell

     iteration # 11     ecut=   100.00 Ry     beta= 0.40
     Davidson diagonalization with overlap

---- Real-time Memory Report at c_bands before calling an iterative solver
            81 MiB given to the printing process from OS
             0 MiB allocation reported by mallinfo(arena+hblkhd)
        359821 MiB available memory on the node where the printing process lives
------------------
     ethr =  2.17E-09,  avg # of iterations =  1.1

     negative rho (up, down):  0.000E+00 2.153E-04

     total cpu time spent up to now is       10.8 secs

     total energy              =    -658.53655756 Ry
     estimated scf accuracy    <       0.00000092 Ry

     total magnetization       =     4.56 Bohr mag/cell
     absolute magnetization    =     4.85 Bohr mag/cell

     iteration # 12     ecut=   100.00 Ry     beta= 0.40
     Davidson diagonalization with overlap

---- Real-time Memory Report at c_bands before calling an iterative solver
            81 MiB given to the printing process from OS
             0 MiB allocation reported by mallinfo(arena+hblkhd)
        359818 MiB available memory on the node where the printing process lives
------------------
     ethr =  2.17E-09,  avg # of iterations =  1.2

     negative rho (up, down):  0.000E+00 2.148E-04

     total cpu time spent up to now is       11.6 secs

     total energy              =    -658.53655743 Ry
     estimated scf accuracy    <       0.00000038 Ry

     total magnetization       =     4.56 Bohr mag/cell
     absolute magnetization    =     4.85 Bohr mag/cell

     iteration # 13     ecut=   100.00 Ry     beta= 0.40
     Davidson diagonalization with overlap

---- Real-time Memory Report at c_bands before calling an iterative solver
            81 MiB given to the printing process from OS
             0 MiB allocation reported by mallinfo(arena+hblkhd)
        359819 MiB available memory on the node where the printing process lives
------------------
     ethr =  1.18E-09,  avg # of iterations =  1.6

     negative rho (up, down):  0.000E+00 2.147E-04

     total cpu time spent up to now is       12.5 secs

     total energy              =    -658.53655756 Ry
     estimated scf accuracy    <       0.00000002 Ry

     total magnetization       =     4.56 Bohr mag/cell
     absolute magnetization    =     4.85 Bohr mag/cell

     iteration # 14     ecut=   100.00 Ry     beta= 0.40
     Davidson diagonalization with overlap

---- Real-time Memory Report at c_bands before calling an iterative solver
            81 MiB given to the printing process from OS
             0 MiB allocation reported by mallinfo(arena+hblkhd)
        359815 MiB available memory on the node where the printing process lives
------------------
     ethr =  6.07E-11,  avg # of iterations =  1.8

     negative rho (up, down):  0.000E+00 2.146E-04

     total cpu time spent up to now is       13.4 secs

     total energy              =    -658.53655754 Ry
     estimated scf accuracy    <       0.00000002 Ry

     total magnetization       =     4.56 Bohr mag/cell
     absolute magnetization    =     4.85 Bohr mag/cell

     iteration # 15     ecut=   100.00 Ry     beta= 0.40
     Davidson diagonalization with overlap

---- Real-time Memory Report at c_bands before calling an iterative solver
            81 MiB given to the printing process from OS
             0 MiB allocation reported by mallinfo(arena+hblkhd)
        359814 MiB available memory on the node where the printing process lives
------------------
     ethr =  6.07E-11,  avg # of iterations =  1.9

     negative rho (up, down):  0.000E+00 2.146E-04
 
     Magnetic moment per site  (integrated on atomic sphere of radius R)
     atom   1 (R=0.357)  charge= 14.4491  magn=  2.3421
     atom   2 (R=0.357)  charge= 14.4491  magn=  2.3420

     total cpu time spent up to now is       14.3 secs

     End of self-consistent calculation

 ------ SPIN UP ------------


          k = 0.0000 0.0000 0.0000 (  2801 PWs)   bands (ev):

   -71.2765 -71.1749 -37.3590 -37.3590 -37.3590 -37.1246 -37.1246 -37.1246
     8.6417  12.2726  12.2726  14.5768  14.5768  14.5768  15.6626  15.6626
    16.7732  16.7732  16.7732  26.1166

     occupation numbers 
     1.0000   1.0000   1.0000   1.0000   1.0000   1.0000   1.0000   1.0000
     1.0000   1.0000   1.0000   1.0000   1.0000   1.0000   1.0000   1.0000
     0.0000   0.0000   0.0000   0.0000

          k = 0.0000 0.0000 0.1000 (  2805 PWs)   bands (ev):

   -71.2736 -71.1771 -37.3579 -37.3529 -37.3529 -37.1350 -37.1300 -37.1300
     8.8383  12.3530  12.3530  14.5760  14.5760  14.6283  15.5800  15.6950
    16.6186  16.6186  16.7173  24.8090

     occupation numbers 
     1.0000   1.0000   1.0000   1.0000   1.0000   1.0000   1.0000   1.0000
     1.0000   1.0000   1.0000   1.0000   1.0000   1.0000   1.0000   1.0000
     1.0000   1.0000   0.5572   0.0000

          k = 0.0000 0.0000 0.2000 (  2801 PWs)   bands (ev):

   -71.2655 -71.1834 -37.3534 -37.3355 -37.3355 -37.1640 -37.1458 -37.1458
     9.4115  12.5581  12.5878  14.5849  14.5849  14.7784  15.3392  15.7877
    16.2312  16.2312  16.5556  22.4233

     occupation numbers 
     1.0000   1.0000   1.0000   1.0000   1.0000   1.0000   1.0000   1.0000
     1.0000   1.0000   1.0000   1.0000   1.0000   1.0000   1.0000   1.0000
     1.0000   1.0000   1.0000   0.0000

          k = 0.0000 0.0000 0.3000 (  2790 PWs)   bands (ev):

   -71.2532 -71.1935 -37.3426 -37.3085 -37.3085 -37.2051 -37.1707 -37.1707
    10.3021  12.7734  12.9568  14.6329  14.6329  14.9616  15.0141  15.7603
    15.7603  15.9407  16.3055  20.0661

     occupation numbers 
     1.0000   1.0000   1.0000   1.0000   1.0000   1.0000   1.0000   1.0000
     1.0000   1.0000   1.0000   1.0000   1.0000   1.0000   1.0000   1.0000
     1.0000   1.0000   1.0000   0.0000

          k = 0.0000 0.0000 0.4000 (  2794 PWs)   bands (ev):

   -71.2381 -71.2068 -37.3222 -37.2750 -37.2750 -37.2500 -37.2026 -37.2026
    11.3709  12.7855  13.4270  14.4834  14.7557  14.7557  15.3145  15.3234
    15.3234  15.9935  16.2121  18.1104

     occupation numbers 
     1.0000   1.0000   1.0000   1.0000   1.0000   1.0000   1.0000   1.0000
     1.0000   1.0000   1.0000   1.0000   1.0000   1.0000   1.0000   1.0000
     1.0000   1.0000   1.0000   0.0000

          k = 0.0000 0.0000-0.5000 (  2762 PWs)   bands (ev):

   -71.2221 -71.2221 -37.2908 -37.2907 -37.2385 -37.2385 -37.2385 -37.2385
    12.3203  12.3204  13.9536  13.9537  14.9822  14.9822  14.9823  14.9823
    15.6517  15.6518  16.8259  16.8259

     occupation numbers 
     1.0000   1.0000   1.0000   1.0000   1.0000   1.0000   1.0000   1.0000
     1.0000   1.0000   1.0000   1.0000   1.0000   1.0000   1.0000   1.0000
     1.0000   1.0000   0.0000   0.0000

          k = 0.0000 0.1000 0.1000 (  2799 PWs)   bands (ev):

   -71.2709 -71.1791 -37.3674 -37.3472 -37.3368 -37.1558 -37.1351 -37.1245
     9.0318  12.4256  12.4382  14.4774  14.5642  14.7763  15.5736  15.6709
    16.3519  16.4644  16.7963  24.8785

     occupation numbers 
     1.0000   1.0000   1.0000   1.0000   1.0000   1.0000   1.0000   1.0000
     1.0000   1.0000   1.0000   1.0000   1.0000   1.0000   1.0000   1.0000
     1.0000   1.0000   0.0000   0.0000

          k = 0.0000 0.1000 0.2000 (  2785 PWs)   bands (ev):

   -71.2632 -71.1850 -37.3718 -37.3305 -37.3121 -37.1921 -37.1501 -37.1312
     9.5939  12.6224  12.6698  14.4086  14.5410  15.0000  15.4036  15.7504
    15.9134  16.0876  16.7377  22.6592

     occupation numbers 
     1.0000   1.0000   1.0000   1.0000   1.0000   1.0000   1.0000   1.0000
     1.0000   1.0000   1.0000   1.0000   1.0000   1.0000   1.0000   1.0000
     1.0000   1.0000   0.0243   0.0000

          k = 0.0000 0.1000 0.3000 (  2776 PWs)   bands (ev):

   -71.2514 -71.1946 -37.3669 -37.3048 -37.2815 -37.2367 -37.1737 -37.1500
    10.4609  12.8343  13.0146  14.4067  14.5047  15.1494  15.2770  15.4398
    15.6581  15.9070  16.5452  20.2823

     occupation numbers 
     1.0000   1.0000   1.0000   1.0000   1.0000   1.0000   1.0000   1.0000
     1.0000   1.0000   1.0000   1.0000   1.0000   1.0000   1.0000   1.0000
     1.0000   1.0000   1.0000   0.0000

          k = 0.0000 0.1000 0.4000 (  2793 PWs)   bands (ev):

   -71.2370 -71.2072 -37.3507 -37.2823 -37.2729 -37.2470 -37.2040 -37.1778
    11.4857  12.8338  13.4468  14.3179  14.4960  15.0177  15.0275  15.3204
    15.5960  16.1944  16.2638  18.2716

     occupation numbers 
     1.0000   1.0000   1.0000   1.0000   1.0000   1.0000   1.0000   1.0000
     1.0000   1.0000   1.0000   1.0000   1.0000   1.0000   1.0000   1.0000
     1.0000   1.0000   1.0000   0.0000

          k = 0.0000 0.1000-0.5000 (  2790 PWs)   bands (ev):

   -71.2218 -71.2217 -37.3219 -37.3219 -37.2381 -37.2381 -37.2113 -37.2113
    12.3812  12.3812  13.9129  13.9129  14.6974  14.6974  15.1212  15.1213
    15.9351  15.9352  16.8840  16.8840

     occupation numbers 
     1.0000   1.0000   1.0000   1.0000   1.0000   1.0000   1.0000   1.0000
     1.0000   1.0000   1.0000   1.0000   1.0000   1.0000   1.0000   1.0000
     1.0000   1.0000   0.0000   0.0000

          k = 0.0000 0.2000 0.2000 (  2760 PWs)   bands (ev):

   -71.2564 -71.1900 -37.3894 -37.3162 -37.2785 -37.2371 -37.1627 -37.1243
    10.1171  12.7450  12.9356  14.2237  14.4695  15.3257  15.4219  15.4898
    15.6998  15.7630  16.8569  22.6801

     occupation numbers 
     1.0000   1.0000   1.0000   1.0000   1.0000   1.0000   1.0000   1.0000
     1.0000   1.0000   1.0000   1.0000   1.0000   1.0000   1.0000   1.0000
     1.0000   1.0000   0.0000   0.0000

          k = 0.0000 0.2000 0.3000 (  2771 PWs)   bands (ev):

   -71.2462 -71.1979 -37.3967 -37.2941 -37.2864 -37.2429 -37.1825 -37.1307
    10.8959  12.8526  13.3035  14.1217  14.4277  14.9424  15.4189  15.4648
    15.6752  15.8171  16.8134  20.7194

     occupation numbers 
     1.0000   1.0000   1.0000   1.0000   1.0000   1.0000   1.0000   1.0000
     1.0000   1.0000   1.0000   1.0000   1.0000   1.0000   1.0000   1.0000
     1.0000   1.0000   0.0000   0.0000

          k = 0.0000 0.2000 0.4000 (  2770 PWs)   bands (ev):

   -71.2338 -71.2085 -37.3902 -37.3323 -37.2667 -37.2081 -37.2077 -37.1486
    11.7507  12.7918  13.6976  14.1309  14.3315  14.5456  15.3454  15.3866
    16.0277  16.1394  16.6333  18.6438

     occupation numbers 
     1.0000   1.0000   1.0000   1.0000   1.0000   1.0000   1.0000   1.0000
     1.0000   1.0000   1.0000   1.0000   1.0000   1.0000   1.0000   1.0000
     1.0000   1.0000   1.0000   0.0000

          k = 0.0000 0.2000-0.5000 (  2772 PWs)   bands (ev):

   -71.2208 -71.2208 -37.3683 -37.3683 -37.2371 -37.2370 -37.1752 -37.1752
    12.4308  12.4308  14.0657  14.0658  14.2704  14.2704  15.3726  15.3726
    16.3581  16.3581  17.0390  17.0390

     occupation numbers 
     1.0000   1.0000   1.0000   1.0000   1.0000   1.0000   1.0000   1.0000
     1.0000   1.0000   1.0000   1.0000   1.0000   1.0000   1.0000   1.0000
     1.0000   1.0000   0.0000   0.0000

          k = 0.0000 0.3000 0.3000 (  2774 PWs)   bands (ev):

   -71.2385 -71.2034 -37.4165 -37.3367 -37.2776 -37.2059 -37.1966 -37.1241
    11.4694  12.7668  13.7612  13.9222  14.4837  14.5902  15.3660  15.5929
    15.7506  16.0702  16.9324  20.4729

     occupation numbers 
     1.0000   1.0000   1.0000   1.0000   1.0000   1.0000   1.0000   1.0000
     1.0000   1.0000   1.0000   1.0000   1.0000   1.0000   1.0000   1.0000
     1.0000   1.0000   0.0000   0.0000

          k = 0.0000 0.3000 0.4000 (  2786 PWs)   bands (ev):

   -71.2292 -71.2108 -37.4216 -37.3797 -37.2575 -37.2149 -37.1732 -37.1301
    11.9782  12.5889  13.8455  14.1292  14.2447  14.8193  15.4303  15.6493
    16.0434  16.4259  16.8907  18.9073

     occupation numbers 
     1.0000   1.0000   1.0000   1.0000   1.0000   1.0000   1.0000   1.0000
     1.0000   1.0000   1.0000   1.0000   1.0000   1.0000   1.0000   1.0000
     1.0000   1.0000   0.0000   0.0000

          k = 0.0000 0.3000-0.5000 (  2772 PWs)   bands (ev):

   -71.2197 -71.2196 -37.4092 -37.4092 -37.2358 -37.2358 -37.1471 -37.1471
    12.3346  12.3346  13.9125  13.9125  14.6421  14.6421  15.5751  15.5751
    16.7108  16.7108  17.2141  17.2142

     occupation numbers 
     1.0000   1.0000   1.0000   1.0000   1.0000   1.0000   1.0000   1.0000
     1.0000   1.0000   1.0000   1.0000   1.0000   1.0000   1.0000   1.0000
     0.7955   0.7953   0.0000   0.0000

          k = 0.0000 0.4000 0.4000 (  2768 PWs)   bands (ev):

   -71.2239 -71.2142 -37.4384 -37.4165 -37.2464 -37.2240 -37.1466 -37.1239
    12.1002  12.3713  13.6872  13.8305  14.8796  15.5590  15.5719  15.8046
    16.0671  16.7409  16.9939  18.4860

     occupation numbers 
     1.0000   1.0000   1.0000   1.0000   1.0000   1.0000   1.0000   1.0000
     1.0000   1.0000   1.0000   1.0000   1.0000   1.0000   1.0000   1.0000
     1.0000   0.0105   0.0000   0.0000

          k = 0.0000 0.4000-0.5000 (  2774 PWs)   bands (ev):

   -71.2187 -71.2187 -37.4370 -37.4370 -37.2348 -37.2347 -37.1297 -37.1297
    12.2085  12.2085  13.6798  13.6798  15.4040  15.4040  15.6946  15.6946
    16.9389  16.9389  17.2818  17.2818

     occupation numbers 
     1.0000   1.0000   1.0000   1.0000   1.0000   1.0000   1.0000   1.0000
     1.0000   1.0000   1.0000   1.0000   1.0000   1.0000   1.0000   1.0000
     0.0000   0.0000   0.0000   0.0000

          k = 0.0000-0.5000-0.5000 (  2752 PWs)   bands (ev):

   -71.2184 -71.2183 -37.4468 -37.4468 -37.2344 -37.2344 -37.1238 -37.1238
    12.1570  12.1570  13.5994  13.5994  15.7219  15.7219  15.8284  15.8284
    17.0175  17.0175  17.2420  17.2420

     occupation numbers 
     1.0000   1.0000   1.0000   1.0000   1.0000   1.0000   1.0000   1.0000
     1.0000   1.0000   1.0000   1.0000   1.0000   1.0000   1.0000   1.0000
     0.0000   0.0000   0.0000   0.0000

          k = 0.1000 0.1000 0.1000 (  2806 PWs)   bands (ev):

   -71.2683 -71.1810 -37.3612 -37.3612 -37.3175 -37.1748 -37.1301 -37.1301
     9.2225  12.5097  12.5097  14.4605  14.4605  14.9283  15.6134  15.6134
    16.0065  16.6420  16.6420  25.2046

     occupation numbers 
     1.0000   1.0000   1.0000   1.0000   1.0000   1.0000   1.0000   1.0000
     1.0000   1.0000   1.0000   1.0000   1.0000   1.0000   1.0000   1.0000
     1.0000   1.0000   1.0000   0.0000

          k = 0.1000 0.1000 0.2000 (  2782 PWs)   bands (ev):

   -71.2609 -71.1866 -37.3721 -37.3431 -37.2897 -37.2120 -37.1465 -37.1321
     9.7751  12.7169  12.7223  14.3561  14.4138  15.1932  15.4533  15.5285
    15.7194  16.2618  16.6773  22.9061

     occupation numbers 
     1.0000   1.0000   1.0000   1.0000   1.0000   1.0000   1.0000   1.0000
     1.0000   1.0000   1.0000   1.0000   1.0000   1.0000   1.0000   1.0000
     1.0000   1.0000   1.0000   0.0000

          k = 0.1000 0.1000 0.3000 (  2768 PWs)   bands (ev):

   -71.2496 -71.1956 -37.3734 -37.3152 -37.2588 -37.2564 -37.1724 -37.1450
    10.6214  12.9334  13.0370  14.3323  14.3429  15.0836  15.2421  15.5079
    15.8139  15.8821  16.5525  20.5159

     occupation numbers 
     1.0000   1.0000   1.0000   1.0000   1.0000   1.0000   1.0000   1.0000
     1.0000   1.0000   1.0000   1.0000   1.0000   1.0000   1.0000   1.0000
     1.0000   1.0000   1.0000   0.0000

          k = 0.1000 0.1000 0.4000 (  2790 PWs)   bands (ev):

   -71.2359 -71.2075 -37.3622 -37.3006 -37.2805 -37.2264 -37.2054 -37.1668
    11.6079  12.9135  13.4300  14.1576  14.4447  14.7845  15.1041  15.4228
    15.8041  16.2254  16.3204  18.4791

     occupation numbers 
     1.0000   1.0000   1.0000   1.0000   1.0000   1.0000   1.0000   1.0000
     1.0000   1.0000   1.0000   1.0000   1.0000   1.0000   1.0000   1.0000
     1.0000   1.0000   1.0000   0.0000

          k = 0.1000 0.1000-0.5000 (  2786 PWs)   bands (ev):

   -71.2214 -71.2213 -37.3374 -37.3374 -37.2427 -37.2426 -37.1949 -37.1949
    12.4601  12.4601  13.8340  13.8341  14.6105  14.6105  15.1666  15.1666
    16.0516  16.0516  17.0272  17.0272

     occupation numbers 
     1.0000   1.0000   1.0000   1.0000   1.0000   1.0000   1.0000   1.0000
     1.0000   1.0000   1.0000   1.0000   1.0000   1.0000   1.0000   1.0000
     1.0000   1.0000   0.0000   0.0000

          k = 0.1000 0.2000 0.2000 (  2775 PWs)   bands (ev):

   -71.2545 -71.1912 -37.3826 -37.3359 -37.2581 -37.2519 -37.1568 -37.1305
    10.2938  12.8470  12.9805  14.1887  14.3175  15.0329  15.5171  15.5473
    15.6811  16.0616  16.6973  23.0037

     occupation numbers 
     1.0000   1.0000   1.0000   1.0000   1.0000   1.0000   1.0000   1.0000
     1.0000   1.0000   1.0000   1.0000   1.0000   1.0000   1.0000   1.0000
     1.0000   1.0000   0.9870   0.0000

          k = 0.1000 0.2000 0.3000 (  2771 PWs)   bands (ev):

   -71.2447 -71.1987 -37.3917 -37.3114 -37.2971 -37.2261 -37.1794 -37.1350
    11.0614  12.9738  13.3098  14.0774  14.2639  14.6298  15.4431  15.7136
    15.7904  15.9470  16.6638  21.0099

     occupation numbers 
     1.0000   1.0000   1.0000   1.0000   1.0000   1.0000   1.0000   1.0000
     1.0000   1.0000   1.0000   1.0000   1.0000   1.0000   1.0000   1.0000
     1.0000   1.0000   1.0000   0.0000

          k = 0.1000 0.2000 0.4000 (  2783 PWs)   bands (ev):

   -71.2329 -71.2087 -37.3889 -37.3390 -37.2792 -37.2095 -37.1959 -37.1485
    11.8931  12.9164  13.6146  14.0043  14.2859  14.4295  15.3740  15.4704
    15.9613  16.4786  16.4925  18.9495

     occupation numbers 
     1.0000   1.0000   1.0000   1.0000   1.0000   1.0000   1.0000   1.0000
     1.0000   1.0000   1.0000   1.0000   1.0000   1.0000   1.0000   1.0000
     1.0000   1.0000   1.0000   0.0000

          k = 0.1000 0.2000-0.5000 (  2772 PWs)   bands (ev):

   -71.2205 -71.2204 -37.3710 -37.3710 -37.2439 -37.2439 -37.1694 -37.1694
    12.5500  12.5500  13.8592  13.8592  14.3543  14.3543  15.3845  15.3845
    16.2205  16.2205  17.3947  17.3947

     occupation numbers 
     1.0000   1.0000   1.0000   1.0000   1.0000   1.0000   1.0000   1.0000
     1.0000   1.0000   1.0000   1.0000   1.0000   1.0000   1.0000   1.0000
     1.0000   1.0000   0.0000   0.0000

          k = 0.1000 0.3000 0.3000 (  2758 PWs)   bands (ev):

   -71.2373 -71.2039 -37.4091 -37.3413 -37.2935 -37.1953 -37.1949 -37.1309
    11.6377  12.8891  13.7598  13.8890  14.2642  14.3654  15.5500  15.5933
    15.7513  16.3911  16.7353  20.8643

     occupation numbers 
     1.0000   1.0000   1.0000   1.0000   1.0000   1.0000   1.0000   1.0000
     1.0000   1.0000   1.0000   1.0000   1.0000   1.0000   1.0000   1.0000
     1.0000   1.0000   0.0419   0.0000

          k = 0.1000 0.3000 0.4000 (  2783 PWs)   bands (ev):

   -71.2284 -71.2109 -37.4151 -37.3795 -37.2688 -37.2165 -37.1690 -37.1356
    12.1334  12.7116  13.8059  13.9646  14.2671  14.6173  15.5183  15.6132
    15.9066  16.6414  16.9238  19.3498

     occupation numbers 
     1.0000   1.0000   1.0000   1.0000   1.0000   1.0000   1.0000   1.0000
     1.0000   1.0000   1.0000   1.0000   1.0000   1.0000   1.0000   1.0000
     1.0000   1.0000   0.0000   0.0000

          k = 0.1000 0.3000-0.5000 (  2792 PWs)   bands (ev):

   -71.2193 -71.2193 -37.4053 -37.4053 -37.2420 -37.2420 -37.1487 -37.1487
    12.4674  12.4675  13.8356  13.8356  14.5850  14.5851  15.5865  15.5865
    16.3270  16.3270  17.8337  17.8337

     occupation numbers 
     1.0000   1.0000   1.0000   1.0000   1.0000   1.0000   1.0000   1.0000
     1.0000   1.0000   1.0000   1.0000   1.0000   1.0000   1.0000   1.0000
     1.0000   1.0000   0.0000   0.0000

          k = 0.1000 0.4000 0.4000 (  2775 PWs)   bands (ev):

   -71.2233 -71.2141 -37.4304 -37.4119 -37.2546 -37.2267 -37.1485 -37.1313
    12.2460  12.4946  13.6646  13.7795  14.8069  15.3279  15.6085  15.7367
    15.8084  16.6202  17.4431  19.1175

     occupation numbers 
     1.0000   1.0000   1.0000   1.0000   1.0000   1.0000   1.0000   1.0000
     1.0000   1.0000   1.0000   1.0000   1.0000   1.0000   1.0000   1.0000
     1.0000   1.0000   0.0000   0.0000

          k = 0.1000 0.4000-0.5000 (  2774 PWs)   bands (ev):

   -71.2184 -71.2183 -37.4298 -37.4298 -37.2399 -37.2398 -37.1357 -37.1357
    12.3403  12.3403  13.6534  13.6534  15.2968  15.2968  15.7046  15.7046
    16.2882  16.2882  18.2083  18.2083

     occupation numbers 
     1.0000   1.0000   1.0000   1.0000   1.0000   1.0000   1.0000   1.0000
     1.0000   1.0000   1.0000   1.0000   1.0000   1.0000   1.0000   1.0000
     1.0000   1.0000   0.0000   0.0000

          k = 0.1000-0.5000-0.5000 (  2756 PWs)   bands (ev):

   -71.2180 -71.2180 -37.4386 -37.4386 -37.2390 -37.2389 -37.1314 -37.1314
    12.2878  12.2878  13.5822  13.5822  15.7381  15.7382  15.8314  15.8315
    16.0684  16.0684  18.3708  18.3708

     occupation numbers 
     1.0000   1.0000   1.0000   1.0000   1.0000   1.0000   1.0000   1.0000
     1.0000   1.0000   1.0000   1.0000   1.0000   1.0000   1.0000   1.0000
     1.0000   1.0000   0.0000   0.0000

          k = 0.2000 0.2000 0.2000 (  2785 PWs)   bands (ev):

   -71.2488 -71.1950 -37.3630 -37.3630 -37.2850 -37.2280 -37.1484 -37.1484
    10.7950  13.1065  13.1065  14.0961  14.0961  14.5238  15.6267  15.6267
    15.9552  16.3270  16.3270  23.8654

     occupation numbers 
     1.0000   1.0000   1.0000   1.0000   1.0000   1.0000   1.0000   1.0000
     1.0000   1.0000   1.0000   1.0000   1.0000   1.0000   1.0000   1.0000
     1.0000   1.0000   1.0000   0.0000

          k = 0.2000 0.2000 0.3000 (  2779 PWs)   bands (ev):

   -71.2403 -71.2012 -37.3823 -37.3326 -37.3230 -37.2004 -37.1767 -37.1454
    11.5169  13.2888  13.3242  13.9716  14.0059  14.1863  15.5490  15.7632
    15.9321  16.4081  16.4414  21.6818

     occupation numbers 
     1.0000   1.0000   1.0000   1.0000   1.0000   1.0000   1.0000   1.0000
     1.0000   1.0000   1.0000   1.0000   1.0000   1.0000   1.0000   1.0000
     1.0000   1.0000   1.0000   0.0000

          k = 0.2000 0.2000 0.4000 (  2797 PWs)   bands (ev):

   -71.2301 -71.2096 -37.3890 -37.3570 -37.2948 -37.2128 -37.1774 -37.1493
    12.2473  13.1655  13.4903  13.8327  14.1214  14.2363  15.4839  15.6374
    15.9138  16.3121  17.0630  19.6188

     occupation numbers 
     1.0000   1.0000   1.0000   1.0000   1.0000   1.0000   1.0000   1.0000
     1.0000   1.0000   1.0000   1.0000   1.0000   1.0000   1.0000   1.0000
     1.0000   1.0000   0.0000   0.0000

          k = 0.2000 0.2000-0.5000 (  2776 PWs)   bands (ev):

   -71.2195 -71.2195 -37.3803 -37.3803 -37.2535 -37.2535 -37.1602 -37.1602
    12.7869  12.7869  13.6757  13.6757  14.2894  14.2894  15.4932  15.4933
    16.1067  16.1067  18.0515  18.0515

     occupation numbers 
     1.0000   1.0000   1.0000   1.0000   1.0000   1.0000   1.0000   1.0000
     1.0000   1.0000   1.0000   1.0000   1.0000   1.0000   1.0000   1.0000
     1.0000   1.0000   0.0000   0.0000

          k = 0.2000 0.3000 0.3000 (  2771 PWs)   bands (ev):

   -71.2338 -71.2054 -37.3875 -37.3535 -37.3242 -37.1899 -37.1788 -37.1508
    12.1070  13.2207  13.7487  13.8059  13.8782  13.9740  15.6507  15.7494
    15.8322  16.3459  17.0174  21.8384

     occupation numbers 
     1.0000   1.0000   1.0000   1.0000   1.0000   1.0000   1.0000   1.0000
     1.0000   1.0000   1.0000   1.0000   1.0000   1.0000   1.0000   1.0000
     1.0000   1.0000   0.0000   0.0000

          k = 0.2000 0.3000 0.4000 (  2775 PWs)   bands (ev):

   -71.2262 -71.2113 -37.3971 -37.3798 -37.2931 -37.2194 -37.1636 -37.1514
    12.5569  13.0261  13.7168  13.7198  14.1905  14.1931  15.6437  15.6933
    15.8557  16.2618  17.7209  20.2930

     occupation numbers 
     1.0000   1.0000   1.0000   1.0000   1.0000   1.0000   1.0000   1.0000
     1.0000   1.0000   1.0000   1.0000   1.0000   1.0000   1.0000   1.0000
     1.0000   1.0000   0.0000   0.0000

          k = 0.2000 0.3000-0.5000 (  2790 PWs)   bands (ev):

   -71.2184 -71.2183 -37.3953 -37.3953 -37.2558 -37.2558 -37.1547 -37.1547
    12.8098  12.8098  13.6883  13.6883  14.3743  14.3743  15.6461  15.6461
    16.0497  16.0497  18.7653  18.7653

     occupation numbers 
     1.0000   1.0000   1.0000   1.0000   1.0000   1.0000   1.0000   1.0000
     1.0000   1.0000   1.0000   1.0000   1.0000   1.0000   1.0000   1.0000
     1.0000   1.0000   0.0000   0.0000

          k = 0.2000 0.4000 0.4000 (  2787 PWs)   bands (ev):

   -71.2217 -71.2139 -37.4073 -37.3993 -37.2756 -37.2326 -37.1560 -37.1527
    12.6494  12.8202  13.6122  13.6777  14.5761  14.6616  15.7196  15.7391
    15.8174  16.1758  18.4757  20.3445

     occupation numbers 
     1.0000   1.0000   1.0000   1.0000   1.0000   1.0000   1.0000   1.0000
     1.0000   1.0000   1.0000   1.0000   1.0000   1.0000   1.0000   1.0000
     1.0000   1.0000   0.0000   0.0000

          k = 0.2000 0.4000-0.5000 (  2788 PWs)   bands (ev):

   -71.2175 -71.2174 -37.4093 -37.4093 -37.2529 -37.2528 -37.1534 -37.1534
    12.6975  12.6975  13.5977  13.5977  14.8730  14.8730  15.7469  15.7470
    15.9540  15.9540  19.4333  19.4333

     occupation numbers 
     1.0000   1.0000   1.0000   1.0000   1.0000   1.0000   1.0000   1.0000
     1.0000   1.0000   1.0000   1.0000   1.0000   1.0000   1.0000   1.0000
     1.0000   1.0000   0.0000   0.0000

          k = 0.2000-0.5000-0.5000 (  2768 PWs)   bands (ev):

   -71.2171 -71.2170 -37.4148 -37.4148 -37.2509 -37.2508 -37.1535 -37.1535
    12.6461  12.6461  13.5448  13.5448  15.2033  15.2033  15.7792  15.7792
    15.8393  15.8394  19.7731  19.7731

     occupation numbers 
     1.0000   1.0000   1.0000   1.0000   1.0000   1.0000   1.0000   1.0000
     1.0000   1.0000   1.0000   1.0000   1.0000   1.0000   1.0000   1.0000
     1.0000   1.0000   0.0000   0.0000

          k = 0.3000 0.3000 0.3000 (  2785 PWs)   bands (ev):

   -71.2288 -71.2082 -37.3690 -37.3541 -37.3541 -37.1821 -37.1821 -37.1676
    12.7255  13.4743  13.7120  13.7120  13.7161  13.7161  15.7400  15.7400
    16.0112  16.0112  17.7390  23.1454

     occupation numbers 
     1.0000   1.0000   1.0000   1.0000   1.0000   1.0000   1.0000   1.0000
     1.0000   1.0000   1.0000   1.0000   1.0000   1.0000   1.0000   1.0000
     1.0000   1.0000   0.0000   0.0000

          k = 0.3000 0.3000 0.4000 (  2770 PWs)   bands (ev):

   -71.2230 -71.2121 -37.3814 -37.3755 -37.3125 -37.2220 -37.1735 -37.1639
    13.0606  13.2429  13.6473  13.6677  13.8801  14.0816  15.7283  15.8150
    15.8326  16.0343  18.5947  21.3494

     occupation numbers 
     1.0000   1.0000   1.0000   1.0000   1.0000   1.0000   1.0000   1.0000
     1.0000   1.0000   1.0000   1.0000   1.0000   1.0000   1.0000   1.0000
     1.0000   1.0000   0.0000   0.0000

          k = 0.3000 0.3000-0.5000 (  2784 PWs)   bands (ev):

   -71.2173 -71.2172 -37.3847 -37.3847 -37.2670 -37.2669 -37.1665 -37.1665
    13.1155  13.1155  13.6344  13.6344  14.1773  14.1774  15.7384  15.7384
    15.9393  15.9394  19.7584  19.7584

     occupation numbers 
     1.0000   1.0000   1.0000   1.0000   1.0000   1.0000   1.0000   1.0000
     1.0000   1.0000   1.0000   1.0000   1.0000   1.0000   1.0000   1.0000
     1.0000   1.0000   0.0000   0.0000

          k = 0.3000 0.4000 0.4000 (  2784 PWs)   bands (ev):

   -71.2195 -71.2138 -37.3824 -37.3714 -37.3018 -37.2357 -37.1865 -37.1707
    13.1705  13.1990  13.5688  13.6774  14.1028  14.2358  15.7915  15.8224
    15.8269  15.9519  19.5716  21.8166

     occupation numbers 
     1.0000   1.0000   1.0000   1.0000   1.0000   1.0000   1.0000   1.0000
     1.0000   1.0000   1.0000   1.0000   1.0000   1.0000   1.0000   1.0000
     1.0000   1.0000   0.0000   0.0000

          k = 0.3000 0.4000-0.5000 (  2776 PWs)   bands (ev):

   -71.2163 -71.2163 -37.3791 -37.3791 -37.2681 -37.2681 -37.1808 -37.1808
    13.1453  13.1453  13.5833  13.5833  14.3544  14.3544  15.8046  15.8046
    15.8793  15.8793  20.7445  20.7445

     occupation numbers 
     1.0000   1.0000   1.0000   1.0000   1.0000   1.0000   1.0000   1.0000
     1.0000   1.0000   1.0000   1.0000   1.0000   1.0000   1.0000   1.0000
     1.0000   1.0000   0.0000   0.0000

          k = 0.3000-0.5000-0.5000 (  2768 PWs)   bands (ev):

   -71.2160 -71.2159 -37.3781 -37.3781 -37.2656 -37.2655 -37.1882 -37.1882
    13.1270  13.1270  13.5250  13.5250  14.5283  14.5283  15.8245  15.8245
    15.8491  15.8492  21.3357  21.3357

     occupation numbers 
     1.0000   1.0000   1.0000   1.0000   1.0000   1.0000   1.0000   1.0000
     1.0000   1.0000   1.0000   1.0000   1.0000   1.0000   1.0000   1.0000
     1.0000   1.0000   0.0000   0.0000

          k = 0.4000 0.4000 0.4000 (  2764 PWs)   bands (ev):

   -71.2172 -71.2142 -37.3649 -37.3267 -37.3267 -37.2295 -37.2295 -37.1911
    13.3030  13.5813  13.5813  13.8389  13.9134  13.9134  15.8341  15.8341
    15.8688  15.8688  20.7449  23.4676

     occupation numbers 
     1.0000   1.0000   1.0000   1.0000   1.0000   1.0000   1.0000   1.0000
     1.0000   1.0000   1.0000   1.0000   1.0000   1.0000   1.0000   1.0000
     1.0000   1.0000   0.0000   0.0000

          k = 0.4000 0.4000-0.5000 (  2780 PWs)   bands (ev):

   -71.2154 -71.2153 -37.3474 -37.3473 -37.2778 -37.2778 -37.2129 -37.2129
    13.4116  13.4116  13.6895  13.6896  14.0244  14.0244  15.8428  15.8428
    15.8612  15.8613  22.0792  22.0792

     occupation numbers 
     1.0000   1.0000   1.0000   1.0000   1.0000   1.0000   1.0000   1.0000
     1.0000   1.0000   1.0000   1.0000   1.0000   1.0000   1.0000   1.0000
     1.0000   1.0000   0.0000   0.0000

          k = 0.4000-0.5000-0.5000 (  2804 PWs)   bands (ev):

   -71.2151 -71.2150 -37.3322 -37.3322 -37.2774 -37.2774 -37.2323 -37.2323
    13.5556  13.5556  13.5715  13.5715  14.0418  14.0418  15.8527  15.8528
    15.8570  15.8571  23.0468  23.0468

     occupation numbers 
     1.0000   1.0000   1.0000   1.0000   1.0000   1.0000   1.0000   1.0000
     1.0000   1.0000   1.0000   1.0000   1.0000   1.0000   1.0000   1.0000
     1.0000   1.0000   0.0000   0.0000

          k =-0.5000-0.5000-0.5000 (  2800 PWs)   bands (ev):

   -71.2147 -71.2146 -37.2820 -37.2820 -37.2820 -37.2819 -37.2819 -37.2819
    13.7312  13.7312  13.7312  13.7312  13.7312  13.7312  15.8601  15.8601
    15.8601  15.8601  24.8957  24.8957

     occupation numbers 
     1.0000   1.0000   1.0000   1.0000   1.0000   1.0000   1.0000   1.0000
     1.0000   1.0000   1.0000   1.0000   1.0000   1.0000   1.0000   1.0000
     1.0000   1.0000   0.0000   0.0000

 ------ SPIN DOWN ----------


          k = 0.0000 0.0000 0.0000 (  2801 PWs)   bands (ev):

   -68.5208 -68.4097 -34.6786 -34.6786 -34.6786 -34.4183 -34.4183 -34.4183
     8.7660  14.1604  14.1604  16.5890  16.5890  16.5890  18.5131  18.5131
    19.0776  19.0776  19.0776  26.3634

     occupation numbers 
     1.0000   1.0000   1.0000   1.0000   1.0000   1.0000   1.0000   1.0000
     1.0000   1.0000   1.0000   1.0000   1.0000   1.0000   0.0000   0.0000
     0.0000   0.0000   0.0000   0.0000

          k = 0.0000 0.0000 0.1000 (  2805 PWs)   bands (ev):

   -68.5177 -68.4120 -34.6776 -34.6719 -34.6719 -34.4302 -34.4243 -34.4243
     8.9638  14.2186  14.2585  16.5802  16.5802  16.6466  18.4020  18.5550
    18.8663  18.8663  19.0136  25.2770

     occupation numbers 
     1.0000   1.0000   1.0000   1.0000   1.0000   1.0000   1.0000   1.0000
     1.0000   1.0000   1.0000   1.0000   1.0000   1.0000   0.0000   0.0000
     0.0000   0.0000   0.0000   0.0000

          k = 0.0000 0.0000 0.2000 (  2801 PWs)   bands (ev):

   -68.5088 -68.4189 -34.6733 -34.6524 -34.6524 -34.4630 -34.4418 -34.4418
     9.5435  14.3317  14.5459  16.5688  16.5688  16.8149  18.0790  18.3650
    18.3650  18.6683  18.8285  23.2214

     occupation numbers 
     1.0000   1.0000   1.0000   1.0000   1.0000   1.0000   1.0000   1.0000
     1.0000   1.0000   1.0000   1.0000   1.0000   0.0000   0.0000   0.0000
     0.0000   0.0000   0.0000   0.0000

          k = 0.0000 0.0000 0.3000 (  2790 PWs)   bands (ev):

   -68.4953 -68.4299 -34.6620 -34.6225 -34.6225 -34.5095 -34.4694 -34.4694
    10.4604  14.3035  15.0019  16.5930  16.5930  17.0797  17.5761  17.7948
    17.7948  18.5428  18.8238  21.2955

     occupation numbers 
     1.0000   1.0000   1.0000   1.0000   1.0000   1.0000   1.0000   1.0000
     1.0000   1.0000   1.0000   1.0000   1.0000   0.0000   0.0000   0.0000
     0.0000   0.0000   0.0000   0.0000

          k = 0.0000 0.0000 0.4000 (  2794 PWs)   bands (ev):

   -68.4788 -68.4444 -34.6399 -34.5852 -34.5852 -34.5599 -34.5047 -34.5047
    11.6236  13.8422  15.5908  16.6992  16.6992  16.9471  17.2955  17.2955
    17.4182  18.1874  19.0075  19.9621

     occupation numbers 
     1.0000   1.0000   1.0000   1.0000   1.0000   1.0000   1.0000   1.0000
     1.0000   1.0000   1.0000   0.9788   0.9788   0.0000   0.0000   0.0000
     0.0000   0.0000   0.0000   0.0000

          k = 0.0000 0.0000-0.5000 (  2762 PWs)   bands (ev):

   -68.4612 -68.4612 -34.6053 -34.6053 -34.5446 -34.5446 -34.5446 -34.5446
    12.8549  12.8549  16.2610  16.2610  16.9267  16.9267  16.9267  16.9267
    17.7995  17.7995  19.2987  19.2987

     occupation numbers 
     1.0000   1.0000   1.0000   1.0000   1.0000   1.0000   1.0000   1.0000
     1.0000   1.0000   1.0000   1.0000   0.0000   0.0000   0.0000   0.0000
     0.0000   0.0000   0.0000   0.0000

          k = 0.0000 0.1000 0.1000 (  2799 PWs)   bands (ev):

   -68.5147 -68.4142 -34.6883 -34.6655 -34.6541 -34.4534 -34.4300 -34.4183
     9.1589  14.3048  14.3253  16.4660  16.5599  16.8092  18.3871  18.5226
    18.5393  18.6576  19.1038  25.4132

     occupation numbers 
     1.0000   1.0000   1.0000   1.0000   1.0000   1.0000   1.0000   1.0000
     1.0000   1.0000   1.0000   1.0000   1.0000   0.0000   0.0000   0.0000
     0.0000   0.0000   0.0000   0.0000

          k = 0.0000 0.1000 0.2000 (  2785 PWs)   bands (ev):

   -68.5062 -68.4207 -34.6935 -34.6469 -34.6267 -34.4942 -34.4465 -34.4258
     9.7300  14.4270  14.5892  16.3731  16.5159  17.0565  18.0025  18.1423
    18.1823  18.6196  19.0325  23.4932

     occupation numbers 
     1.0000   1.0000   1.0000   1.0000   1.0000   1.0000   1.0000   1.0000
     1.0000   1.0000   1.0000   1.0000   1.0000   0.0000   0.0000   0.0000
     0.0000   0.0000   0.0000   0.0000

          k = 0.0000 0.1000 0.3000 (  2776 PWs)   bands (ev):

   -68.4933 -68.4311 -34.6888 -34.6183 -34.5928 -34.5443 -34.4727 -34.4467
    10.6303  14.3917  15.0130  16.3477  16.4751  17.3644  17.4451  17.7011
    17.7374  18.7848  18.8061  21.5126

     occupation numbers 
     1.0000   1.0000   1.0000   1.0000   1.0000   1.0000   1.0000   1.0000
     1.0000   1.0000   1.0000   1.0000   1.0000   0.0000   0.0000   0.0000
     0.0000   0.0000   0.0000   0.0000

          k = 0.0000 0.1000 0.4000 (  2793 PWs)   bands (ev):

   -68.4775 -68.4448 -34.6713 -34.5954 -34.5828 -34.5545 -34.5062 -34.4777
    11.7660  13.9236  15.5390  16.3946  16.4216  16.9689  17.3329  17.3735
    17.7220  18.4810  18.9814  20.0739

     occupation numbers 
     1.0000   1.0000   1.0000   1.0000   1.0000   1.0000   1.0000   1.0000
     1.0000   1.0000   1.0000   1.0000   1.0000   0.0000   0.0000   0.0000
     0.0000   0.0000   0.0000   0.0000

          k = 0.0000 0.1000-0.5000 (  2790 PWs)   bands (ev):

   -68.4608 -68.4608 -34.6395 -34.6395 -34.5441 -34.5441 -34.5149 -34.5149
    12.9605  12.9605  16.0687  16.0687  16.6238  16.6238  17.2127  17.2127
    18.1056  18.1056  19.3121  19.3121

     occupation numbers 
     1.0000   1.0000   1.0000   1.0000   1.0000   1.0000   1.0000   1.0000
     1.0000   1.0000   1.0000   1.0000   1.0000   1.0000   0.0000   0.0000
     0.0000   0.0000   0.0000   0.0000

          k = 0.0000 0.2000 0.2000 (  2760 PWs)   bands (ev):

   -68.4988 -68.4260 -34.7135 -34.6309 -34.5895 -34.5447 -34.4604 -34.4182
    10.2724  14.6075  14.7420  16.1545  16.4023  17.4199  17.4305  17.8161
    18.2068  18.5595  19.1726  23.5609

     occupation numbers 
     1.0000   1.0000   1.0000   1.0000   1.0000   1.0000   1.0000   1.0000
     1.0000   1.0000   1.0000   1.0000   1.0000   0.0000   0.0000   0.0000
     0.0000   0.0000   0.0000   0.0000

          k = 0.0000 0.2000 0.3000 (  2771 PWs)   bands (ev):

   -68.4876 -68.4347 -34.7221 -34.6063 -34.5999 -34.5501 -34.4824 -34.4253
    11.1159  14.5162  15.1188  16.0230  16.2917  16.8842  17.5727  17.8115
    18.0355  18.6858  19.1189  21.9055

     occupation numbers 
[...]
    10.8002  14.4891  15.0228  16.2528  16.2961  17.0259  17.6023  17.8526
    17.9097  18.7521  18.8163  21.7560

     occupation numbers 
     1.0000   1.0000   1.0000   1.0000   1.0000   1.0000   1.0000   1.0000
     1.0000   1.0000   1.0000   1.0000   1.0000   0.0000   0.0000   0.0000
     0.0000   0.0000   0.0000   0.0000

          k = 0.1000 0.1000 0.4000 (  2790 PWs)   bands (ev):

   -68.4763 -68.4452 -34.6841 -34.6157 -34.5915 -34.5315 -34.5080 -34.4654
    11.9109  14.0153  15.4810  16.1724  16.3164  16.7183  17.5046  17.5170
    17.9757  18.5837  18.9647  20.2386

     occupation numbers 
     1.0000   1.0000   1.0000   1.0000   1.0000   1.0000   1.0000   1.0000
     1.0000   1.0000   1.0000   1.0000   1.0000   0.5175   0.0000   0.0000
     0.0000   0.0000   0.0000   0.0000

          k = 0.1000 0.1000-0.5000 (  2786 PWs)   bands (ev):

   -68.4604 -68.4604 -34.6567 -34.6567 -34.5494 -34.5494 -34.4966 -34.4966
    13.0722  13.0722  15.9076  15.9076  16.4912  16.4912  17.3565  17.3566
    18.3152  18.3152  19.3604  19.3604

     occupation numbers 
     1.0000   1.0000   1.0000   1.0000   1.0000   1.0000   1.0000   1.0000
     1.0000   1.0000   1.0000   1.0000   1.0000   1.0000   0.0000   0.0000
     0.0000   0.0000   0.0000   0.0000

          k = 0.1000 0.2000 0.2000 (  2775 PWs)   bands (ev):

   -68.4966 -68.4274 -34.7059 -34.6533 -34.5666 -34.5611 -34.4541 -34.4250
    10.4524  14.7076  14.7921  16.1091  16.2434  16.9324  17.6304  18.2112
    18.2658  18.5246  18.9773  23.9245

     occupation numbers 
     1.0000   1.0000   1.0000   1.0000   1.0000   1.0000   1.0000   1.0000
     1.0000   1.0000   1.0000   1.0000   1.0000   0.0000   0.0000   0.0000
     0.0000   0.0000   0.0000   0.0000

          k = 0.1000 0.2000 0.3000 (  2771 PWs)   bands (ev):

   -68.4859 -68.4356 -34.7166 -34.6260 -34.6117 -34.5311 -34.4791 -34.4301
    11.2856  14.6394  15.1192  15.9669  16.1249  16.5127  17.8772  18.0369
    18.1044  18.6686  18.9536  22.2204

     occupation numbers 
     1.0000   1.0000   1.0000   1.0000   1.0000   1.0000   1.0000   1.0000
     1.0000   1.0000   1.0000   1.0000   1.0000   1.0000   0.0000   0.0000
     0.0000   0.0000   0.0000   0.0000

          k = 0.1000 0.2000 0.4000 (  2783 PWs)   bands (ev):

   -68.4729 -68.4465 -34.7139 -34.6587 -34.5901 -34.5125 -34.4977 -34.4451
    12.3045  14.1655  15.4665  15.8931  16.0644  16.2989  17.7179  17.8707
    18.4299  18.8099  18.9267  20.5924

     occupation numbers 
     1.0000   1.0000   1.0000   1.0000   1.0000   1.0000   1.0000   1.0000
     1.0000   1.0000   1.0000   1.0000   1.0000   1.0000   0.0000   0.0000
     0.0000   0.0000   0.0000   0.0000

          k = 0.1000 0.2000-0.5000 (  2772 PWs)   bands (ev):

   -68.4593 -68.4593 -34.6943 -34.6943 -34.5508 -34.5508 -34.4683 -34.4683
    13.3330  13.3330  15.7425  15.7425  16.1456  16.1456  17.7312  17.7312
    18.6454  18.6455  19.5106  19.5106

     occupation numbers 
     1.0000   1.0000   1.0000   1.0000   1.0000   1.0000   1.0000   1.0000
     1.0000   1.0000   1.0000   1.0000   1.0000   1.0000   0.0000   0.0000
     0.0000   0.0000   0.0000   0.0000

          k = 0.1000 0.3000 0.3000 (  2758 PWs)   bands (ev):

   -68.4777 -68.4412 -34.7363 -34.6612 -34.6060 -34.4970 -34.4963 -34.4256
    12.0067  14.4981  15.4605  15.7399  16.0318  16.1178  17.8312  18.2597
    18.5160  18.6252  19.0536  22.0294

     occupation numbers 
     1.0000   1.0000   1.0000   1.0000   1.0000   1.0000   1.0000   1.0000
     1.0000   1.0000   1.0000   1.0000   1.0000   1.0000   0.0000   0.0000
     0.0000   0.0000   0.0000   0.0000

          k = 0.1000 0.3000 0.4000 (  2783 PWs)   bands (ev):

   -68.4680 -68.4488 -34.7433 -34.7040 -34.5785 -34.5201 -34.4679 -34.4309
    12.8178  14.1080  15.6322  15.7321  15.9598  16.0575  17.9376  18.2014
    18.7076  18.9939  19.0353  20.8056

     occupation numbers 
     1.0000   1.0000   1.0000   1.0000   1.0000   1.0000   1.0000   1.0000
     1.0000   1.0000   1.0000   1.0000   1.0000   1.0000   0.0000   0.0000
     0.0000   0.0000   0.0000   0.0000

          k = 0.1000 0.3000-0.5000 (  2792 PWs)   bands (ev):

   -68.4580 -68.4580 -34.7327 -34.7327 -34.5486 -34.5485 -34.4454 -34.4454
    13.5460  13.5460  15.6480  15.6480  16.0880  16.0880  18.0888  18.0888
    18.8346  18.8346  19.7209  19.7210

     occupation numbers 
     1.0000   1.0000   1.0000   1.0000   1.0000   1.0000   1.0000   1.0000
     1.0000   1.0000   1.0000   1.0000   1.0000   1.0000   0.0000   0.0000
     0.0000   0.0000   0.0000   0.0000

          k = 0.1000 0.4000 0.4000 (  2775 PWs)   bands (ev):

   -68.4624 -68.4523 -34.7608 -34.7403 -34.5625 -34.5314 -34.4453 -34.4262
    13.2741  13.8807  15.4648  15.5800  16.3286  16.3542  18.1609  18.3563
    18.7138  19.0064  19.4080  20.4850

     occupation numbers 
     1.0000   1.0000   1.0000   1.0000   1.0000   1.0000   1.0000   1.0000
     1.0000   1.0000   1.0000   1.0000   1.0000   1.0000   0.0000   0.0000
     0.0000   0.0000   0.0000   0.0000

          k = 0.1000 0.4000-0.5000 (  2774 PWs)   bands (ev):

   -68.4570 -68.4570 -34.7602 -34.7602 -34.5460 -34.5460 -34.4312 -34.4312
    13.6079  13.6080  15.4442  15.4442  16.5833  16.5833  18.3212  18.3212
    18.8307  18.8307  19.8667  19.8667

     occupation numbers 
     1.0000   1.0000   1.0000   1.0000   1.0000   1.0000   1.0000   1.0000
     1.0000   1.0000   1.0000   1.0000   1.0000   1.0000   0.0000   0.0000
     0.0000   0.0000   0.0000   0.0000

          k = 0.1000-0.5000-0.5000 (  2756 PWs)   bands (ev):

   -68.4566 -68.4566 -34.7701 -34.7701 -34.5449 -34.5449 -34.4264 -34.4264
    13.6092  13.6092  15.3641  15.3641  16.9188  16.9188  18.3989  18.3989
    18.7509  18.7509  19.9052  19.9052

     occupation numbers 
     1.0000   1.0000   1.0000   1.0000   1.0000   1.0000   1.0000   1.0000
     1.0000   1.0000   1.0000   1.0000   0.0000   0.0000   0.0000   0.0000
     0.0000   0.0000   0.0000   0.0000

          k = 0.2000 0.2000 0.2000 (  2785 PWs)   bands (ev):

   -68.4904 -68.4316 -34.6840 -34.6840 -34.5980 -34.5330 -34.4450 -34.4450
    10.9726  14.9306  14.9306  15.9892  15.9892  16.3119  18.0512  18.4214
    18.4214  18.5648  18.5648  24.8419

     occupation numbers 
     1.0000   1.0000   1.0000   1.0000   1.0000   1.0000   1.0000   1.0000
     1.0000   1.0000   1.0000   1.0000   1.0000   1.0000   0.0000   0.0000
     0.0000   0.0000   0.0000   0.0000

          k = 0.2000 0.2000 0.3000 (  2779 PWs)   bands (ev):

   -68.4811 -68.4383 -34.7061 -34.6501 -34.6406 -34.5024 -34.4764 -34.4416
    11.7689  14.9301  15.1235  15.8318  15.8330  15.9800  18.1860  18.2617
    18.5100  18.6332  18.7141  22.8910

     occupation numbers 
     1.0000   1.0000   1.0000   1.0000   1.0000   1.0000   1.0000   1.0000
     1.0000   1.0000   1.0000   1.0000   1.0000   1.0000   0.0000   0.0000
     0.0000   0.0000   0.0000   0.0000

          k = 0.2000 0.2000 0.4000 (  2797 PWs)   bands (ev):

   -68.4699 -68.4474 -34.7140 -34.6786 -34.6079 -34.5166 -34.4770 -34.4460
    12.7194  14.4186  15.3253  15.6686  15.8377  16.0160  17.9742  18.0832
    18.6875  18.7260  19.1589  21.1767

     occupation numbers 
     1.0000   1.0000   1.0000   1.0000   1.0000   1.0000   1.0000   1.0000
     1.0000   1.0000   1.0000   1.0000   1.0000   1.0000   0.0000   0.0000
     0.0000   0.0000   0.0000   0.0000

          k = 0.2000 0.2000-0.5000 (  2776 PWs)   bands (ev):

   -68.4583 -68.4583 -34.7046 -34.7046 -34.5619 -34.5619 -34.4580 -34.4580
    13.6493  13.6493  15.5054  15.5054  15.9612  15.9612  17.9579  17.9579
    18.7169  18.7169  19.9637  19.9637

     occupation numbers 
     1.0000   1.0000   1.0000   1.0000   1.0000   1.0000   1.0000   1.0000
     1.0000   1.0000   1.0000   1.0000   1.0000   1.0000   0.0000   0.0000
     0.0000   0.0000   0.0000   0.0000

          k = 0.2000 0.3000 0.3000 (  2771 PWs)   bands (ev):

   -68.4740 -68.4429 -34.7121 -34.6748 -34.6409 -34.4910 -34.4785 -34.4478
    12.4804  14.8390  15.4142  15.6148  15.6449  15.7040  18.1971  18.3883
    18.6042  18.7139  19.0654  22.9973

     occupation numbers 
     1.0000   1.0000   1.0000   1.0000   1.0000   1.0000   1.0000   1.0000
     1.0000   1.0000   1.0000   1.0000   1.0000   1.0000   0.0000   0.0000
     0.0000   0.0000   0.0000   0.0000

          k = 0.2000 0.3000 0.4000 (  2775 PWs)   bands (ev):

   -68.4655 -68.4492 -34.7232 -34.7041 -34.6061 -34.5239 -34.4617 -34.4484
    13.2600  14.4454  15.4411  15.4898  15.7067  15.7955  18.1791  18.3267
    18.7090  18.7522  19.6629  21.6869

     occupation numbers 
     1.0000   1.0000   1.0000   1.0000   1.0000   1.0000   1.0000   1.0000
     1.0000   1.0000   1.0000   1.0000   1.0000   1.0000   0.0000   0.0000
     0.0000   0.0000   0.0000   0.0000

          k = 0.2000 0.3000-0.5000 (  2790 PWs)   bands (ev):

   -68.4570 -68.4570 -34.7214 -34.7214 -34.5645 -34.5645 -34.4521 -34.4521
    13.9282  13.9282  15.4305  15.4305  15.8261  15.8261  18.2341  18.2341
    18.7538  18.7538  20.4799  20.4799

     occupation numbers 
     1.0000   1.0000   1.0000   1.0000   1.0000   1.0000   1.0000   1.0000
     1.0000   1.0000   1.0000   1.0000   1.0000   1.0000   0.0000   0.0000
     0.0000   0.0000   0.0000   0.0000

          k = 0.2000 0.4000 0.4000 (  2787 PWs)   bands (ev):

   -68.4606 -68.4520 -34.7348 -34.7261 -34.5865 -34.5385 -34.4535 -34.4501
    13.7126  14.2390  15.3601  15.4131  15.8675  15.9889  18.3328  18.4538
    18.7208  18.7798  20.2198  21.6034

     occupation numbers 
     1.0000   1.0000   1.0000   1.0000   1.0000   1.0000   1.0000   1.0000
     1.0000   1.0000   1.0000   1.0000   1.0000   1.0000   0.0000   0.0000
     0.0000   0.0000   0.0000   0.0000

          k = 0.2000 0.4000-0.5000 (  2788 PWs)   bands (ev):

   -68.4559 -68.4559 -34.7372 -34.7372 -34.5610 -34.5610 -34.4508 -34.4508
    14.0035  14.0035  15.3297  15.3297  16.0889  16.0889  18.4304  18.4304
    18.7626  18.7626  20.8913  20.8913

     occupation numbers 
     1.0000   1.0000   1.0000   1.0000   1.0000   1.0000   1.0000   1.0000
     1.0000   1.0000   1.0000   1.0000   1.0000   1.0000   0.0000   0.0000
     0.0000   0.0000   0.0000   0.0000

          k = 0.2000-0.5000-0.5000 (  2768 PWs)   bands (ev):

   -68.4555 -68.4555 -34.7435 -34.7435 -34.5587 -34.5587 -34.4510 -34.4510
    14.0007  14.0007  15.2708  15.2708  16.2967  16.2967  18.4932  18.4932
    18.7617  18.7617  21.0591  21.0591

     occupation numbers 
     1.0000   1.0000   1.0000   1.0000   1.0000   1.0000   1.0000   1.0000
     1.0000   1.0000   1.0000   1.0000   1.0000   1.0000   0.0000   0.0000
     0.0000   0.0000   0.0000   0.0000

          k = 0.3000 0.3000 0.3000 (  2785 PWs)   bands (ev):

   -68.4684 -68.4458 -34.6920 -34.6747 -34.6747 -34.4827 -34.4827 -34.4661
    13.1617  15.0971  15.3456  15.3456  15.4628  15.4628  18.4874  18.4874
    18.5602  18.5602  19.6955  24.2427

     occupation numbers 
     1.0000   1.0000   1.0000   1.0000   1.0000   1.0000   1.0000   1.0000
     1.0000   1.0000   1.0000   1.0000   1.0000   1.0000   0.0000   0.0000
     0.0000   0.0000   0.0000   0.0000

          k = 0.3000 0.3000 0.4000 (  2770 PWs)   bands (ev):

   -68.4620 -68.4501 -34.7058 -34.6990 -34.6282 -34.5272 -34.4731 -34.4621
    13.8547  14.7341  15.2860  15.3376  15.4342  15.5989  18.4086  18.4954
    18.6620  18.7017  20.3879  22.6255

     occupation numbers 
     1.0000   1.0000   1.0000   1.0000   1.0000   1.0000   1.0000   1.0000
     1.0000   1.0000   1.0000   1.0000   1.0000   1.0000   0.0000   0.0000
     0.0000   0.0000   0.0000   0.0000

          k = 0.3000 0.3000-0.5000 (  2784 PWs)   bands (ev):

   -68.4557 -68.4557 -34.7095 -34.7095 -34.5773 -34.5773 -34.4653 -34.4653
    14.3582  14.3582  15.2759  15.2759  15.5858  15.5859  18.4307  18.4307
    18.7379  18.7379  21.3029  21.3029

     occupation numbers 
     1.0000   1.0000   1.0000   1.0000   1.0000   1.0000   1.0000   1.0000
     1.0000   1.0000   1.0000   1.0000   1.0000   1.0000   0.0000   0.0000
     0.0000   0.0000   0.0000   0.0000

          k = 0.3000 0.4000 0.4000 (  2784 PWs)   bands (ev):

   -68.4582 -68.4519 -34.7070 -34.6947 -34.6164 -34.5424 -34.4878 -34.4699
    14.3255  14.6622  15.2421  15.2800  15.4280  15.6246  18.5312  18.5935
    18.7016  18.7244  21.1552  22.9524

     occupation numbers 
     1.0000   1.0000   1.0000   1.0000   1.0000   1.0000   1.0000   1.0000
     1.0000   1.0000   1.0000   1.0000   1.0000   1.0000   0.0000   0.0000
     0.0000   0.0000   0.0000   0.0000

          k = 0.3000 0.4000-0.5000 (  2776 PWs)   bands (ev):

   -68.4547 -68.4546 -34.7033 -34.7033 -34.5787 -34.5787 -34.4814 -34.4814
    14.5239  14.5239  15.2163  15.2163  15.6308  15.6308  18.5790  18.5790
    18.7535  18.7535  22.0634  22.0634

     occupation numbers 
     1.0000   1.0000   1.0000   1.0000   1.0000   1.0000   1.0000   1.0000
     1.0000   1.0000   1.0000   1.0000   1.0000   1.0000   0.0000   0.0000
     0.0000   0.0000   0.0000   0.0000

          k = 0.3000-0.5000-0.5000 (  2768 PWs)   bands (ev):

   -68.4543 -68.4542 -34.7023 -34.7023 -34.5757 -34.5757 -34.4898 -34.4898
    14.5265  14.5265  15.1702  15.1702  15.7634  15.7634  18.6219  18.6219
    18.7752  18.7752  22.4716  22.4716

     occupation numbers 
     1.0000   1.0000   1.0000   1.0000   1.0000   1.0000   1.0000   1.0000
     1.0000   1.0000   1.0000   1.0000   1.0000   1.0000   0.0000   0.0000
     0.0000   0.0000   0.0000   0.0000

          k = 0.4000 0.4000 0.4000 (  2764 PWs)   bands (ev):

   -68.4556 -68.4524 -34.6874 -34.6446 -34.6446 -34.5358 -34.5358 -34.4928
    14.8559  14.8820  15.1701  15.1701  15.3458  15.3458  18.6920  18.6920
    18.7193  18.7193  22.1346  24.4810

     occupation numbers 
     1.0000   1.0000   1.0000   1.0000   1.0000   1.0000   1.0000   1.0000
     1.0000   1.0000   1.0000   1.0000   1.0000   1.0000   0.0000   0.0000
     0.0000   0.0000   0.0000   0.0000

          k = 0.4000 0.4000-0.5000 (  2780 PWs)   bands (ev):

   -68.4536 -68.4536 -34.6678 -34.6678 -34.5898 -34.5898 -34.5174 -34.5174
    14.9057  14.9057  15.1947  15.1947  15.3492  15.3492  18.7054  18.7054
    18.7635  18.7635  23.2457  23.2457

     occupation numbers 
     1.0000   1.0000   1.0000   1.0000   1.0000   1.0000   1.0000   1.0000
     1.0000   1.0000   1.0000   1.0000   1.0000   1.0000   0.0000   0.0000
     0.0000   0.0000   0.0000   0.0000

          k = 0.4000-0.5000-0.5000 (  2804 PWs)   bands (ev):

   -68.4532 -68.4532 -34.6509 -34.6509 -34.5894 -34.5894 -34.5391 -34.5391
    14.9928  14.9928  15.1224  15.1224  15.3895  15.3895  18.7403  18.7403
    18.7861  18.7861  24.0576  24.0576

     occupation numbers 
     1.0000   1.0000   1.0000   1.0000   1.0000   1.0000   1.0000   1.0000
     1.0000   1.0000   1.0000   1.0000   1.0000   1.0000   0.0000   0.0000
     0.0000   0.0000   0.0000   0.0000

          k =-0.5000-0.5000-0.5000 (  2800 PWs)   bands (ev):

   -68.4528 -68.4528 -34.5946 -34.5946 -34.5946 -34.5946 -34.5946 -34.5946
    15.1823  15.1823  15.1823  15.1823  15.1823  15.1823  18.7903  18.7903
    18.7903  18.7903  25.7836  25.7836

     occupation numbers 
     1.0000   1.0000   1.0000   1.0000   1.0000   1.0000   1.0000   1.0000
     1.0000   1.0000   1.0000   1.0000   1.0000   1.0000   0.0000   0.0000
     0.0000   0.0000   0.0000   0.0000

     the Fermi energy is    16.7187 ev

!    total energy              =    -658.53655755 Ry
     total all-electron energy =     -5091.129624 Ry
     estimated scf accuracy    <          2.8E-10 Ry
     smearing contrib. (-TS)   =      -0.00001698 Ry
     internal energy E=F+TS    =    -658.53654057 Ry

     The total energy is F=E-TS. E is the sum of the following terms:
     one-electron contribution =    -232.24855547 Ry
     hartree contribution      =     134.74539151 Ry
     xc contribution           =     -55.44803049 Ry
     ewald contribution        =    -340.00320559 Ry
     one-center paw contrib.   =    -165.58214053 Ry
      -> PAW hartree energy AE =     182.87194193 Ry
      -> PAW hartree energy PS =    -181.57504336 Ry
      -> PAW xc energy AE      =    -110.15935913 Ry
      -> PAW xc energy PS      =      26.07139012 Ry
      -> total E_H with PAW    =     136.04229007 Ry
      -> total E_XC with PAW   =    -139.53599950 Ry

     total magnetization       =     4.56 Bohr mag/cell
     absolute magnetization    =     4.84 Bohr mag/cell

     convergence has been achieved in  15 iterations

     Writing all to output data dir ./out/Fe.save/
 
     init_run     :      0.29s CPU      0.37s WALL (       1 calls)
     electrons    :     13.06s CPU     13.84s WALL (       1 calls)

     Called by init_run:
     wfcinit      :      0.08s CPU      0.12s WALL (       1 calls)
     potinit      :      0.11s CPU      0.14s WALL (       1 calls)
     hinit0       :      0.06s CPU      0.06s WALL (       1 calls)

     Called by electrons:
     c_bands      :      9.27s CPU      9.69s WALL (      15 calls)
     sum_band     :      1.89s CPU      1.95s WALL (      15 calls)
     v_of_rho     :      0.20s CPU      0.20s WALL (      16 calls)
     v_h          :      0.01s CPU      0.01s WALL (      16 calls)
     v_xc         :      0.19s CPU      0.19s WALL (      16 calls)
     newd         :      0.14s CPU      0.17s WALL (      16 calls)
     PAW_pot      :      1.60s CPU      1.89s WALL (      16 calls)
     mix_rho      :      0.03s CPU      0.03s WALL (      15 calls)

     Called by c_bands:
     init_us_2    :      0.13s CPU      0.14s WALL (    1680 calls)
     init_us_2:cp :      0.13s CPU      0.13s WALL (    1680 calls)
     cegterg      :      8.54s CPU      8.78s WALL (     840 calls)

     Called by sum_band:
     sum_band:wei :      0.01s CPU      0.01s WALL (      15 calls)
     sum_band:loo :      1.58s CPU      1.62s WALL (      15 calls)
     sum_band:buf :      0.01s CPU      0.01s WALL (     840 calls)
     sum_band:ini :      0.07s CPU      0.07s WALL (     840 calls)
     sum_band:cal :      0.11s CPU      0.11s WALL (     840 calls)
     sum_band:bec :      0.00s CPU      0.01s WALL (     840 calls)
     addusdens    :      0.25s CPU      0.26s WALL (      15 calls)
                                        0.00s GPU  (      15 calls)
     addusd:skk   :      0.00s CPU      0.00s WALL (      15 calls)
                                        0.00s GPU  (      15 calls)

     Called by *egterg:
     cdiaghg      :      1.22s CPU      1.25s WALL (    2691 calls)
     cegterg:over :      0.24s CPU      0.22s WALL (    1907 calls)
     cegterg:upda :      0.05s CPU      0.07s WALL (    1907 calls)
     cegterg:last :      0.13s CPU      0.15s WALL (    1647 calls)
     h_psi        :      6.57s CPU      6.75s WALL (    2747 calls)
     s_psi        :      0.11s CPU      0.09s WALL (    2747 calls)
     g_psi        :      0.02s CPU      0.03s WALL (    1907 calls)

     Called by h_psi:
     h_psi:calbec :      0.33s CPU      0.31s WALL (    2747 calls)
     vloc_psi     :      6.15s CPU      6.32s WALL (    2747 calls)
     add_vuspsi   :      0.06s CPU      0.10s WALL (    2747 calls)

     General routines
     calbec       :      0.44s CPU      0.41s WALL (    3587 calls)
     fft          :      0.11s CPU      0.11s WALL (     394 calls)
     ffts         :      0.01s CPU      0.01s WALL (      62 calls)
     fftw         :      7.04s CPU      6.96s WALL (   98066 calls)
     interpolate  :      0.01s CPU      0.01s WALL (      32 calls)
 
     Parallel routines

     PAW routines
     PAW_pot      :      1.60s CPU      1.89s WALL (      16 calls)
     PAW_symme    :      0.03s CPU      0.03s WALL (      30 calls)
 
     PWSCF        :     13.50s CPU     14.62s WALL

 
   This run was terminated on:   7:53: 5  16Apr2024            

=------------------------------------------------------------------------------=
   JOB DONE.
=------------------------------------------------------------------------------=
