
     Program PWSCF v.7.2 starts on 16Apr2024 at  8: 0:25 

     This program is part of the open-source Quantum ESPRESSO suite
     for quantum simulation of materials; please cite
         "P. Giannozzi et al., J. Phys.:Condens. Matter 21 395502 (2009);
         "P. Giannozzi et al., J. Phys.:Condens. Matter 29 465901 (2017);
         "P. Giannozzi et al., J. Chem. Phys. 152 154105 (2020);
          URL http://www.quantum-espresso.org", 
     in publications or presentations arising from this work. More details at
     http://www.quantum-espresso.org/quote

     Parallel version (MPI), running on    20 processors

     MPI processes distributed on     1 nodes
     360687 MiB available memory on the printing compute node when the environment starts
 
     Waiting for input...
     Reading input from standard input

     Current dimensions of program PWSCF are:
     Max number of different atomic species (ntypx) = 10
     Max number of k-points (npk) = 120000
     Max angular momentum in pseudopotentials (lmaxx) =  4
     file Fe.pbe-spn-kjpaw_psl.1.0.0.UPF: wavefunction(s)  3P 3D renormalized
     Found identity + ( -0.5000 -0.5000 -0.5000) symmetry
     This is a supercell, fractional translations are disabled
 
     K-points division:     npool     =       2
     R & G space division:  proc/nbgrp/npool/nimage =      10
     Subspace diagonalization in iterative solution of the eigenvalue problem:
     a serial algorithm will be used

 
     Parallelization info
     --------------------
     sticks:   dense  smooth     PW     G-vecs:    dense   smooth      PW
     Min         154      88     27                 4580     1983     328
     Max         155      91     29                 4583     1984     329
     Sum        1549     885    277                45817    19837    3287
 
     Using Slab Decomposition
 


     bravais-lattice index     =            1
     lattice parameter (alat)  =       5.2723  a.u.
     unit-cell volume          =     146.5579 (a.u.)^3
     number of atoms/cell      =            2
     number of atomic types    =            1
     number of electrons       =        32.00
     number of Kohn-Sham states=           20
     kinetic-energy cutoff     =     100.0000  Ry
     charge density cutoff     =     700.0000  Ry
     scf convergence threshold =      4.0E-10
     mixing beta               =       0.4000
     number of iterations used =            8  plain     mixing
     Exchange-correlation= SLA  PW   PBX  PBC
                           (   1   4   3   4   0   0   0)

     celldm(1)=   5.272336  celldm(2)=   0.000000  celldm(3)=   0.000000
     celldm(4)=   0.000000  celldm(5)=   0.000000  celldm(6)=   0.000000

     crystal axes: (cart. coord. in units of alat)
               a(1) = (   1.000000   0.000000   0.000000 )  
               a(2) = (   0.000000   1.000000   0.000000 )  
               a(3) = (   0.000000   0.000000   1.000000 )  

     reciprocal axes: (cart. coord. in units 2 pi/alat)
               b(1) = (  1.000000  0.000000  0.000000 )  
               b(2) = (  0.000000  1.000000  0.000000 )  
               b(3) = (  0.000000  0.000000  1.000000 )  


     PseudoPot. # 1 for Fe read from file:
     /truba/home/amuhaymin/ZnS/pseudo/QE/Fe.pbe-spn-kjpaw_psl.1.0.0.UPF
     MD5 check sum: fc81f059e5c5069939230b1155715ae8
     Pseudo is Projector augmented-wave + core cor, Zval = 16.0
     Generated using &quot;atomic&quot; code by A. Dal Corso  v.6.3
     Shape of augmentation charge: PSQ
     Using radial grid of 1191 points,  6 beta functions with: 
                l(1) =   0
                l(2) =   0
                l(3) =   1
                l(4) =   1
                l(5) =   2
                l(6) =   2
     Q(r) pseudized with 0 coefficients 


     atomic species   valence    mass     pseudopotential
        Fe            16.00    55.84500     Fe( 1.00)

     Starting magnetic structure 
     atomic species   magnetization
        Fe           0.312

     48 Sym. Ops., with inversion, found


                                    s                        frac. trans.

      isym =  1     identity                                     

 cryst.   s( 1) = (     1          0          0      )
                  (     0          1          0      )
                  (     0          0          1      )

 cart.    s( 1) = (  1.0000000  0.0000000  0.0000000 )
                  (  0.0000000  1.0000000  0.0000000 )
                  (  0.0000000  0.0000000  1.0000000 )


      isym =  2     180 deg rotation - cart. axis [0,0,1]        

 cryst.   s( 2) = (    -1          0          0      )
                  (     0         -1          0      )
                  (     0          0          1      )

 cart.    s( 2) = ( -1.0000000  0.0000000  0.0000000 )
                  (  0.0000000 -1.0000000  0.0000000 )
                  (  0.0000000  0.0000000  1.0000000 )


      isym =  3     180 deg rotation - cart. axis [0,1,0]        

 cryst.   s( 3) = (    -1          0          0      )
                  (     0          1          0      )
                  (     0          0         -1      )

 cart.    s( 3) = ( -1.0000000  0.0000000  0.0000000 )
                  (  0.0000000  1.0000000  0.0000000 )
                  (  0.0000000  0.0000000 -1.0000000 )


      isym =  4     180 deg rotation - cart. axis [1,0,0]        

 cryst.   s( 4) = (     1          0          0      )
                  (     0         -1          0      )
                  (     0          0         -1      )

 cart.    s( 4) = (  1.0000000  0.0000000  0.0000000 )
                  (  0.0000000 -1.0000000  0.0000000 )
                  (  0.0000000  0.0000000 -1.0000000 )


      isym =  5     180 deg rotation - cart. axis [1,1,0]        

 cryst.   s( 5) = (     0          1          0      )
                  (     1          0          0      )
                  (     0          0         -1      )

 cart.    s( 5) = (  0.0000000  1.0000000  0.0000000 )
                  (  1.0000000  0.0000000  0.0000000 )
                  (  0.0000000  0.0000000 -1.0000000 )


      isym =  6     180 deg rotation - cart. axis [1,-1,0]       

 cryst.   s( 6) = (     0         -1          0      )
                  (    -1          0          0      )
                  (     0          0         -1      )

 cart.    s( 6) = (  0.0000000 -1.0000000  0.0000000 )
                  ( -1.0000000  0.0000000  0.0000000 )
                  (  0.0000000  0.0000000 -1.0000000 )


      isym =  7      90 deg rotation - cart. axis [0,0,-1]       

 cryst.   s( 7) = (     0         -1          0      )
                  (     1          0          0      )
                  (     0          0          1      )

 cart.    s( 7) = (  0.0000000  1.0000000  0.0000000 )
                  ( -1.0000000  0.0000000  0.0000000 )
                  (  0.0000000  0.0000000  1.0000000 )


      isym =  8      90 deg rotation - cart. axis [0,0,1]        

 cryst.   s( 8) = (     0          1          0      )
                  (    -1          0          0      )
                  (     0          0          1      )

 cart.    s( 8) = (  0.0000000 -1.0000000  0.0000000 )
                  (  1.0000000  0.0000000  0.0000000 )
                  (  0.0000000  0.0000000  1.0000000 )


      isym =  9     180 deg rotation - cart. axis [1,0,1]        

 cryst.   s( 9) = (     0          0          1      )
                  (     0         -1          0      )
                  (     1          0          0      )

 cart.    s( 9) = (  0.0000000  0.0000000  1.0000000 )
                  (  0.0000000 -1.0000000  0.0000000 )
                  (  1.0000000  0.0000000  0.0000000 )


      isym = 10     180 deg rotation - cart. axis [-1,0,1]       

 cryst.   s(10) = (     0          0         -1      )
                  (     0         -1          0      )
                  (    -1          0          0      )

 cart.    s(10) = (  0.0000000  0.0000000 -1.0000000 )
                  (  0.0000000 -1.0000000  0.0000000 )
                  ( -1.0000000  0.0000000  0.0000000 )


      isym = 11      90 deg rotation - cart. axis [0,1,0]        

 cryst.   s(11) = (     0          0         -1      )
                  (     0          1          0      )
                  (     1          0          0      )

 cart.    s(11) = (  0.0000000  0.0000000  1.0000000 )
                  (  0.0000000  1.0000000  0.0000000 )
                  ( -1.0000000  0.0000000  0.0000000 )


      isym = 12      90 deg rotation - cart. axis [0,-1,0]       

 cryst.   s(12) = (     0          0          1      )
                  (     0          1          0      )
                  (    -1          0          0      )

 cart.    s(12) = (  0.0000000  0.0000000 -1.0000000 )
                  (  0.0000000  1.0000000  0.0000000 )
                  (  1.0000000  0.0000000  0.0000000 )


      isym = 13     180 deg rotation - cart. axis [0,1,1]        

 cryst.   s(13) = (    -1          0          0      )
                  (     0          0          1      )
                  (     0          1          0      )

 cart.    s(13) = ( -1.0000000  0.0000000  0.0000000 )
                  (  0.0000000  0.0000000  1.0000000 )
                  (  0.0000000  1.0000000  0.0000000 )


      isym = 14     180 deg rotation - cart. axis [0,1,-1]       

 cryst.   s(14) = (    -1          0          0      )
                  (     0          0         -1      )
                  (     0         -1          0      )

 cart.    s(14) = ( -1.0000000  0.0000000  0.0000000 )
                  (  0.0000000  0.0000000 -1.0000000 )
                  (  0.0000000 -1.0000000  0.0000000 )


      isym = 15      90 deg rotation - cart. axis [-1,0,0]       

 cryst.   s(15) = (     1          0          0      )
                  (     0          0         -1      )
                  (     0          1          0      )

 cart.    s(15) = (  1.0000000  0.0000000  0.0000000 )
                  (  0.0000000  0.0000000  1.0000000 )
                  (  0.0000000 -1.0000000  0.0000000 )


      isym = 16      90 deg rotation - cart. axis [1,0,0]        

 cryst.   s(16) = (     1          0          0      )
                  (     0          0          1      )
                  (     0         -1          0      )

 cart.    s(16) = (  1.0000000  0.0000000  0.0000000 )
                  (  0.0000000  0.0000000 -1.0000000 )
                  (  0.0000000  1.0000000  0.0000000 )


      isym = 17     120 deg rotation - cart. axis [-1,-1,-1]     

 cryst.   s(17) = (     0          0          1      )
                  (     1          0          0      )
                  (     0          1          0      )

 cart.    s(17) = (  0.0000000  1.0000000  0.0000000 )
                  (  0.0000000  0.0000000  1.0000000 )
                  (  1.0000000  0.0000000  0.0000000 )


      isym = 18     120 deg rotation - cart. axis [-1,1,1]       

 cryst.   s(18) = (     0          0         -1      )
                  (    -1          0          0      )
                  (     0          1          0      )

 cart.    s(18) = (  0.0000000 -1.0000000  0.0000000 )
                  (  0.0000000  0.0000000  1.0000000 )
                  ( -1.0000000  0.0000000  0.0000000 )


      isym = 19     120 deg rotation - cart. axis [1,1,-1]       

 cryst.   s(19) = (     0          0         -1      )
                  (     1          0          0      )
                  (     0         -1          0      )

 cart.    s(19) = (  0.0000000  1.0000000  0.0000000 )
                  (  0.0000000  0.0000000 -1.0000000 )
                  ( -1.0000000  0.0000000  0.0000000 )


      isym = 20     120 deg rotation - cart. axis [1,-1,1]       

 cryst.   s(20) = (     0          0          1      )
                  (    -1          0          0      )
                  (     0         -1          0      )

 cart.    s(20) = (  0.0000000 -1.0000000  0.0000000 )
                  (  0.0000000  0.0000000 -1.0000000 )
                  (  1.0000000  0.0000000  0.0000000 )


      isym = 21     120 deg rotation - cart. axis [1,1,1]        

 cryst.   s(21) = (     0          1          0      )
                  (     0          0          1      )
                  (     1          0          0      )

 cart.    s(21) = (  0.0000000  0.0000000  1.0000000 )
                  (  1.0000000  0.0000000  0.0000000 )
                  (  0.0000000  1.0000000  0.0000000 )


      isym = 22     120 deg rotation - cart. axis [-1,1,-1]      

 cryst.   s(22) = (     0         -1          0      )
                  (     0          0         -1      )
                  (     1          0          0      )

 cart.    s(22) = (  0.0000000  0.0000000  1.0000000 )
                  ( -1.0000000  0.0000000  0.0000000 )
                  (  0.0000000 -1.0000000  0.0000000 )


      isym = 23     120 deg rotation - cart. axis [1,-1,-1]      

 cryst.   s(23) = (     0         -1          0      )
                  (     0          0          1      )
                  (    -1          0          0      )

 cart.    s(23) = (  0.0000000  0.0000000 -1.0000000 )
                  ( -1.0000000  0.0000000  0.0000000 )
                  (  0.0000000  1.0000000  0.0000000 )


      isym = 24     120 deg rotation - cart. axis [-1,-1,1]      

 cryst.   s(24) = (     0          1          0      )
                  (     0          0         -1      )
                  (    -1          0          0      )

 cart.    s(24) = (  0.0000000  0.0000000 -1.0000000 )
                  (  1.0000000  0.0000000  0.0000000 )
                  (  0.0000000 -1.0000000  0.0000000 )


      isym = 25     inversion                                    

 cryst.   s(25) = (    -1          0          0      )
                  (     0         -1          0      )
                  (     0          0         -1      )

 cart.    s(25) = ( -1.0000000  0.0000000  0.0000000 )
                  (  0.0000000 -1.0000000  0.0000000 )
                  (  0.0000000  0.0000000 -1.0000000 )


      isym = 26     inv. 180 deg rotation - cart. axis [0,0,1]   

 cryst.   s(26) = (     1          0          0      )
                  (     0          1          0      )
                  (     0          0         -1      )

 cart.    s(26) = (  1.0000000  0.0000000  0.0000000 )
                  (  0.0000000  1.0000000  0.0000000 )
                  (  0.0000000  0.0000000 -1.0000000 )


      isym = 27     inv. 180 deg rotation - cart. axis [0,1,0]   

 cryst.   s(27) = (     1          0          0      )
                  (     0         -1          0      )
                  (     0          0          1      )

 cart.    s(27) = (  1.0000000  0.0000000  0.0000000 )
                  (  0.0000000 -1.0000000  0.0000000 )
                  (  0.0000000  0.0000000  1.0000000 )


      isym = 28     inv. 180 deg rotation - cart. axis [1,0,0]   

 cryst.   s(28) = (    -1          0          0      )
                  (     0          1          0      )
                  (     0          0          1      )

 cart.    s(28) = ( -1.0000000  0.0000000  0.0000000 )
                  (  0.0000000  1.0000000  0.0000000 )
                  (  0.0000000  0.0000000  1.0000000 )


      isym = 29     inv. 180 deg rotation - cart. axis [1,1,0]   

 cryst.   s(29) = (     0         -1          0      )
                  (    -1          0          0      )
                  (     0          0          1      )

 cart.    s(29) = (  0.0000000 -1.0000000  0.0000000 )
                  ( -1.0000000  0.0000000  0.0000000 )
                  (  0.0000000  0.0000000  1.0000000 )


      isym = 30     inv. 180 deg rotation - cart. axis [1,-1,0]  

 cryst.   s(30) = (     0          1          0      )
                  (     1          0          0      )
                  (     0          0          1      )

 cart.    s(30) = (  0.0000000  1.0000000  0.0000000 )
                  (  1.0000000  0.0000000  0.0000000 )
                  (  0.0000000  0.0000000  1.0000000 )


      isym = 31     inv.  90 deg rotation - cart. axis [0,0,-1]  

 cryst.   s(31) = (     0          1          0      )
                  (    -1          0          0      )
                  (     0          0         -1      )

 cart.    s(31) = (  0.0000000 -1.0000000  0.0000000 )
                  (  1.0000000  0.0000000  0.0000000 )
                  (  0.0000000  0.0000000 -1.0000000 )


      isym = 32     inv.  90 deg rotation - cart. axis [0,0,1]   

 cryst.   s(32) = (     0         -1          0      )
                  (     1          0          0      )
                  (     0          0         -1      )

 cart.    s(32) = (  0.0000000  1.0000000  0.0000000 )
                  ( -1.0000000  0.0000000  0.0000000 )
                  (  0.0000000  0.0000000 -1.0000000 )


      isym = 33     inv. 180 deg rotation - cart. axis [1,0,1]   

 cryst.   s(33) = (     0          0         -1      )
                  (     0          1          0      )
                  (    -1          0          0      )

 cart.    s(33) = (  0.0000000  0.0000000 -1.0000000 )
                  (  0.0000000  1.0000000  0.0000000 )
                  ( -1.0000000  0.0000000  0.0000000 )


      isym = 34     inv. 180 deg rotation - cart. axis [-1,0,1]  

 cryst.   s(34) = (     0          0          1      )
                  (     0          1          0      )
                  (     1          0          0      )

 cart.    s(34) = (  0.0000000  0.0000000  1.0000000 )
                  (  0.0000000  1.0000000  0.0000000 )
                  (  1.0000000  0.0000000  0.0000000 )


      isym = 35     inv.  90 deg rotation - cart. axis [0,1,0]   

 cryst.   s(35) = (     0          0          1      )
                  (     0         -1          0      )
                  (    -1          0          0      )

 cart.    s(35) = (  0.0000000  0.0000000 -1.0000000 )
                  (  0.0000000 -1.0000000  0.0000000 )
                  (  1.0000000  0.0000000  0.0000000 )


      isym = 36     inv.  90 deg rotation - cart. axis [0,-1,0]  

 cryst.   s(36) = (     0          0         -1      )
                  (     0         -1          0      )
                  (     1          0          0      )

 cart.    s(36) = (  0.0000000  0.0000000  1.0000000 )
                  (  0.0000000 -1.0000000  0.0000000 )
                  ( -1.0000000  0.0000000  0.0000000 )


      isym = 37     inv. 180 deg rotation - cart. axis [0,1,1]   

 cryst.   s(37) = (     1          0          0      )
                  (     0          0         -1      )
                  (     0         -1          0      )

 cart.    s(37) = (  1.0000000  0.0000000  0.0000000 )
                  (  0.0000000  0.0000000 -1.0000000 )
                  (  0.0000000 -1.0000000  0.0000000 )


      isym = 38     inv. 180 deg rotation - cart. axis [0,1,-1]  

 cryst.   s(38) = (     1          0          0      )
                  (     0          0          1      )
                  (     0          1          0      )

 cart.    s(38) = (  1.0000000  0.0000000  0.0000000 )
                  (  0.0000000  0.0000000  1.0000000 )
                  (  0.0000000  1.0000000  0.0000000 )


      isym = 39     inv.  90 deg rotation - cart. axis [-1,0,0]  

 cryst.   s(39) = (    -1          0          0      )
                  (     0          0          1      )
                  (     0         -1          0      )

 cart.    s(39) = ( -1.0000000  0.0000000  0.0000000 )
                  (  0.0000000  0.0000000 -1.0000000 )
                  (  0.0000000  1.0000000  0.0000000 )


      isym = 40     inv.  90 deg rotation - cart. axis [1,0,0]   

 cryst.   s(40) = (    -1          0          0      )
                  (     0          0         -1      )
                  (     0          1          0      )

 cart.    s(40) = ( -1.0000000  0.0000000  0.0000000 )
                  (  0.0000000  0.0000000  1.0000000 )
                  (  0.0000000 -1.0000000  0.0000000 )


      isym = 41     inv. 120 deg rotation - cart. axis [-1,-1,-1]

 cryst.   s(41) = (     0          0         -1      )
                  (    -1          0          0      )
                  (     0         -1          0      )

 cart.    s(41) = (  0.0000000 -1.0000000  0.0000000 )
                  (  0.0000000  0.0000000 -1.0000000 )
                  ( -1.0000000  0.0000000  0.0000000 )


      isym = 42     inv. 120 deg rotation - cart. axis [-1,1,1]  

 cryst.   s(42) = (     0          0          1      )
                  (     1          0          0      )
                  (     0         -1          0      )

 cart.    s(42) = (  0.0000000  1.0000000  0.0000000 )
                  (  0.0000000  0.0000000 -1.0000000 )
                  (  1.0000000  0.0000000  0.0000000 )


      isym = 43     inv. 120 deg rotation - cart. axis [1,1,-1]  

 cryst.   s(43) = (     0          0          1      )
                  (    -1          0          0      )
                  (     0          1          0      )

 cart.    s(43) = (  0.0000000 -1.0000000  0.0000000 )
                  (  0.0000000  0.0000000  1.0000000 )
                  (  1.0000000  0.0000000  0.0000000 )


      isym = 44     inv. 120 deg rotation - cart. axis [1,-1,1]  

 cryst.   s(44) = (     0          0         -1      )
                  (     1          0          0      )
                  (     0          1          0      )

 cart.    s(44) = (  0.0000000  1.0000000  0.0000000 )
                  (  0.0000000  0.0000000  1.0000000 )
                  ( -1.0000000  0.0000000  0.0000000 )


      isym = 45     inv. 120 deg rotation - cart. axis [1,1,1]   

 cryst.   s(45) = (     0         -1          0      )
                  (     0          0         -1      )
                  (    -1          0          0      )

 cart.    s(45) = (  0.0000000  0.0000000 -1.0000000 )
                  ( -1.0000000  0.0000000  0.0000000 )
                  (  0.0000000 -1.0000000  0.0000000 )


      isym = 46     inv. 120 deg rotation - cart. axis [-1,1,-1] 

 cryst.   s(46) = (     0          1          0      )
                  (     0          0          1      )
                  (    -1          0          0      )

 cart.    s(46) = (  0.0000000  0.0000000 -1.0000000 )
                  (  1.0000000  0.0000000  0.0000000 )
                  (  0.0000000  1.0000000  0.0000000 )


      isym = 47     inv. 120 deg rotation - cart. axis [1,-1,-1] 

 cryst.   s(47) = (     0          1          0      )
                  (     0          0         -1      )
                  (     1          0          0      )

 cart.    s(47) = (  0.0000000  0.0000000  1.0000000 )
                  (  1.0000000  0.0000000  0.0000000 )
                  (  0.0000000 -1.0000000  0.0000000 )


      isym = 48     inv. 120 deg rotation - cart. axis [-1,-1,1] 

 cryst.   s(48) = (     0         -1          0      )
                  (     0          0          1      )
                  (     1          0          0      )

 cart.    s(48) = (  0.0000000  0.0000000  1.0000000 )
                  ( -1.0000000  0.0000000  0.0000000 )
                  (  0.0000000  1.0000000  0.0000000 )


     point group O_h (m-3m) 
     there are 10 classes
     the character table:

       E     8C3   3C2   6C4   6C2'  i     8S6   3s_h  6S4   6s_d 
A_1g   1.00  1.00  1.00  1.00  1.00  1.00  1.00  1.00  1.00  1.00
A_2g   1.00  1.00  1.00 -1.00 -1.00  1.00  1.00  1.00 -1.00 -1.00
E_g    2.00 -1.00  2.00  0.00  0.00  2.00 -1.00  2.00  0.00  0.00
T_1g   3.00  0.00 -1.00  1.00 -1.00  3.00  0.00 -1.00  1.00 -1.00
T_2g   3.00  0.00 -1.00 -1.00  1.00  3.00  0.00 -1.00 -1.00  1.00
A_1u   1.00  1.00  1.00  1.00  1.00 -1.00 -1.00 -1.00 -1.00 -1.00
A_2u   1.00  1.00  1.00 -1.00 -1.00 -1.00 -1.00 -1.00  1.00  1.00
E_u    2.00 -1.00  2.00  0.00  0.00 -2.00  1.00 -2.00  0.00  0.00
T_1u   3.00  0.00 -1.00  1.00 -1.00 -3.00  0.00  1.00 -1.00  1.00
T_2u   3.00  0.00 -1.00 -1.00  1.00 -3.00  0.00  1.00  1.00 -1.00

     the symmetry operations in each class and the name of the first element:

     E        1
          identity                                               
     8C3     17   19   20   18   24   21   22   23
          120 deg rotation - cart. axis [-1,-1,-1]               
     3C2      2    4    3
          180 deg rotation - cart. axis [0,0,1]                  
     6C4      7    8   15   16   12   11
           90 deg rotation - cart. axis [0,0,-1]                 
     6C2'     5    6   14   13   10    9
          180 deg rotation - cart. axis [1,1,0]                  
     i       25
          inversion                                              
     8S6     41   43   44   42   48   45   46   47
          inv. 120 deg rotation - cart. axis [-1,-1,-1]          
     3s_h    26   28   27
          inv. 180 deg rotation - cart. axis [0,0,1]             
     6S4     31   32   39   40   36   35
          inv.  90 deg rotation - cart. axis [0,0,-1]            
     6s_d    29   30   38   37   34   33
          inv. 180 deg rotation - cart. axis [1,1,0]             

   Cartesian axes

     site n.     atom                  positions (alat units)
         1           Fe  tau(   1) = (   0.0000000   0.0000000   0.0000000  )
         2           Fe  tau(   2) = (   0.5000000   0.5000000   0.5000000  )

   Crystallographic axes

     site n.     atom                  positions (cryst. coord.)
         1           Fe  tau(   1) = (  0.0000000  0.0000000  0.0000000  )
         2           Fe  tau(   2) = (  0.5000000  0.5000000  0.5000000  )

     number of k points=    56  Gaussian smearing, width (Ry)=  0.0010
                       cart. coord. in units 2pi/alat
        k(    1) = (   0.0000000   0.0000000   0.0000000), wk =   0.0010000
        k(    2) = (   0.0000000   0.0000000   0.1000000), wk =   0.0060000
        k(    3) = (   0.0000000   0.0000000   0.2000000), wk =   0.0060000
        k(    4) = (   0.0000000   0.0000000   0.3000000), wk =   0.0060000
        k(    5) = (   0.0000000   0.0000000   0.4000000), wk =   0.0060000
        k(    6) = (   0.0000000   0.0000000  -0.5000000), wk =   0.0030000
        k(    7) = (   0.0000000   0.1000000   0.1000000), wk =   0.0120000
        k(    8) = (   0.0000000   0.1000000   0.2000000), wk =   0.0240000
        k(    9) = (   0.0000000   0.1000000   0.3000000), wk =   0.0240000
        k(   10) = (   0.0000000   0.1000000   0.4000000), wk =   0.0240000
        k(   11) = (   0.0000000   0.1000000  -0.5000000), wk =   0.0120000
        k(   12) = (   0.0000000   0.2000000   0.2000000), wk =   0.0120000
        k(   13) = (   0.0000000   0.2000000   0.3000000), wk =   0.0240000
        k(   14) = (   0.0000000   0.2000000   0.4000000), wk =   0.0240000
        k(   15) = (   0.0000000   0.2000000  -0.5000000), wk =   0.0120000
        k(   16) = (   0.0000000   0.3000000   0.3000000), wk =   0.0120000
        k(   17) = (   0.0000000   0.3000000   0.4000000), wk =   0.0240000
        k(   18) = (   0.0000000   0.3000000  -0.5000000), wk =   0.0120000
        k(   19) = (   0.0000000   0.4000000   0.4000000), wk =   0.0120000
        k(   20) = (   0.0000000   0.4000000  -0.5000000), wk =   0.0120000
        k(   21) = (   0.0000000  -0.5000000  -0.5000000), wk =   0.0030000
        k(   22) = (   0.1000000   0.1000000   0.1000000), wk =   0.0080000
        k(   23) = (   0.1000000   0.1000000   0.2000000), wk =   0.0240000
        k(   24) = (   0.1000000   0.1000000   0.3000000), wk =   0.0240000
        k(   25) = (   0.1000000   0.1000000   0.4000000), wk =   0.0240000
        k(   26) = (   0.1000000   0.1000000  -0.5000000), wk =   0.0120000
        k(   27) = (   0.1000000   0.2000000   0.2000000), wk =   0.0240000
        k(   28) = (   0.1000000   0.2000000   0.3000000), wk =   0.0480000
        k(   29) = (   0.1000000   0.2000000   0.4000000), wk =   0.0480000
        k(   30) = (   0.1000000   0.2000000  -0.5000000), wk =   0.0240000
        k(   31) = (   0.1000000   0.3000000   0.3000000), wk =   0.0240000
        k(   32) = (   0.1000000   0.3000000   0.4000000), wk =   0.0480000
        k(   33) = (   0.1000000   0.3000000  -0.5000000), wk =   0.0240000
        k(   34) = (   0.1000000   0.4000000   0.4000000), wk =   0.0240000
        k(   35) = (   0.1000000   0.4000000  -0.5000000), wk =   0.0240000
        k(   36) = (   0.1000000  -0.5000000  -0.5000000), wk =   0.0060000
        k(   37) = (   0.2000000   0.2000000   0.2000000), wk =   0.0080000
        k(   38) = (   0.2000000   0.2000000   0.3000000), wk =   0.0240000
        k(   39) = (   0.2000000   0.2000000   0.4000000), wk =   0.0240000
        k(   40) = (   0.2000000   0.2000000  -0.5000000), wk =   0.0120000
        k(   41) = (   0.2000000   0.3000000   0.3000000), wk =   0.0240000
        k(   42) = (   0.2000000   0.3000000   0.4000000), wk =   0.0480000
        k(   43) = (   0.2000000   0.3000000  -0.5000000), wk =   0.0240000
        k(   44) = (   0.2000000   0.4000000   0.4000000), wk =   0.0240000
        k(   45) = (   0.2000000   0.4000000  -0.5000000), wk =   0.0240000
        k(   46) = (   0.2000000  -0.5000000  -0.5000000), wk =   0.0060000
        k(   47) = (   0.3000000   0.3000000   0.3000000), wk =   0.0080000
        k(   48) = (   0.3000000   0.3000000   0.4000000), wk =   0.0240000
        k(   49) = (   0.3000000   0.3000000  -0.5000000), wk =   0.0120000
        k(   50) = (   0.3000000   0.4000000   0.4000000), wk =   0.0240000
        k(   51) = (   0.3000000   0.4000000  -0.5000000), wk =   0.0240000
        k(   52) = (   0.3000000  -0.5000000  -0.5000000), wk =   0.0060000
        k(   53) = (   0.4000000   0.4000000   0.4000000), wk =   0.0080000
        k(   54) = (   0.4000000   0.4000000  -0.5000000), wk =   0.0120000
        k(   55) = (   0.4000000  -0.5000000  -0.5000000), wk =   0.0060000
        k(   56) = (  -0.5000000  -0.5000000  -0.5000000), wk =   0.0010000

                       cryst. coord.
        k(    1) = (   0.0000000   0.0000000   0.0000000), wk =   0.0010000
        k(    2) = (   0.0000000   0.0000000   0.1000000), wk =   0.0060000
        k(    3) = (   0.0000000   0.0000000   0.2000000), wk =   0.0060000
        k(    4) = (   0.0000000   0.0000000   0.3000000), wk =   0.0060000
        k(    5) = (   0.0000000   0.0000000   0.4000000), wk =   0.0060000
        k(    6) = (   0.0000000   0.0000000  -0.5000000), wk =   0.0030000
        k(    7) = (   0.0000000   0.1000000   0.1000000), wk =   0.0120000
        k(    8) = (   0.0000000   0.1000000   0.2000000), wk =   0.0240000
        k(    9) = (   0.0000000   0.1000000   0.3000000), wk =   0.0240000
        k(   10) = (   0.0000000   0.1000000   0.4000000), wk =   0.0240000
        k(   11) = (   0.0000000   0.1000000  -0.5000000), wk =   0.0120000
        k(   12) = (   0.0000000   0.2000000   0.2000000), wk =   0.0120000
        k(   13) = (   0.0000000   0.2000000   0.3000000), wk =   0.0240000
        k(   14) = (   0.0000000   0.2000000   0.4000000), wk =   0.0240000
        k(   15) = (   0.0000000   0.2000000  -0.5000000), wk =   0.0120000
        k(   16) = (   0.0000000   0.3000000   0.3000000), wk =   0.0120000
        k(   17) = (   0.0000000   0.3000000   0.4000000), wk =   0.0240000
        k(   18) = (   0.0000000   0.3000000  -0.5000000), wk =   0.0120000
        k(   19) = (   0.0000000   0.4000000   0.4000000), wk =   0.0120000
        k(   20) = (   0.0000000   0.4000000  -0.5000000), wk =   0.0120000
        k(   21) = (   0.0000000  -0.5000000  -0.5000000), wk =   0.0030000
        k(   22) = (   0.1000000   0.1000000   0.1000000), wk =   0.0080000
        k(   23) = (   0.1000000   0.1000000   0.2000000), wk =   0.0240000
        k(   24) = (   0.1000000   0.1000000   0.3000000), wk =   0.0240000
        k(   25) = (   0.1000000   0.1000000   0.4000000), wk =   0.0240000
        k(   26) = (   0.1000000   0.1000000  -0.5000000), wk =   0.0120000
        k(   27) = (   0.1000000   0.2000000   0.2000000), wk =   0.0240000
        k(   28) = (   0.1000000   0.2000000   0.3000000), wk =   0.0480000
        k(   29) = (   0.1000000   0.2000000   0.4000000), wk =   0.0480000
        k(   30) = (   0.1000000   0.2000000  -0.5000000), wk =   0.0240000
        k(   31) = (   0.1000000   0.3000000   0.3000000), wk =   0.0240000
        k(   32) = (   0.1000000   0.3000000   0.4000000), wk =   0.0480000
        k(   33) = (   0.1000000   0.3000000  -0.5000000), wk =   0.0240000
        k(   34) = (   0.1000000   0.4000000   0.4000000), wk =   0.0240000
        k(   35) = (   0.1000000   0.4000000  -0.5000000), wk =   0.0240000
        k(   36) = (   0.1000000  -0.5000000  -0.5000000), wk =   0.0060000
        k(   37) = (   0.2000000   0.2000000   0.2000000), wk =   0.0080000
        k(   38) = (   0.2000000   0.2000000   0.3000000), wk =   0.0240000
        k(   39) = (   0.2000000   0.2000000   0.4000000), wk =   0.0240000
        k(   40) = (   0.2000000   0.2000000  -0.5000000), wk =   0.0120000
        k(   41) = (   0.2000000   0.3000000   0.3000000), wk =   0.0240000
        k(   42) = (   0.2000000   0.3000000   0.4000000), wk =   0.0480000
        k(   43) = (   0.2000000   0.3000000  -0.5000000), wk =   0.0240000
        k(   44) = (   0.2000000   0.4000000   0.4000000), wk =   0.0240000
        k(   45) = (   0.2000000   0.4000000  -0.5000000), wk =   0.0240000
        k(   46) = (   0.2000000  -0.5000000  -0.5000000), wk =   0.0060000
        k(   47) = (   0.3000000   0.3000000   0.3000000), wk =   0.0080000
        k(   48) = (   0.3000000   0.3000000   0.4000000), wk =   0.0240000
        k(   49) = (   0.3000000   0.3000000  -0.5000000), wk =   0.0120000
        k(   50) = (   0.3000000   0.4000000   0.4000000), wk =   0.0240000
        k(   51) = (   0.3000000   0.4000000  -0.5000000), wk =   0.0240000
        k(   52) = (   0.3000000  -0.5000000  -0.5000000), wk =   0.0060000
        k(   53) = (   0.4000000   0.4000000   0.4000000), wk =   0.0080000
        k(   54) = (   0.4000000   0.4000000  -0.5000000), wk =   0.0120000
        k(   55) = (   0.4000000  -0.5000000  -0.5000000), wk =   0.0060000
        k(   56) = (  -0.5000000  -0.5000000  -0.5000000), wk =   0.0010000

     Dense  grid:    45817 G-vectors     FFT dimensions: (  45,  45,  45)

     Smooth grid:    19837 G-vectors     FFT dimensions: (  36,  36,  36)

     Dynamical RAM for                 wfc:       0.08 MB

     Dynamical RAM for     wfc (w. buffer):       4.30 MB

     Dynamical RAM for           str. fact:       0.07 MB

     Dynamical RAM for           local pot:       0.00 MB

     Dynamical RAM for          nlocal pot:       0.14 MB

     Dynamical RAM for                qrad:       2.12 MB

     Dynamical RAM for          rho,v,vnew:       0.88 MB

     Dynamical RAM for               rhoin:       0.29 MB

     Dynamical RAM for            rho*nmix:       2.24 MB

     Dynamical RAM for           G-vectors:       0.28 MB

     Dynamical RAM for          h,s,v(r/c):       0.07 MB

     Dynamical RAM for          <psi|beta>:       0.01 MB

     Dynamical RAM for                 psi:       0.15 MB

     Dynamical RAM for                hpsi:       0.15 MB

     Dynamical RAM for                spsi:       0.15 MB

     Dynamical RAM for      wfcinit/wfcrot:       0.16 MB

     Dynamical RAM for           addusdens:       6.68 MB

     Estimated static dynamical RAM per process >       8.68 MB

     Estimated max dynamical RAM per process >      17.60 MB

     Estimated total dynamical RAM >     329.57 MB
     Generating pointlists ...
     new r_m :   0.3572 (alat units)  1.8835 (a.u.) for type    1

     The initial density is read from file :
     ./out/Fe.save/charge-density


     starting charge      32.3466, renormalised to      32.0000

     negative rho (up, down):  0.000E+00 8.829E-05
     Starting wfcs from file
     Checking if some PAW data can be deallocated... 

     total cpu time spent up to now is        0.5 secs

     Self-consistent Calculation

     iteration #  1     ecut=   100.00 Ry     beta= 0.40
     Davidson diagonalization with overlap

---- Real-time Memory Report at c_bands before calling an iterative solver
            56 MiB given to the printing process from OS
             0 MiB allocation reported by mallinfo(arena+hblkhd)
        360112 MiB available memory on the node where the printing process lives
------------------
     ethr =  1.00E-05,  avg # of iterations =  4.5

     negative rho (up, down):  0.000E+00 7.177E-05

     total cpu time spent up to now is        1.8 secs

     total energy              =    -658.52136047 Ry
     estimated scf accuracy    <       0.05241735 Ry

     total magnetization       =     4.21 Bohr mag/cell
     absolute magnetization    =     4.41 Bohr mag/cell

     iteration #  2     ecut=   100.00 Ry     beta= 0.40
     Davidson diagonalization with overlap

---- Real-time Memory Report at c_bands before calling an iterative solver
            72 MiB given to the printing process from OS
             0 MiB allocation reported by mallinfo(arena+hblkhd)
        359870 MiB available memory on the node where the printing process lives
------------------
     ethr =  1.64E-04,  avg # of iterations =  3.1

     negative rho (up, down):  0.000E+00 8.085E-05

     total cpu time spent up to now is        2.8 secs

     total energy              =    -658.53725527 Ry
     estimated scf accuracy    <       0.01363438 Ry

     total magnetization       =     4.12 Bohr mag/cell
     absolute magnetization    =     4.34 Bohr mag/cell

     iteration #  3     ecut=   100.00 Ry     beta= 0.40
     Davidson diagonalization with overlap

---- Real-time Memory Report at c_bands before calling an iterative solver
            73 MiB given to the printing process from OS
             0 MiB allocation reported by mallinfo(arena+hblkhd)
        359857 MiB available memory on the node where the printing process lives
------------------
     ethr =  4.26E-05,  avg # of iterations =  1.9

     negative rho (up, down):  0.000E+00 8.846E-05

     total cpu time spent up to now is        3.7 secs

     total energy              =    -658.53841954 Ry
     estimated scf accuracy    <       0.00073046 Ry

     total magnetization       =     4.12 Bohr mag/cell
     absolute magnetization    =     4.34 Bohr mag/cell

     iteration #  4     ecut=   100.00 Ry     beta= 0.40
     Davidson diagonalization with overlap

---- Real-time Memory Report at c_bands before calling an iterative solver
            74 MiB given to the printing process from OS
             0 MiB allocation reported by mallinfo(arena+hblkhd)
        359843 MiB available memory on the node where the printing process lives
------------------
     ethr =  2.28E-06,  avg # of iterations =  3.7

     negative rho (up, down):  0.000E+00 8.805E-05

     total cpu time spent up to now is        4.7 secs

     total energy              =    -658.53912002 Ry
     estimated scf accuracy    <       0.00273268 Ry

     total magnetization       =     4.14 Bohr mag/cell
     absolute magnetization    =     4.36 Bohr mag/cell

     iteration #  5     ecut=   100.00 Ry     beta= 0.40
     Davidson diagonalization with overlap

---- Real-time Memory Report at c_bands before calling an iterative solver
            74 MiB given to the printing process from OS
             0 MiB allocation reported by mallinfo(arena+hblkhd)
        359837 MiB available memory on the node where the printing process lives
------------------
     ethr =  2.28E-06,  avg # of iterations =  1.0

     negative rho (up, down):  0.000E+00 8.672E-05

     total cpu time spent up to now is        5.5 secs

     total energy              =    -658.53862203 Ry
     estimated scf accuracy    <       0.00143134 Ry

     total magnetization       =     4.14 Bohr mag/cell
     absolute magnetization    =     4.36 Bohr mag/cell

     iteration #  6     ecut=   100.00 Ry     beta= 0.40
     Davidson diagonalization with overlap

---- Real-time Memory Report at c_bands before calling an iterative solver
            75 MiB given to the printing process from OS
             0 MiB allocation reported by mallinfo(arena+hblkhd)
        359831 MiB available memory on the node where the printing process lives
------------------
     ethr =  2.28E-06,  avg # of iterations =  2.8

     negative rho (up, down):  0.000E+00 8.723E-05

     total cpu time spent up to now is        6.4 secs

     total energy              =    -658.53887015 Ry
     estimated scf accuracy    <       0.00000131 Ry

     total magnetization       =     4.13 Bohr mag/cell
     absolute magnetization    =     4.35 Bohr mag/cell

     iteration #  7     ecut=   100.00 Ry     beta= 0.40
     Davidson diagonalization with overlap

---- Real-time Memory Report at c_bands before calling an iterative solver
            76 MiB given to the printing process from OS
             0 MiB allocation reported by mallinfo(arena+hblkhd)
        359824 MiB available memory on the node where the printing process lives
------------------
     ethr =  4.08E-09,  avg # of iterations =  4.9

     negative rho (up, down):  0.000E+00 8.910E-05

     total cpu time spent up to now is        7.8 secs

     total energy              =    -658.53886803 Ry
     estimated scf accuracy    <       0.00004220 Ry

     total magnetization       =     4.12 Bohr mag/cell
     absolute magnetization    =     4.35 Bohr mag/cell

     iteration #  8     ecut=   100.00 Ry     beta= 0.40
     Davidson diagonalization with overlap

---- Real-time Memory Report at c_bands before calling an iterative solver
            78 MiB given to the printing process from OS
             0 MiB allocation reported by mallinfo(arena+hblkhd)
        359817 MiB available memory on the node where the printing process lives
------------------
     ethr =  4.08E-09,  avg # of iterations =  4.4

     negative rho (up, down):  0.000E+00 8.884E-05

     total cpu time spent up to now is        9.0 secs

     total energy              =    -658.53887150 Ry
     estimated scf accuracy    <       0.00000174 Ry

     total magnetization       =     4.13 Bohr mag/cell
     absolute magnetization    =     4.35 Bohr mag/cell

     iteration #  9     ecut=   100.00 Ry     beta= 0.40
     Davidson diagonalization with overlap

---- Real-time Memory Report at c_bands before calling an iterative solver
            79 MiB given to the printing process from OS
             0 MiB allocation reported by mallinfo(arena+hblkhd)
        359810 MiB available memory on the node where the printing process lives
------------------
     ethr =  4.08E-09,  avg # of iterations =  2.5

     negative rho (up, down):  0.000E+00 8.882E-05

     total cpu time spent up to now is       10.0 secs

     total energy              =    -658.53887204 Ry
     estimated scf accuracy    <       0.00000052 Ry

     total magnetization       =     4.13 Bohr mag/cell
     absolute magnetization    =     4.35 Bohr mag/cell

     iteration # 10     ecut=   100.00 Ry     beta= 0.40
     Davidson diagonalization with overlap

---- Real-time Memory Report at c_bands before calling an iterative solver
            80 MiB given to the printing process from OS
             0 MiB allocation reported by mallinfo(arena+hblkhd)
        359803 MiB available memory on the node where the printing process lives
------------------
     ethr =  1.61E-09,  avg # of iterations =  1.0

     negative rho (up, down):  0.000E+00 8.899E-05

     total cpu time spent up to now is       10.7 secs

     total energy              =    -658.53887186 Ry
     estimated scf accuracy    <       0.00000070 Ry

     total magnetization       =     4.13 Bohr mag/cell
     absolute magnetization    =     4.35 Bohr mag/cell

     iteration # 11     ecut=   100.00 Ry     beta= 0.40
     Davidson diagonalization with overlap

---- Real-time Memory Report at c_bands before calling an iterative solver
            81 MiB given to the printing process from OS
             0 MiB allocation reported by mallinfo(arena+hblkhd)
        359799 MiB available memory on the node where the printing process lives
------------------
     ethr =  1.61E-09,  avg # of iterations =  2.6

     negative rho (up, down):  0.000E+00 8.897E-05

     total cpu time spent up to now is       11.6 secs

     total energy              =    -658.53887202 Ry
     estimated scf accuracy    <       0.00000003 Ry

     total magnetization       =     4.13 Bohr mag/cell
     absolute magnetization    =     4.35 Bohr mag/cell

     iteration # 12     ecut=   100.00 Ry     beta= 0.40
     Davidson diagonalization with overlap

---- Real-time Memory Report at c_bands before calling an iterative solver
            81 MiB given to the printing process from OS
             0 MiB allocation reported by mallinfo(arena+hblkhd)
        359794 MiB available memory on the node where the printing process lives
------------------
     ethr =  1.01E-10,  avg # of iterations =  2.9

     negative rho (up, down):  0.000E+00 8.895E-05

     total cpu time spent up to now is       12.6 secs

     total energy              =    -658.53887198 Ry
     estimated scf accuracy    <       0.00000013 Ry

     total magnetization       =     4.13 Bohr mag/cell
     absolute magnetization    =     4.35 Bohr mag/cell

     iteration # 13     ecut=   100.00 Ry     beta= 0.40
     Davidson diagonalization with overlap

---- Real-time Memory Report at c_bands before calling an iterative solver
            83 MiB given to the printing process from OS
             0 MiB allocation reported by mallinfo(arena+hblkhd)
        359792 MiB available memory on the node where the printing process lives
------------------
     ethr =  1.01E-10,  avg # of iterations =  3.5

     negative rho (up, down):  0.000E+00 8.896E-05

     total cpu time spent up to now is       13.7 secs

     total energy              =    -658.53887201 Ry
     estimated scf accuracy    <          5.3E-09 Ry

     total magnetization       =     4.13 Bohr mag/cell
     absolute magnetization    =     4.35 Bohr mag/cell

     iteration # 14     ecut=   100.00 Ry     beta= 0.40
     Davidson diagonalization with overlap

---- Real-time Memory Report at c_bands before calling an iterative solver
            83 MiB given to the printing process from OS
             0 MiB allocation reported by mallinfo(arena+hblkhd)
        359789 MiB available memory on the node where the printing process lives
------------------
     ethr =  1.67E-11,  avg # of iterations =  1.5

     negative rho (up, down):  0.000E+00 8.895E-05

     total cpu time spent up to now is       14.5 secs

     total energy              =    -658.53887201 Ry
     estimated scf accuracy    <          1.1E-09 Ry

     total magnetization       =     4.13 Bohr mag/cell
     absolute magnetization    =     4.35 Bohr mag/cell

     iteration # 15     ecut=   100.00 Ry     beta= 0.40
     Davidson diagonalization with overlap

---- Real-time Memory Report at c_bands before calling an iterative solver
            84 MiB given to the printing process from OS
             0 MiB allocation reported by mallinfo(arena+hblkhd)
        359787 MiB available memory on the node where the printing process lives
------------------
     ethr =  3.40E-12,  avg # of iterations =  2.6

     negative rho (up, down):  0.000E+00 8.895E-05
 
     Magnetic moment per site  (integrated on atomic sphere of radius R)
     atom   1 (R=0.357)  charge= 14.3527  magn=  2.1087
     atom   2 (R=0.357)  charge= 14.3529  magn=  2.1087

     total cpu time spent up to now is       15.5 secs

     End of self-consistent calculation

 ------ SPIN UP ------------


          k = 0.0000 0.0000 0.0000 (  2517 PWs)   bands (ev):

   -68.7846 -68.6188 -34.8841 -34.8841 -34.8841 -34.5394 -34.5394 -34.5394
    10.5470  14.1901  14.1901  16.9787  16.9787  16.9787  18.2607  18.2607
    19.5971  19.5971  19.5971  29.5107

     occupation numbers 
     1.0000   1.0000   1.0000   1.0000   1.0000   1.0000   1.0000   1.0000
     1.0000   1.0000   1.0000   1.0000   1.0000   1.0000   1.0000   1.0000
     0.0000   0.0000   0.0000   0.0000

          k = 0.0000 0.0000 0.1000 (  2489 PWs)   bands (ev):

   -68.7799 -68.6223 -34.8831 -34.8752 -34.8752 -34.5554 -34.5473 -34.5473
    10.7624  14.2842  14.2885  16.9766  16.9766  17.0393  18.1587  18.3008
    19.4078  19.4078  19.5296  28.1601

     occupation numbers 
     1.0000   1.0000   1.0000   1.0000   1.0000   1.0000   1.0000   1.0000
     1.0000   1.0000   1.0000   1.0000   1.0000   1.0000   1.0000   1.0000
     0.6349   0.6349   0.0000   0.0000

          k = 0.0000 0.0000 0.2000 (  2473 PWs)   bands (ev):

   -68.7666 -68.6325 -34.8780 -34.8495 -34.8495 -34.5997 -34.5705 -34.5705
    11.3875  14.5422  14.5593  16.9842  16.9842  17.2163  17.8621  18.4157
    18.9379  18.9379  19.3346  25.6545

     occupation numbers 
     1.0000   1.0000   1.0000   1.0000   1.0000   1.0000   1.0000   1.0000
     1.0000   1.0000   1.0000   1.0000   1.0000   1.0000   1.0000   1.0000
     1.0000   1.0000   1.0000   0.0000

          k = 0.0000 0.0000 0.3000 (  2485 PWs)   bands (ev):

   -68.7463 -68.6488 -34.8640 -34.8098 -34.8098 -34.6621 -34.6070 -34.6070
    12.3491  14.8205  14.9937  17.0377  17.0377  17.3994  17.4947  18.3724
    18.3724  18.6050  19.0337  23.1513

     occupation numbers 
     1.0000   1.0000   1.0000   1.0000   1.0000   1.0000   1.0000   1.0000
     1.0000   1.0000   1.0000   1.0000   1.0000   1.0000   1.0000   1.0000
     1.0000   1.0000   1.0000   0.0000

          k = 0.0000 0.0000 0.4000 (  2464 PWs)   bands (ev):

   -68.7216 -68.6703 -34.8356 -34.7604 -34.7604 -34.7296 -34.6538 -34.6538
    13.4808  14.8878  15.5508  16.8181  17.1804  17.1804  17.8506  17.8516
    17.8516  18.6597  18.9339  21.0529

     occupation numbers 
     1.0000   1.0000   1.0000   1.0000   1.0000   1.0000   1.0000   1.0000
     1.0000   1.0000   1.0000   1.0000   1.0000   1.0000   1.0000   1.0000
     1.0000   1.0000   1.0000   0.0000

          k = 0.0000 0.0000-0.5000 (  2496 PWs)   bands (ev):

   -68.6954 -68.6954 -34.7901 -34.7900 -34.7067 -34.7067 -34.7066 -34.7066
    14.4502  14.4502  16.1796  16.1797  17.4473  17.4473  17.4473  17.4473
    18.2516  18.2516  19.6417  19.6418

     occupation numbers 
     1.0000   1.0000   1.0000   1.0000   1.0000   1.0000   1.0000   1.0000
     1.0000   1.0000   1.0000   1.0000   1.0000   1.0000   1.0000   1.0000
     1.0000   1.0000   0.0000   0.0000

          k = 0.0000 0.1000 0.1000 (  2482 PWs)   bands (ev):

   -68.7754 -68.6255 -34.8973 -34.8667 -34.8518 -34.5864 -34.5548 -34.5394
    10.9738  14.3715  14.3900  16.8579  16.9605  17.2153  18.1515  18.2710
    19.0852  19.2202  19.6248  28.2238

     occupation numbers 
     1.0000   1.0000   1.0000   1.0000   1.0000   1.0000   1.0000   1.0000
     1.0000   1.0000   1.0000   1.0000   1.0000   1.0000   1.0000   1.0000
     1.0000   1.0000   0.0000   0.0000

          k = 0.0000 0.1000 0.2000 (  2474 PWs)   bands (ev):

   -68.7627 -68.6351 -34.9049 -34.8421 -34.8157 -34.6411 -34.5768 -34.5495
    11.5851  14.6096  14.6667  16.7732  16.9275  17.4802  17.9438  18.3698
    18.5568  18.7652  19.5537  25.9102

     occupation numbers 
     1.0000   1.0000   1.0000   1.0000   1.0000   1.0000   1.0000   1.0000
     1.0000   1.0000   1.0000   1.0000   1.0000   1.0000   1.0000   1.0000
     1.0000   1.0000   0.0000   0.0000

          k = 0.0000 0.1000 0.3000 (  2477 PWs)   bands (ev):

   -68.7433 -68.6506 -34.8994 -34.8042 -34.7710 -34.7082 -34.6114 -34.5774
    12.5174  14.8862  15.0697  16.7678  16.8732  17.6375  17.8082  17.9901
    18.2515  18.5637  19.3214  23.3845

     occupation numbers 
     1.0000   1.0000   1.0000   1.0000   1.0000   1.0000   1.0000   1.0000
     1.0000   1.0000   1.0000   1.0000   1.0000   1.0000   1.0000   1.0000
     1.0000   1.0000   1.0000   0.0000

          k = 0.0000 0.1000 0.4000 (  2480 PWs)   bands (ev):

   -68.7197 -68.6710 -34.8768 -34.7765 -34.7572 -34.7203 -34.6558 -34.6185
    13.5970  14.9391  15.5794  16.6299  16.8711  17.4878  17.4986  17.8490
    18.1866  18.9105  18.9835  21.2238

     occupation numbers 
     1.0000   1.0000   1.0000   1.0000   1.0000   1.0000   1.0000   1.0000
     1.0000   1.0000   1.0000   1.0000   1.0000   1.0000   1.0000   1.0000
     1.0000   1.0000   1.0000   0.0000

          k = 0.0000 0.1000-0.5000 (  2472 PWs)   bands (ev):

   -68.6948 -68.6947 -34.8351 -34.8351 -34.7061 -34.7060 -34.6678 -34.6678
    14.5093  14.5093  16.1364  16.1364  17.1083  17.1083  17.6113  17.6113
    18.5904  18.5904  19.7009  19.7010

     occupation numbers 
     1.0000   1.0000   1.0000   1.0000   1.0000   1.0000   1.0000   1.0000
     1.0000   1.0000   1.0000   1.0000   1.0000   1.0000   1.0000   1.0000
     1.0000   1.0000   0.0000   0.0000

          k = 0.0000 0.2000 0.2000 (  2482 PWs)   bands (ev):

   -68.7515 -68.6430 -34.9319 -34.8209 -34.7666 -34.7085 -34.5951 -34.5394
    12.1475  14.7562  14.9867  16.5509  16.8353  17.8678  17.9686  18.0544
    18.3074  18.3774  19.6978  25.8885

     occupation numbers 
     1.0000   1.0000   1.0000   1.0000   1.0000   1.0000   1.0000   1.0000
     1.0000   1.0000   1.0000   1.0000   1.0000   1.0000   1.0000   1.0000
     1.0000   1.0000   0.0000   0.0000

          k = 0.0000 0.2000 0.3000 (  2477 PWs)   bands (ev):

   -68.7347 -68.6558 -34.9440 -34.7883 -34.7823 -34.7145 -34.6242 -34.5491
    12.9708  14.8998  15.4252  16.4272  16.7782  17.3972  17.9701  18.0235
    18.2834  18.4534  19.6450  23.8270

     occupation numbers 
     1.0000   1.0000   1.0000   1.0000   1.0000   1.0000   1.0000   1.0000
     1.0000   1.0000   1.0000   1.0000   1.0000   1.0000   1.0000   1.0000
     1.0000   1.0000   0.0000   0.0000

          k = 0.0000 0.2000 0.4000 (  2482 PWs)   bands (ev):

   -68.7144 -68.6729 -34.9356 -34.8508 -34.7480 -34.6628 -34.6617 -34.5756
    13.8493  14.8710  15.8929  16.4360  16.6536  16.9259  17.8813  17.9309
    18.7032  18.8377  19.4280  21.6031

     occupation numbers 
     1.0000   1.0000   1.0000   1.0000   1.0000   1.0000   1.0000   1.0000
     1.0000   1.0000   1.0000   1.0000   1.0000   1.0000   1.0000   1.0000
     1.0000   1.0000   0.0397   0.0000

          k = 0.0000 0.2000-0.5000 (  2480 PWs)   bands (ev):

   -68.6931 -68.6930 -34.9041 -34.9041 -34.7044 -34.7043 -34.6150 -34.6150
    14.5267  14.5267  16.3312  16.3313  16.6001  16.6001  17.9132  17.9132
    19.0979  19.0979  19.8513  19.8514

     occupation numbers 
     1.0000   1.0000   1.0000   1.0000   1.0000   1.0000   1.0000   1.0000
     1.0000   1.0000   1.0000   1.0000   1.0000   1.0000   1.0000   1.0000
     1.0000   1.0000   0.0000   0.0000

          k = 0.0000 0.3000 0.3000 (  2482 PWs)   bands (ev):

   -68.7219 -68.6646 -34.9744 -34.8575 -34.7640 -34.6602 -34.6447 -34.5395
    13.5461  14.8117  15.9684  16.1884  16.8517  16.9714  17.9079  18.1852
    18.3721  18.7550  19.7889  23.4901

     occupation numbers 
     1.0000   1.0000   1.0000   1.0000   1.0000   1.0000   1.0000   1.0000
     1.0000   1.0000   1.0000   1.0000   1.0000   1.0000   1.0000   1.0000
     1.0000   1.0000   0.0000   0.0000

          k = 0.0000 0.3000 0.4000 (  2483 PWs)   bands (ev):

   -68.7067 -68.6765 -34.9830 -34.9217 -34.7341 -34.6714 -34.6121 -34.5486
    14.0337  14.6288  16.0960  16.4311  16.5416  17.2299  17.9868  18.2501
    18.7070  19.1805  19.7385  21.8158

     occupation numbers 
     1.0000   1.0000   1.0000   1.0000   1.0000   1.0000   1.0000   1.0000
     1.0000   1.0000   1.0000   1.0000   1.0000   1.0000   1.0000   1.0000
     1.0000   1.0000   0.0000   0.0000

          k = 0.0000 0.3000-0.5000 (  2488 PWs)   bands (ev):

   -68.6910 -68.6910 -34.9653 -34.9653 -34.7022 -34.7022 -34.5738 -34.5738
    14.3745  14.3745  16.1746  16.1746  17.0151  17.0152  18.1617  18.1618
    19.5220  19.5220  19.9899  19.9899

     occupation numbers 
     1.0000   1.0000   1.0000   1.0000   1.0000   1.0000   1.0000   1.0000
     1.0000   1.0000   1.0000   1.0000   1.0000   1.0000   1.0000   1.0000
     0.0000   0.0000   0.0000   0.0000

          k = 0.0000 0.4000 0.4000 (  2478 PWs)   bands (ev):

   -68.6979 -68.6820 -35.0087 -34.9767 -34.7176 -34.6846 -34.5731 -34.5396
    14.1147  14.3812  15.9075  16.0769  17.2925  18.1336  18.1461  18.4417
    18.6386  19.5586  19.8632  21.2742

     occupation numbers 
     1.0000   1.0000   1.0000   1.0000   1.0000   1.0000   1.0000   1.0000
     1.0000   1.0000   1.0000   1.0000   1.0000   1.0000   1.0000   1.0000
     1.0000   0.0000   0.0000   0.0000

          k = 0.0000 0.4000-0.5000 (  2476 PWs)   bands (ev):

   -68.6893 -68.6893 -35.0070 -35.0070 -34.7005 -34.7004 -34.5483 -34.5483
    14.2078  14.2078  15.8983  15.8983  17.9256  17.9257  18.3105  18.3106
    19.7969  19.7969  19.9494  19.9494

     occupation numbers 
     1.0000   1.0000   1.0000   1.0000   1.0000   1.0000   1.0000   1.0000
     1.0000   1.0000   1.0000   1.0000   1.0000   1.0000   1.0000   1.0000
     0.0000   0.0000   0.0000   0.0000

          k = 0.0000-0.5000-0.5000 (  2464 PWs)   bands (ev):

   -68.6887 -68.6886 -35.0218 -35.0218 -34.6999 -34.6998 -34.5397 -34.5397
    14.1420  14.1420  15.8029  15.8029  18.3475  18.3475  18.4725  18.4726
    19.7910  19.7910  19.8917  19.8917

     occupation numbers 
     1.0000   1.0000   1.0000   1.0000   1.0000   1.0000   1.0000   1.0000
     1.0000   1.0000   1.0000   1.0000   1.0000   1.0000   1.0000   1.0000
     0.0000   0.0000   0.0000   0.0000

          k = 0.1000 0.1000 0.1000 (  2466 PWs)   bands (ev):

   -68.7712 -68.6286 -34.8881 -34.8881 -34.8230 -34.6146 -34.5476 -34.5476
    11.1818  14.4737  14.4737  16.8357  16.8357  17.3960  18.2007  18.2007
    18.6682  19.4362  19.4362  28.5936

     occupation numbers 
     1.0000   1.0000   1.0000   1.0000   1.0000   1.0000   1.0000   1.0000
     1.0000   1.0000   1.0000   1.0000   1.0000   1.0000   1.0000   1.0000
     1.0000   0.0046   0.0046   0.0000

          k = 0.1000 0.1000 0.2000 (  2473 PWs)   bands (ev):

   -68.7589 -68.6376 -34.9056 -34.8614 -34.7823 -34.6705 -34.5718 -34.5508
    11.7815  14.7169  14.7347  16.7090  16.7740  17.7103  18.0058  18.0958
    18.3320  18.9755  19.4797  26.1827

     occupation numbers 
     1.0000   1.0000   1.0000   1.0000   1.0000   1.0000   1.0000   1.0000
     1.0000   1.0000   1.0000   1.0000   1.0000   1.0000   1.0000   1.0000
     1.0000   1.0000   0.0000   0.0000

          k = 0.1000 0.1000 0.3000 (  2479 PWs)   bands (ev):

   -68.7404 -68.6522 -34.9090 -34.8203 -34.7374 -34.7370 -34.6098 -34.5699
    12.6889  15.0064  15.0941  16.6664  16.6914  17.5659  17.7513  18.0830
    18.4379  18.5330  19.3300  23.6414

     occupation numbers 
     1.0000   1.0000   1.0000   1.0000   1.0000   1.0000   1.0000   1.0000
     1.0000   1.0000   1.0000   1.0000   1.0000   1.0000   1.0000   1.0000
     1.0000   1.0000   1.0000   0.0000

          k = 0.1000 0.1000 0.4000 (  2480 PWs)   bands (ev):

   -68.7179 -68.6715 -34.8938 -34.8034 -34.7691 -34.6896 -34.6584 -34.6021
    13.7242  15.0321  15.5607  16.4428  16.8101  17.2087  17.5894  17.9714
    18.4367  18.9418  19.0528  21.4516

     occupation numbers 
     1.0000   1.0000   1.0000   1.0000   1.0000   1.0000   1.0000   1.0000
     1.0000   1.0000   1.0000   1.0000   1.0000   1.0000   1.0000   1.0000
     1.0000   1.0000   1.0000   0.0000

          k = 0.1000 0.1000-0.5000 (  2480 PWs)   bands (ev):

   -68.6941 -68.6941 -34.8579 -34.8579 -34.7133 -34.7132 -34.6434 -34.6434
    14.5928  14.5928  16.0457  16.0458  17.0024  17.0024  17.6664  17.6664
    18.7335  18.7335  19.8573  19.8574

     occupation numbers 
     1.0000   1.0000   1.0000   1.0000   1.0000   1.0000   1.0000   1.0000
     1.0000   1.0000   1.0000   1.0000   1.0000   1.0000   1.0000   1.0000
     1.0000   1.0000   0.0000   0.0000

          k = 0.1000 0.2000 0.2000 (  2481 PWs)   bands (ev):

   -68.7483 -68.6450 -34.9218 -34.8513 -34.7358 -34.7302 -34.5869 -34.5485
    12.3395  14.8776  15.0396  16.5070  16.6546  17.5058  18.0882  18.1301
    18.2854  18.7358  19.5032  26.2539

     occupation numbers 
     1.0000   1.0000   1.0000   1.0000   1.0000   1.0000   1.0000   1.0000
     1.0000   1.0000   1.0000   1.0000   1.0000   1.0000   1.0000   1.0000
     1.0000   1.0000   0.0000   0.0000

          k = 0.1000 0.2000 0.3000 (  2480 PWs)   bands (ev):

   -68.7322 -68.6571 -34.9366 -34.8151 -34.7980 -34.6890 -34.6201 -34.5555
    13.1513  15.0421  15.4341  16.3710  16.5869  17.0260  17.9990  18.3206
    18.4223  18.6035  19.4632  24.1569

     occupation numbers 
     1.0000   1.0000   1.0000   1.0000   1.0000   1.0000   1.0000   1.0000
     1.0000   1.0000   1.0000   1.0000   1.0000   1.0000   1.0000   1.0000
     1.0000   1.0000   0.0000   0.0000

          k = 0.1000 0.2000 0.4000 (  2476 PWs)   bands (ev):

   -68.7128 -68.6733 -34.9336 -34.8606 -34.7674 -34.6644 -34.6449 -34.5753
    14.0057  15.0176  15.7967  16.2729  16.6147  16.7840  17.9163  18.0313
    18.6315  19.2253  19.2588  21.9521

     occupation numbers 
     1.0000   1.0000   1.0000   1.0000   1.0000   1.0000   1.0000   1.0000
     1.0000   1.0000   1.0000   1.0000   1.0000   1.0000   1.0000   1.0000
     1.0000   1.0000   1.0000   0.0000

          k = 0.1000 0.2000-0.5000 (  2472 PWs)   bands (ev):

   -68.6924 -68.6924 -34.9080 -34.9079 -34.7152 -34.7152 -34.6061 -34.6061
    14.6623  14.6623  16.0898  16.0898  16.6948  16.6948  17.9285  17.9285
    18.9377  18.9377  20.2588  20.2588

     occupation numbers 
     1.0000   1.0000   1.0000   1.0000   1.0000   1.0000   1.0000   1.0000
     1.0000   1.0000   1.0000   1.0000   1.0000   1.0000   1.0000   1.0000
     1.0000   1.0000   0.0000   0.0000

          k = 0.1000 0.3000 0.3000 (  2480 PWs)   bands (ev):

   -68.7199 -68.6654 -34.9633 -34.8641 -34.7885 -34.6440 -34.6428 -34.5497
    13.7335  14.9554  15.9677  16.1475  16.5907  16.7091  18.1284  18.1855
    18.3737  19.1268  19.5483  23.9357

     occupation numbers 
     1.0000   1.0000   1.0000   1.0000   1.0000   1.0000   1.0000   1.0000
     1.0000   1.0000   1.0000   1.0000   1.0000   1.0000   1.0000   1.0000
     1.0000   1.0000   0.0000   0.0000

          k = 0.1000 0.3000 0.4000 (  2482 PWs)   bands (ev):

   -68.7053 -68.6766 -34.9732 -34.9213 -34.7519 -34.6744 -34.6056 -34.5567
    14.2079  14.7718  16.0472  16.2297  16.5743  16.9997  18.0930  18.2083
    18.5623  19.4335  19.7369  22.3310

     occupation numbers 
     1.0000   1.0000   1.0000   1.0000   1.0000   1.0000   1.0000   1.0000
     1.0000   1.0000   1.0000   1.0000   1.0000   1.0000   1.0000   1.0000
     1.0000   0.0101   0.0000   0.0000

          k = 0.1000 0.3000-0.5000 (  2486 PWs)   bands (ev):

   -68.6904 -68.6903 -34.9594 -34.9594 -34.7122 -34.7121 -34.5759 -34.5759
    14.5263  14.5263  16.0804  16.0804  16.9517  16.9517  18.1758  18.1758
    19.0554  19.0554  20.7223  20.7223

     occupation numbers 
     1.0000   1.0000   1.0000   1.0000   1.0000   1.0000   1.0000   1.0000
     1.0000   1.0000   1.0000   1.0000   1.0000   1.0000   1.0000   1.0000
     1.0000   1.0000   0.0000   0.0000

          k = 0.1000 0.4000 0.4000 (  2481 PWs)   bands (ev):

   -68.6969 -68.6818 -34.9968 -34.9697 -34.7306 -34.6892 -34.5758 -34.5506
    14.2801  14.5241  15.8801  16.0154  17.2064  17.8115  18.2056  18.3549
    18.4466  19.3982  20.3046  22.0203

     occupation numbers 
     1.0000   1.0000   1.0000   1.0000   1.0000   1.0000   1.0000   1.0000
     1.0000   1.0000   1.0000   1.0000   1.0000   1.0000   1.0000   1.0000
     1.0000   0.9103   0.0000   0.0000

          k = 0.1000 0.4000-0.5000 (  2466 PWs)   bands (ev):

   -68.6887 -68.6887 -34.9962 -34.9962 -34.7086 -34.7085 -34.5572 -34.5572
    14.3591  14.3592  15.8665  15.8665  17.7882  17.7883  18.3232  18.3232
    18.9843  18.9843  21.0812  21.0812

     occupation numbers 
     1.0000   1.0000   1.0000   1.0000   1.0000   1.0000   1.0000   1.0000
     1.0000   1.0000   1.0000   1.0000   1.0000   1.0000   1.0000   1.0000
     1.0000   1.0000   0.0000   0.0000

          k = 0.1000-0.5000-0.5000 (  2472 PWs)   bands (ev):

   -68.6881 -68.6880 -35.0096 -35.0096 -34.7072 -34.7071 -34.5510 -34.5510
    14.2927  14.2927  15.7822  15.7822  18.3665  18.3666  18.4763  18.4763
    18.6524  18.6524  21.2187  21.2187

     occupation numbers 
     1.0000   1.0000   1.0000   1.0000   1.0000   1.0000   1.0000   1.0000
     1.0000   1.0000   1.0000   1.0000   1.0000   1.0000   1.0000   1.0000
     1.0000   1.0000   0.0000   0.0000

          k = 0.2000 0.2000 0.2000 (  2473 PWs)   bands (ev):

   -68.7389 -68.6511 -34.8927 -34.8927 -34.7795 -34.6913 -34.5751 -34.5751
    12.8800  15.1886  15.1886  16.3910  16.3910  16.9030  18.2211  18.2211
    18.6139  19.0559  19.0559  27.2118

     occupation numbers 
     1.0000   1.0000   1.0000   1.0000   1.0000   1.0000   1.0000   1.0000
     1.0000   1.0000   1.0000   1.0000   1.0000   1.0000   1.0000   1.0000
     1.0000   1.0000   1.0000   0.0000

          k = 0.2000 0.2000 0.3000 (  2484 PWs)   bands (ev):

   -68.7249 -68.6611 -34.9228 -34.8477 -34.8363 -34.6508 -34.6169 -34.5708
    13.6424  15.4051  15.4640  16.2359  16.2868  16.4997  18.1283  18.3896
    18.5835  19.1555  19.1843  24.8965

     occupation numbers 
     1.0000   1.0000   1.0000   1.0000   1.0000   1.0000   1.0000   1.0000
     1.0000   1.0000   1.0000   1.0000   1.0000   1.0000   1.0000   1.0000
     1.0000   1.0000   1.0000   0.0000

          k = 0.2000 0.2000 0.4000 (  2467 PWs)   bands (ev):

   -68.7082 -68.6746 -34.9338 -34.8872 -34.7917 -34.6703 -34.6173 -34.5766
    14.3852  15.3168  15.6464  16.0639  16.4286  16.5491  18.0502  18.2324
    18.5754  19.0445  19.8984  22.6930

     occupation numbers 
     1.0000   1.0000   1.0000   1.0000   1.0000   1.0000   1.0000   1.0000
     1.0000   1.0000   1.0000   1.0000   1.0000   1.0000   1.0000   1.0000
     1.0000   1.0000   0.0000   0.0000

          k = 0.2000 0.2000-0.5000 (  2482 PWs)   bands (ev):

   -68.6908 -68.6907 -34.9217 -34.9217 -34.7306 -34.7305 -34.5923 -34.5923
    14.9241  14.9241  15.8711  15.8712  16.6194  16.6194  18.0609  18.0610
    18.8051  18.8052  20.9971  20.9971

     occupation numbers 
     1.0000   1.0000   1.0000   1.0000   1.0000   1.0000   1.0000   1.0000
     1.0000   1.0000   1.0000   1.0000   1.0000   1.0000   1.0000   1.0000
     1.0000   1.0000   0.0000   0.0000

          k = 0.2000 0.3000 0.3000 (  2472 PWs)   bands (ev):

   -68.7142 -68.6678 -34.9312 -34.8820 -34.8357 -34.6364 -34.6192 -34.5792
    14.2545  15.3463  15.9574  16.0456  16.1323  16.2456  18.2543  18.3732
    18.4674  19.0813  19.8513  25.0203

     occupation numbers 
     1.0000   1.0000   1.0000   1.0000   1.0000   1.0000   1.0000   1.0000
     1.0000   1.0000   1.0000   1.0000   1.0000   1.0000   1.0000   1.0000
     1.0000   1.0000   0.0000   0.0000

          k = 0.2000 0.3000 0.4000 (  2473 PWs)   bands (ev):

   -68.7015 -68.6771 -34.9464 -34.9213 -34.7895 -34.6801 -34.5972 -34.5801
    14.6824  15.1401  15.9365  15.9373  16.4871  16.5120  18.2460  18.3037
    18.5045  18.9829  20.6410  23.3930

     occupation numbers 
     1.0000   1.0000   1.0000   1.0000   1.0000   1.0000   1.0000   1.0000
     1.0000   1.0000   1.0000   1.0000   1.0000   1.0000   1.0000   1.0000
     1.0000   1.0000   0.0000   0.0000

          k = 0.2000 0.3000-0.5000 (  2478 PWs)   bands (ev):

   -68.6887 -68.6887 -34.9443 -34.9443 -34.7342 -34.7341 -34.5847 -34.5847
    14.9173  14.9173  15.9003  15.9003  16.7135  16.7135  18.2482  18.2482
    18.7350  18.7351  21.7713  21.7713

     occupation numbers 
     1.0000   1.0000   1.0000   1.0000   1.0000   1.0000   1.0000   1.0000
     1.0000   1.0000   1.0000   1.0000   1.0000   1.0000   1.0000   1.0000
     1.0000   1.0000   0.0000   0.0000

          k = 0.2000 0.4000 0.4000 (  2467 PWs)   bands (ev):

   -68.6941 -68.6813 -34.9622 -34.9507 -34.7634 -34.6994 -34.5867 -34.5826
    14.7379  14.9020  15.8169  15.8925  16.9374  17.0519  18.3394  18.3648
    18.4583  18.8784  21.4569  23.3904

     occupation numbers 
     1.0000   1.0000   1.0000   1.0000   1.0000   1.0000   1.0000   1.0000
     1.0000   1.0000   1.0000   1.0000   1.0000   1.0000   1.0000   1.0000
     1.0000   1.0000   0.0000   0.0000

          k = 0.2000 0.4000-0.5000 (  2472 PWs)   bands (ev):

   -68.6871 -68.6870 -34.9656 -34.9656 -34.7294 -34.7293 -34.5834 -34.5834
    14.7697  14.7697  15.7993  15.7993  17.2881  17.2881  18.3740  18.3741
    18.6182  18.6182  22.4490  22.4490

     occupation numbers 
     1.0000   1.0000   1.0000   1.0000   1.0000   1.0000   1.0000   1.0000
     1.0000   1.0000   1.0000   1.0000   1.0000   1.0000   1.0000   1.0000
     1.0000   1.0000   0.0000   0.0000

          k = 0.2000-0.5000-0.5000 (  2480 PWs)   bands (ev):

   -68.6864 -68.6864 -34.9741 -34.9741 -34.7262 -34.7261 -34.5839 -34.5839
    14.7058  14.7058  15.7376  15.7376  17.6667  17.6667  18.4148  18.4148
    18.4861  18.4861  22.7677  22.7677

     occupation numbers 
     1.0000   1.0000   1.0000   1.0000   1.0000   1.0000   1.0000   1.0000
     1.0000   1.0000   1.0000   1.0000   1.0000   1.0000   1.0000   1.0000
     1.0000   1.0000   0.0000   0.0000

          k = 0.3000 0.3000 0.3000 (  2473 PWs)   bands (ev):

   -68.7058 -68.6721 -34.9049 -34.8815 -34.8815 -34.6258 -34.6258 -34.6029
    14.9312  15.6654  15.9233  15.9233  15.9311  15.9311  18.3631  18.3631
    18.6839  18.6839  20.6729  26.4449

     occupation numbers 
     1.0000   1.0000   1.0000   1.0000   1.0000   1.0000   1.0000   1.0000
     1.0000   1.0000   1.0000   1.0000   1.0000   1.0000   1.0000   1.0000
     1.0000   1.0000   0.0000   0.0000

          k = 0.3000 0.3000 0.4000 (  2470 PWs)   bands (ev):

   -68.6962 -68.6784 -34.9235 -34.9143 -34.8196 -34.6851 -34.6131 -34.5979
    15.2371  15.3964  15.8521  15.8707  16.1506  16.3626  18.3495  18.4515
    18.4773  18.7152  21.6163  24.5440

     occupation numbers 
     1.0000   1.0000   1.0000   1.0000   1.0000   1.0000   1.0000   1.0000
     1.0000   1.0000   1.0000   1.0000   1.0000   1.0000   1.0000   1.0000
     1.0000   1.0000   0.0000   0.0000

          k = 0.3000 0.3000-0.5000 (  2444 PWs)   bands (ev):

   -68.6867 -68.6866 -34.9284 -34.9284 -34.7519 -34.7518 -34.6025 -34.6025
    15.2607  15.2607  15.8347  15.8347  16.4891  16.4891  18.3610  18.3610
    18.6055  18.6056  22.8618  22.8618

     occupation numbers 
     1.0000   1.0000   1.0000   1.0000   1.0000   1.0000   1.0000   1.0000
     1.0000   1.0000   1.0000   1.0000   1.0000   1.0000   1.0000   1.0000
     1.0000   1.0000   0.0000   0.0000

          k = 0.3000 0.4000 0.4000 (  2450 PWs)   bands (ev):

   -68.6903 -68.6810 -34.9252 -34.9088 -34.8040 -34.7054 -34.6329 -34.6086
    15.3090  15.3601  15.7651  15.8903  16.4092  16.5446  18.4276  18.4636
    18.4706  18.6181  22.6709  24.9989

     occupation numbers 
     1.0000   1.0000   1.0000   1.0000   1.0000   1.0000   1.0000   1.0000
     1.0000   1.0000   1.0000   1.0000   1.0000   1.0000   1.0000   1.0000
     1.0000   1.0000   0.0000   0.0000

          k = 0.3000 0.4000-0.5000 (  2456 PWs)   bands (ev):

   -68.6850 -68.6850 -34.9204 -34.9204 -34.7537 -34.7536 -34.6243 -34.6243
    15.2843  15.2843  15.7820  15.7820  16.6908  16.6908  18.4433  18.4434
    18.5338  18.5338  23.8962  23.8962

     occupation numbers 
     1.0000   1.0000   1.0000   1.0000   1.0000   1.0000   1.0000   1.0000
     1.0000   1.0000   1.0000   1.0000   1.0000   1.0000   1.0000   1.0000
     1.0000   1.0000   0.0000   0.0000

          k = 0.3000-0.5000-0.5000 (  2460 PWs)   bands (ev):

   -68.6844 -68.6844 -34.9192 -34.9192 -34.7496 -34.7495 -34.6357 -34.6357
    15.2613  15.2614  15.7149  15.7149  16.8910  16.8910  18.4685  18.4685
    18.4982  18.4983  24.4743  24.4743

     occupation numbers 
     1.0000   1.0000   1.0000   1.0000   1.0000   1.0000   1.0000   1.0000
     1.0000   1.0000   1.0000   1.0000   1.0000   1.0000   1.0000   1.0000
     1.0000   1.0000   0.0000   0.0000

          k = 0.4000 0.4000 0.4000 (  2458 PWs)   bands (ev):

   -68.6865 -68.6816 -34.8992 -34.8421 -34.8421 -34.6971 -34.6971 -34.6395
    15.4607  15.7806  15.7806  16.1112  16.1710  16.1710  18.4797  18.4797
    18.5207  18.5207  23.9375  26.7790

     occupation numbers 
     1.0000   1.0000   1.0000   1.0000   1.0000   1.0000   1.0000   1.0000
     1.0000   1.0000   1.0000   1.0000   1.0000   1.0000   1.0000   1.0000
     1.0000   1.0000   0.0000   0.0000

          k = 0.4000 0.4000-0.5000 (  2458 PWs)   bands (ev):

   -68.6834 -68.6834 -34.8731 -34.8731 -34.7692 -34.7691 -34.6724 -34.6724
    15.5878  15.5878  15.9089  15.9089  16.3088  16.3088  18.4901  18.4902
    18.5128  18.5129  25.3373  25.3373

     occupation numbers 
     1.0000   1.0000   1.0000   1.0000   1.0000   1.0000   1.0000   1.0000
     1.0000   1.0000   1.0000   1.0000   1.0000   1.0000   1.0000   1.0000
     1.0000   1.0000   0.0000   0.0000

          k = 0.4000-0.5000-0.5000 (  2468 PWs)   bands (ev):

   -68.6828 -68.6827 -34.8507 -34.8507 -34.7685 -34.7684 -34.7016 -34.7016
    15.7577  15.7577  15.7715  15.7715  16.3262  16.3262  18.5027  18.5027
    18.5081  18.5082  26.3229  26.3229

     occupation numbers 
     1.0000   1.0000   1.0000   1.0000   1.0000   1.0000   1.0000   1.0000
     1.0000   1.0000   1.0000   1.0000   1.0000   1.0000   1.0000   1.0000
     1.0000   1.0000   0.0000   0.0000

          k =-0.5000-0.5000-0.5000 (  2440 PWs)   bands (ev):

   -68.6821 -68.6821 -34.7757 -34.7757 -34.7757 -34.7757 -34.7757 -34.7757
    15.9616  15.9616  15.9616  15.9616  15.9616  15.9616  18.5119  18.5119
    18.5120  18.5120  28.2974  28.2974

     occupation numbers 
     1.0000   1.0000   1.0000   1.0000   1.0000   1.0000   1.0000   1.0000
     1.0000   1.0000   1.0000   1.0000   1.0000   1.0000   1.0000   1.0000
     1.0000   1.0000   0.0000   0.0000

 ------ SPIN DOWN ----------


          k = 0.0000 0.0000 0.0000 (  2517 PWs)   bands (ev):

   -66.2851 -66.1060 -32.4562 -32.4562 -32.4562 -32.0792 -32.0792 -32.0792
    10.6966  15.9514  15.9514  18.7422  18.7422  18.7422  20.9688  20.9688
    21.6323  21.6323  21.6323  29.7687

     occupation numbers 
     1.0000   1.0000   1.0000   1.0000   1.0000   1.0000   1.0000   1.0000
     1.0000   1.0000   1.0000   1.0000   1.0000   1.0000   0.0000   0.0000
     0.0000   0.0000   0.0000   0.0000

          k = 0.0000 0.0000 0.1000 (  2489 PWs)   bands (ev):

   -66.2801 -66.1097 -32.4554 -32.4465 -32.4465 -32.0970 -32.0878 -32.0878
    10.9135  16.0318  16.0618  18.7326  18.7326  18.8084  20.8369  21.0184
    21.3898  21.3898  21.5569  28.6324

     occupation numbers 
     1.0000   1.0000   1.0000   1.0000   1.0000   1.0000   1.0000   1.0000
     1.0000   1.0000   1.0000   1.0000   1.0000   1.0000   0.0000   0.0000
     0.0000   0.0000   0.0000   0.0000

          k = 0.0000 0.0000 0.2000 (  2473 PWs)   bands (ev):

   -66.2656 -66.1207 -32.4507 -32.4183 -32.4183 -32.1463 -32.1131 -32.1131
    11.5465  16.2099  16.3858  18.7213  18.7213  19.0018  20.4548  20.8139
    20.8139  21.1539  21.3396  26.4415

     occupation numbers 
     1.0000   1.0000   1.0000   1.0000   1.0000   1.0000   1.0000   1.0000
     1.0000   1.0000   1.0000   1.0000   1.0000   1.0000   0.0000   0.0000
     0.0000   0.0000   0.0000   0.0000

          k = 0.0000 0.0000 0.3000 (  2485 PWs)   bands (ev):

   -66.2437 -66.1383 -32.4362 -32.3748 -32.3748 -32.2156 -32.1530 -32.1530
    12.5376  16.2848  16.9018  18.7527  18.7527  19.3068  19.8638  20.1569
    20.1569  21.0051  21.3442  24.3310

     occupation numbers 
     1.0000   1.0000   1.0000   1.0000   1.0000   1.0000   1.0000   1.0000
     1.0000   1.0000   1.0000   1.0000   1.0000   1.0000   0.0000   0.0000
     0.0000   0.0000   0.0000   0.0000

          k = 0.0000 0.0000 0.4000 (  2464 PWs)   bands (ev):

   -66.2169 -66.1616 -32.4059 -32.3207 -32.3207 -32.2901 -32.2041 -32.2041
    13.7703  15.9436  17.5714  18.8804  18.8804  19.1309  19.5787  19.5787
    19.6975  20.5903  21.5799  22.7920

     occupation numbers 
     1.0000   1.0000   1.0000   1.0000   1.0000   1.0000   1.0000   1.0000
     1.0000   1.0000   1.0000   1.0000   1.0000   1.0000   0.0000   0.0000
     0.0000   0.0000   0.0000   0.0000

          k = 0.0000 0.0000-0.5000 (  2496 PWs)   bands (ev):

   -66.1886 -66.1886 -32.3565 -32.3565 -32.2619 -32.2619 -32.2619 -32.2619
    15.0234  15.0234  18.3387  18.3387  19.1486  19.1486  19.1486  19.1486
    20.1393  20.1393  21.9636  21.9636

     occupation numbers 
     1.0000   1.0000   1.0000   1.0000   1.0000   1.0000   1.0000   1.0000
     1.0000   1.0000   1.0000   1.0000   1.0000   1.0000   1.0000   1.0000
     0.0000   0.0000   0.0000   0.0000

          k = 0.0000 0.1000 0.1000 (  2482 PWs)   bands (ev):

   -66.2752 -66.1132 -32.4711 -32.4371 -32.4210 -32.1311 -32.0960 -32.0792
    11.1269  16.1352  16.1449  18.5991  18.7100  18.9979  20.8195  20.9798
    21.0108  21.1523  21.6629  28.7671

     occupation numbers 
     1.0000   1.0000   1.0000   1.0000   1.0000   1.0000   1.0000   1.0000
     1.0000   1.0000   1.0000   1.0000   1.0000   1.0000   0.0000   0.0000
     0.0000   0.0000   0.0000   0.0000

          k = 0.0000 0.1000 0.2000 (  2474 PWs)   bands (ev):

   -66.2614 -66.1235 -32.4799 -32.4102 -32.3816 -32.1916 -32.1200 -32.0904
    11.7483  16.3158  16.4486  18.4919  18.6621  19.2846  20.3914  20.5305
    20.6090  21.0956  21.5797  26.7325

     occupation numbers 
     1.0000   1.0000   1.0000   1.0000   1.0000   1.0000   1.0000   1.0000
     1.0000   1.0000   1.0000   1.0000   1.0000   1.0000   0.0000   0.0000
     0.0000   0.0000   0.0000   0.0000

          k = 0.0000 0.1000 0.3000 (  2477 PWs)   bands (ev):

   -66.2404 -66.1402 -32.4746 -32.3687 -32.3328 -32.2658 -32.1577 -32.1210
    12.7173  16.3789  16.9290  18.4648  18.6206  19.6408  19.7476  20.0517
    20.0556  21.2971  21.3153  24.5654

     occupation numbers 
     1.0000   1.0000   1.0000   1.0000   1.0000   1.0000   1.0000   1.0000
     1.0000   1.0000   1.0000   1.0000   1.0000   0.0000   0.0000   0.0000
     0.0000   0.0000   0.0000   0.0000

          k = 0.0000 0.1000 0.4000 (  2480 PWs)   bands (ev):

   -66.2149 -66.1622 -32.4506 -32.3411 -32.3171 -32.2774 -32.2062 -32.1659
    13.9138  16.0214  17.5287  18.5289  18.5542  19.1954  19.5912  19.6652
    20.0548  20.9361  21.5479  22.9170

     occupation numbers 
     1.0000   1.0000   1.0000   1.0000   1.0000   1.0000   1.0000   1.0000
     1.0000   1.0000   1.0000   1.0000   1.0000   1.0000   0.0000   0.0000
     0.0000   0.0000   0.0000   0.0000

          k = 0.0000 0.1000-0.5000 (  2472 PWs)   bands (ev):

   -66.1879 -66.1879 -32.4053 -32.4053 -32.2611 -32.2611 -32.2200 -32.2200
    15.1220  15.1220  18.1413  18.1413  18.7927  18.7927  19.4705  19.4705
    20.4996  20.4997  21.9790  21.9790

     occupation numbers 
     1.0000   1.0000   1.0000   1.0000   1.0000   1.0000   1.0000   1.0000
     1.0000   1.0000   1.0000   1.0000   1.0000   1.0000   0.0000   0.0000
     0.0000   0.0000   0.0000   0.0000

          k = 0.0000 0.2000 0.2000 (  2482 PWs)   bands (ev):

   -66.2493 -66.1320 -32.5099 -32.3869 -32.3281 -32.2659 -32.1400 -32.0794
    12.3315  16.4978  16.6860  18.2381  18.5399  19.7071  19.7289  20.1924
    20.6092  21.0232  21.7436  26.7717

     occupation numbers 
     1.0000   1.0000   1.0000   1.0000   1.0000   1.0000   1.0000   1.0000
     1.0000   1.0000   1.0000   1.0000   1.0000   0.0000   0.0000   0.0000
     0.0000   0.0000   0.0000   0.0000

          k = 0.0000 0.2000 0.3000 (  2477 PWs)   bands (ev):

   -66.2311 -66.1459 -32.5237 -32.3511 -32.3473 -32.2712 -32.1717 -32.0901
    13.2236  16.4756  17.1236  18.0871  18.4316  19.0960  19.9026  20.1616
    20.4091  21.1768  21.6811  24.9764

     occupation numbers 
[...]
    12.8979  16.4894  16.9469  18.3590  18.4093  19.2706  19.9220  20.1915
    20.2858  21.2577  21.3321  24.8305

     occupation numbers 
     1.0000   1.0000   1.0000   1.0000   1.0000   1.0000   1.0000   1.0000
     1.0000   1.0000   1.0000   1.0000   1.0000   1.0000   0.0000   0.0000
     0.0000   0.0000   0.0000   0.0000

          k = 0.1000 0.1000 0.4000 (  2480 PWs)   bands (ev):

   -66.2129 -66.1628 -32.4692 -32.3705 -32.3304 -32.2437 -32.2093 -32.1480
    14.0622  16.1163  17.4696  18.2691  18.4417  18.9102  19.7890  19.8254
    20.3545  21.0598  21.5278  23.0999

     occupation numbers 
     1.0000   1.0000   1.0000   1.0000   1.0000   1.0000   1.0000   1.0000
     1.0000   1.0000   1.0000   1.0000   1.0000   1.0000   0.0000   0.0000
     0.0000   0.0000   0.0000   0.0000

          k = 0.1000 0.1000-0.5000 (  2480 PWs)   bands (ev):

   -66.1872 -66.1872 -32.4303 -32.4302 -32.2693 -32.2693 -32.1931 -32.1931
    15.2312  15.2312  17.9616  17.9616  18.6500  18.6500  19.6281  19.6281
    20.7454  20.7454  22.0357  22.0357

     occupation numbers 
     1.0000   1.0000   1.0000   1.0000   1.0000   1.0000   1.0000   1.0000
     1.0000   1.0000   1.0000   1.0000   1.0000   1.0000   0.0000   0.0000
     0.0000   0.0000   0.0000   0.0000

          k = 0.1000 0.2000 0.2000 (  2481 PWs)   bands (ev):

   -66.2458 -66.1342 -32.4988 -32.4207 -32.2940 -32.2897 -32.1312 -32.0894
    12.5261  16.6179  16.7423  18.1872  18.3509  19.1709  19.9573  20.6368
    20.6783  20.9824  21.5197  27.1727

     occupation numbers 
     1.0000   1.0000   1.0000   1.0000   1.0000   1.0000   1.0000   1.0000
     1.0000   1.0000   1.0000   1.0000   1.0000   1.0000   0.0000   0.0000
     0.0000   0.0000   0.0000   0.0000

          k = 0.1000 0.2000 0.3000 (  2480 PWs)   bands (ev):

   -66.2283 -66.1472 -32.5157 -32.3810 -32.3644 -32.2429 -32.1674 -32.0970
    13.4066  16.6207  17.1210  18.0253  18.2300  18.6789  20.2469  20.4287
    20.4925  21.1567  21.4938  25.3247

     occupation numbers 
     1.0000   1.0000   1.0000   1.0000   1.0000   1.0000   1.0000   1.0000
     1.0000   1.0000   1.0000   1.0000   1.0000   1.0000   0.0000   0.0000
     0.0000   0.0000   0.0000   0.0000

          k = 0.1000 0.2000 0.4000 (  2476 PWs)   bands (ev):

   -66.2073 -66.1647 -32.5130 -32.4334 -32.3287 -32.2158 -32.1948 -32.1188
    14.4502  16.2258  17.5078  17.9502  18.1800  18.4319  20.0534  20.2182
    20.8845  21.3278  21.4829  23.4895

     occupation numbers 
     1.0000   1.0000   1.0000   1.0000   1.0000   1.0000   1.0000   1.0000
     1.0000   1.0000   1.0000   1.0000   1.0000   1.0000   0.0000   0.0000
     0.0000   0.0000   0.0000   0.0000

          k = 0.1000 0.2000-0.5000 (  2472 PWs)   bands (ev):

   -66.1853 -66.1853 -32.4852 -32.4852 -32.2715 -32.2714 -32.1524 -32.1524
    15.4545  15.4545  17.8051  17.8051  18.2694  18.2694  20.0618  20.0618
    21.1323  21.1324  22.2068  22.2068

     occupation numbers 
     1.0000   1.0000   1.0000   1.0000   1.0000   1.0000   1.0000   1.0000
     1.0000   1.0000   1.0000   1.0000   1.0000   1.0000   0.0000   0.0000
     0.0000   0.0000   0.0000   0.0000

          k = 0.1000 0.3000 0.3000 (  2480 PWs)   bands (ev):

   -66.2150 -66.1561 -32.5454 -32.4372 -32.3518 -32.1938 -32.1921 -32.0908
    14.1366  16.4477  17.5783  17.7630  18.1677  18.2164  20.1892  20.6757
    20.9933  21.1020  21.6105  25.0781

     occupation numbers 
     1.0000   1.0000   1.0000   1.0000   1.0000   1.0000   1.0000   1.0000
     1.0000   1.0000   1.0000   1.0000   1.0000   1.0000   0.0000   0.0000
     0.0000   0.0000   0.0000   0.0000

          k = 0.1000 0.3000 0.4000 (  2482 PWs)   bands (ev):

   -66.1992 -66.1682 -32.5567 -32.5001 -32.3116 -32.2266 -32.1519 -32.0985
    14.9089  16.0701  17.6423  17.8222  18.1233  18.2650  20.3070  20.6083
    21.2030  21.5440  21.6091  23.7067

     occupation numbers 
     1.0000   1.0000   1.0000   1.0000   1.0000   1.0000   1.0000   1.0000
     1.0000   1.0000   1.0000   1.0000   1.0000   1.0000   0.0000   0.0000
     0.0000   0.0000   0.0000   0.0000

          k = 0.1000 0.3000-0.5000 (  2486 PWs)   bands (ev):

   -66.1830 -66.1830 -32.5418 -32.5418 -32.2679 -32.2679 -32.1195 -32.1195
    15.5620  15.5620  17.6710  17.6710  18.3322  18.3322  20.4801  20.4801
    21.3582  21.3582  22.4372  22.4372

     occupation numbers 
     1.0000   1.0000   1.0000   1.0000   1.0000   1.0000   1.0000   1.0000
     1.0000   1.0000   1.0000   1.0000   1.0000   1.0000   0.0000   0.0000
     0.0000   0.0000   0.0000   0.0000

          k = 0.1000 0.4000 0.4000 (  2481 PWs)   bands (ev):

   -66.1900 -66.1737 -32.5829 -32.5534 -32.2881 -32.2427 -32.1195 -32.0920
    15.2655  15.7916  17.4484  17.5866  18.6553  18.7114  20.5671  20.7936
    21.2083  21.5614  22.0420  23.3179

     occupation numbers 
     1.0000   1.0000   1.0000   1.0000   1.0000   1.0000   1.0000   1.0000
     1.0000   1.0000   1.0000   1.0000   1.0000   1.0000   0.0000   0.0000
     0.0000   0.0000   0.0000   0.0000

          k = 0.1000 0.4000-0.5000 (  2466 PWs)   bands (ev):

   -66.1812 -66.1812 -32.5825 -32.5825 -32.2638 -32.2638 -32.0992 -32.0992
    15.5281  15.5281  17.4268  17.4268  18.9914  18.9914  20.7542  20.7542
    21.3539  21.3539  22.5885  22.5885

     occupation numbers 
     1.0000   1.0000   1.0000   1.0000   1.0000   1.0000   1.0000   1.0000
     1.0000   1.0000   1.0000   1.0000   1.0000   1.0000   0.0000   0.0000
     0.0000   0.0000   0.0000   0.0000

          k = 0.1000-0.5000-0.5000 (  2472 PWs)   bands (ev):

   -66.1805 -66.1805 -32.5972 -32.5972 -32.2622 -32.2621 -32.0924 -32.0924
    15.4968  15.4968  17.3335  17.3335  19.4091  19.4091  20.8465  20.8465
    21.2529  21.2529  22.6247  22.6247

     occupation numbers 
     1.0000   1.0000   1.0000   1.0000   1.0000   1.0000   1.0000   1.0000
     1.0000   1.0000   1.0000   1.0000   0.5852   0.5852   0.0000   0.0000
     0.0000   0.0000   0.0000   0.0000

          k = 0.2000 0.2000 0.2000 (  2473 PWs)   bands (ev):

   -66.2357 -66.1407 -32.4668 -32.4668 -32.3438 -32.2452 -32.1184 -32.1184
    13.0841  16.8980  16.8980  18.0538  18.0538  18.4683  20.4536  20.8615
    20.8615  21.0430  21.0430  28.1803

     occupation numbers 
     1.0000   1.0000   1.0000   1.0000   1.0000   1.0000   1.0000   1.0000
     1.0000   1.0000   1.0000   1.0000   1.0000   1.0000   0.0000   0.0000
     0.0000   0.0000   0.0000   0.0000

          k = 0.2000 0.2000 0.3000 (  2484 PWs)   bands (ev):

   -66.2205 -66.1515 -32.5005 -32.4173 -32.4064 -32.2009 -32.1642 -32.1138
    13.9208  16.9719  17.1143  17.8811  17.8816  18.0802  20.5996  20.6744
    20.9866  21.1205  21.2178  26.0609

     occupation numbers 
     1.0000   1.0000   1.0000   1.0000   1.0000   1.0000   1.0000   1.0000
     1.0000   1.0000   1.0000   1.0000   1.0000   1.0000   0.0000   0.0000
     0.0000   0.0000   0.0000   0.0000

          k = 0.2000 0.2000 0.4000 (  2467 PWs)   bands (ev):

   -66.2023 -66.1660 -32.5132 -32.4624 -32.3558 -32.2227 -32.1644 -32.1201
    14.8808  16.4948  17.3381  17.7067  17.9100  18.1333  20.3466  20.4661
    21.1806  21.2330  21.7651  24.1426

     occupation numbers 
     1.0000   1.0000   1.0000   1.0000   1.0000   1.0000   1.0000   1.0000
     1.0000   1.0000   1.0000   1.0000   1.0000   1.0000   0.0000   0.0000
     0.0000   0.0000   0.0000   0.0000

          k = 0.2000 0.2000-0.5000 (  2482 PWs)   bands (ev):

   -66.1835 -66.1835 -32.5002 -32.5002 -32.2887 -32.2887 -32.1372 -32.1372
    15.7716  15.7716  17.5332  17.5332  18.0768  18.0768  20.3221  20.3221
    21.2189  21.2189  22.7283  22.7283

     occupation numbers 
     1.0000   1.0000   1.0000   1.0000   1.0000   1.0000   1.0000   1.0000
     1.0000   1.0000   1.0000   1.0000   1.0000   1.0000   0.0000   0.0000
     0.0000   0.0000   0.0000   0.0000

          k = 0.2000 0.3000 0.3000 (  2472 PWs)   bands (ev):

   -66.2088 -66.1587 -32.5100 -32.4566 -32.4044 -32.1856 -32.1664 -32.1232
    14.6512  16.8346  17.5211  17.6280  17.6930  17.7618  20.6099  20.8254
    21.0782  21.2153  21.6487  26.1461

     occupation numbers 
     1.0000   1.0000   1.0000   1.0000   1.0000   1.0000   1.0000   1.0000
     1.0000   1.0000   1.0000   1.0000   1.0000   1.0000   0.0000   0.0000
     0.0000   0.0000   0.0000   0.0000

          k = 0.2000 0.3000 0.4000 (  2473 PWs)   bands (ev):

   -66.1951 -66.1687 -32.5271 -32.4999 -32.3536 -32.2335 -32.1425 -32.1242
    15.3935  16.4417  17.4872  17.4952  17.8173  17.9469  20.5848  20.7536
    21.2047  21.2608  22.3547  24.6969

     occupation numbers 
     1.0000   1.0000   1.0000   1.0000   1.0000   1.0000   1.0000   1.0000
     1.0000   1.0000   1.0000   1.0000   1.0000   1.0000   0.0000   0.0000
     0.0000   0.0000   0.0000   0.0000

          k = 0.2000 0.3000-0.5000 (  2478 PWs)   bands (ev):

   -66.1812 -66.1812 -32.5251 -32.5251 -32.2928 -32.2928 -32.1291 -32.1291
    15.9774  15.9774  17.4486  17.4486  17.9964  17.9964  20.6462  20.6462
    21.2614  21.2614  23.3166  23.3167

     occupation numbers 
     1.0000   1.0000   1.0000   1.0000   1.0000   1.0000   1.0000   1.0000
     1.0000   1.0000   1.0000   1.0000   1.0000   1.0000   0.0000   0.0000
     0.0000   0.0000   0.0000   0.0000

          k = 0.2000 0.4000 0.4000 (  2467 PWs)   bands (ev):

   -66.1870 -66.1731 -32.5448 -32.5323 -32.3248 -32.2544 -32.1313 -32.1271
    15.7500  16.1860  17.3404  17.4136  18.0986  18.2496  20.7653  20.9060
    21.2169  21.2905  23.0022  24.5753

     occupation numbers 
     1.0000   1.0000   1.0000   1.0000   1.0000   1.0000   1.0000   1.0000
     1.0000   1.0000   1.0000   1.0000   1.0000   1.0000   0.0000   0.0000
     0.0000   0.0000   0.0000   0.0000

          k = 0.2000 0.4000-0.5000 (  2472 PWs)   bands (ev):

   -66.1794 -66.1794 -32.5487 -32.5487 -32.2873 -32.2873 -32.1279 -32.1279
    15.9638  15.9638  17.3107  17.3107  18.3848  18.3848  20.8793  20.8793
    21.2684  21.2685  23.7723  23.7723

     occupation numbers 
     1.0000   1.0000   1.0000   1.0000   1.0000   1.0000   1.0000   1.0000
     1.0000   1.0000   1.0000   1.0000   1.0000   1.0000   0.0000   0.0000
     0.0000   0.0000   0.0000   0.0000

          k = 0.2000-0.5000-0.5000 (  2480 PWs)   bands (ev):

   -66.1787 -66.1787 -32.5581 -32.5581 -32.2836 -32.2836 -32.1286 -32.1286
    15.9311  15.9311  17.2399  17.2399  18.6408  18.6408  20.9543  20.9543
    21.2658  21.2658  23.9502  23.9502

     occupation numbers 
     1.0000   1.0000   1.0000   1.0000   1.0000   1.0000   1.0000   1.0000
     1.0000   1.0000   1.0000   1.0000   1.0000   1.0000   0.0000   0.0000
     0.0000   0.0000   0.0000   0.0000

          k = 0.3000 0.3000 0.3000 (  2473 PWs)   bands (ev):

   -66.1997 -66.1633 -32.4817 -32.4553 -32.4553 -32.1742 -32.1742 -32.1486
    15.3676  17.0832  17.4303  17.4303  17.4691  17.4691  20.9467  20.9467
    21.0271  21.0271  22.3921  27.5088

     occupation numbers 
     1.0000   1.0000   1.0000   1.0000   1.0000   1.0000   1.0000   1.0000
     1.0000   1.0000   1.0000   1.0000   1.0000   1.0000   0.0000   0.0000
     0.0000   0.0000   0.0000   0.0000

          k = 0.3000 0.3000 0.4000 (  2470 PWs)   bands (ev):

   -66.1892 -66.1701 -32.5022 -32.4918 -32.3872 -32.2394 -32.1605 -32.1433
    16.0209  16.7236  17.3410  17.3475  17.4705  17.7319  20.8511  20.9514
    21.1516  21.1956  23.2025  25.7389

     occupation numbers 
     1.0000   1.0000   1.0000   1.0000   1.0000   1.0000   1.0000   1.0000
     1.0000   1.0000   1.0000   1.0000   1.0000   1.0000   0.0000   0.0000
     0.0000   0.0000   0.0000   0.0000

          k = 0.3000 0.3000-0.5000 (  2444 PWs)   bands (ev):

   -66.1790 -66.1789 -32.5075 -32.5075 -32.3127 -32.3127 -32.1486 -32.1486
    16.4104  16.4104  17.3031  17.3031  17.7080  17.7080  20.8757  20.8757
    21.2406  21.2406  24.2569  24.2569

     occupation numbers 
     1.0000   1.0000   1.0000   1.0000   1.0000   1.0000   1.0000   1.0000
     1.0000   1.0000   1.0000   1.0000   1.0000   1.0000   0.0000   0.0000
     0.0000   0.0000   0.0000   0.0000

          k = 0.3000 0.4000 0.4000 (  2450 PWs)   bands (ev):

   -66.1829 -66.1728 -32.5041 -32.4860 -32.3701 -32.2617 -32.1824 -32.1553
    16.4248  16.6315  17.2258  17.3093  17.5416  17.8026  20.9954  21.0681
    21.1958  21.2216  24.0842  26.0702

     occupation numbers 
     1.0000   1.0000   1.0000   1.0000   1.0000   1.0000   1.0000   1.0000
     1.0000   1.0000   1.0000   1.0000   1.0000   1.0000   0.0000   0.0000
     0.0000   0.0000   0.0000   0.0000

          k = 0.3000 0.4000-0.5000 (  2456 PWs)   bands (ev):

   -66.1772 -66.1771 -32.4989 -32.4989 -32.3148 -32.3147 -32.1728 -32.1728
    16.5262  16.5262  17.2123  17.2123  17.8185  17.8185  21.0514  21.0514
    21.2568  21.2568  25.0996  25.0996

     occupation numbers 
     1.0000   1.0000   1.0000   1.0000   1.0000   1.0000   1.0000   1.0000
     1.0000   1.0000   1.0000   1.0000   1.0000   1.0000   0.0000   0.0000
     0.0000   0.0000   0.0000   0.0000

          k = 0.3000-0.5000-0.5000 (  2460 PWs)   bands (ev):

   -66.1765 -66.1764 -32.4976 -32.4976 -32.3101 -32.3100 -32.1855 -32.1855
    16.5118  16.5118  17.1473  17.1473  17.9837  17.9837  21.1027  21.1027
    21.2819  21.2819  25.5284  25.5284

     occupation numbers 
     1.0000   1.0000   1.0000   1.0000   1.0000   1.0000   1.0000   1.0000
     1.0000   1.0000   1.0000   1.0000   1.0000   1.0000   0.0000   0.0000
     0.0000   0.0000   0.0000   0.0000

          k = 0.4000 0.4000 0.4000 (  2458 PWs)   bands (ev):

   -66.1787 -66.1734 -32.4754 -32.4125 -32.4125 -32.2529 -32.2529 -32.1894
    16.8159  17.0491  17.1723  17.1723  17.4466  17.4466  21.1838  21.1838
    21.2158  21.2158  25.1933  27.7407

     occupation numbers 
     1.0000   1.0000   1.0000   1.0000   1.0000   1.0000   1.0000   1.0000
     1.0000   1.0000   1.0000   1.0000   1.0000   1.0000   0.0000   0.0000
     0.0000   0.0000   0.0000   0.0000

          k = 0.4000 0.4000-0.5000 (  2458 PWs)   bands (ev):

   -66.1753 -66.1753 -32.4468 -32.4468 -32.3322 -32.3321 -32.2258 -32.2258
    16.9074  16.9074  17.2355  17.2355  17.4678  17.4678  21.1996  21.1996
    21.2684  21.2684  26.4132  26.4132

     occupation numbers 
     1.0000   1.0000   1.0000   1.0000   1.0000   1.0000   1.0000   1.0000
     1.0000   1.0000   1.0000   1.0000   1.0000   1.0000   0.0000   0.0000
     0.0000   0.0000   0.0000   0.0000

          k = 0.4000-0.5000-0.5000 (  2468 PWs)   bands (ev):

   -66.1747 -66.1746 -32.4222 -32.4222 -32.3314 -32.3314 -32.2580 -32.2580
    17.0239  17.0239  17.1241  17.1241  17.5111  17.5111  21.2409  21.2409
    21.2949  21.2949  27.2707  27.2707

     occupation numbers 
     1.0000   1.0000   1.0000   1.0000   1.0000   1.0000   1.0000   1.0000
     1.0000   1.0000   1.0000   1.0000   1.0000   1.0000   0.0000   0.0000
     0.0000   0.0000   0.0000   0.0000

          k =-0.5000-0.5000-0.5000 (  2440 PWs)   bands (ev):

   -66.1740 -66.1739 -32.3396 -32.3396 -32.3396 -32.3395 -32.3395 -32.3395
    17.2312  17.2312  17.2312  17.2312  17.2312  17.2312  21.2998  21.2998
    21.2999  21.2999  29.1397  29.1397

     occupation numbers 
     1.0000   1.0000   1.0000   1.0000   1.0000   1.0000   1.0000   1.0000
     1.0000   1.0000   1.0000   1.0000   1.0000   1.0000   0.0000   0.0000
     0.0000   0.0000   0.0000   0.0000

     the Fermi energy is    19.4112 ev

!    total energy              =    -658.53887201 Ry
     total all-electron energy =     -5091.131938 Ry
     estimated scf accuracy    <          5.2E-11 Ry
     smearing contrib. (-TS)   =      -0.00001177 Ry
     internal energy E=F+TS    =    -658.53886024 Ry

     The total energy is F=E-TS. E is the sum of the following terms:
     one-electron contribution =    -210.85528129 Ry
     hartree contribution      =     126.87617891 Ry
     xc contribution           =     -55.56276118 Ry
     ewald contribution        =    -353.40834989 Ry
     one-center paw contrib.   =    -165.58864679 Ry
      -> PAW hartree energy AE =     183.20685312 Ry
      -> PAW hartree energy PS =    -181.90676798 Ry
      -> PAW xc energy AE      =    -110.16308623 Ry
      -> PAW xc energy PS      =      26.06867727 Ry
      -> total E_H with PAW    =     128.17626405 Ry
      -> total E_XC with PAW   =    -139.65717014 Ry

     total magnetization       =     4.13 Bohr mag/cell
     absolute magnetization    =     4.35 Bohr mag/cell

     convergence has been achieved in  15 iterations

     Writing all to output data dir ./out/Fe.save/
 
     init_run     :      0.28s CPU      0.35s WALL (       1 calls)
     electrons    :     14.15s CPU     15.01s WALL (       1 calls)

     Called by init_run:
     wfcinit      :      0.08s CPU      0.11s WALL (       1 calls)
     potinit      :      0.11s CPU      0.14s WALL (       1 calls)
     hinit0       :      0.06s CPU      0.06s WALL (       1 calls)

     Called by electrons:
     c_bands      :     10.50s CPU     10.96s WALL (      15 calls)
     sum_band     :      1.84s CPU      1.91s WALL (      15 calls)
     v_of_rho     :      0.17s CPU      0.17s WALL (      16 calls)
     v_h          :      0.01s CPU      0.01s WALL (      16 calls)
     v_xc         :      0.17s CPU      0.17s WALL (      16 calls)
     newd         :      0.13s CPU      0.16s WALL (      16 calls)
     PAW_pot      :      1.56s CPU      1.87s WALL (      16 calls)
     mix_rho      :      0.03s CPU      0.03s WALL (      15 calls)

     Called by c_bands:
     init_us_2    :      0.12s CPU      0.12s WALL (    1680 calls)
     init_us_2:cp :      0.12s CPU      0.12s WALL (    1680 calls)
     cegterg      :      9.85s CPU     10.15s WALL (     840 calls)

     Called by sum_band:
     sum_band:wei :      0.01s CPU      0.01s WALL (      15 calls)
     sum_band:loo :      1.55s CPU      1.61s WALL (      15 calls)
     sum_band:buf :      0.01s CPU      0.01s WALL (     840 calls)
     sum_band:ini :      0.07s CPU      0.06s WALL (     840 calls)
     sum_band:cal :      0.10s CPU      0.10s WALL (     840 calls)
     sum_band:bec :      0.00s CPU      0.01s WALL (     840 calls)
     addusdens    :      0.22s CPU      0.24s WALL (      15 calls)
                                        0.00s GPU  (      15 calls)
     addusd:skk   :      0.00s CPU      0.00s WALL (      15 calls)
                                        0.00s GPU  (      15 calls)

     Called by *egterg:
     cdiaghg      :      1.55s CPU      1.58s WALL (    3197 calls)
     cegterg:over :      0.26s CPU      0.25s WALL (    2413 calls)
     cegterg:upda :      0.05s CPU      0.08s WALL (    2413 calls)
     cegterg:last :      0.13s CPU      0.15s WALL (    1848 calls)
     h_psi        :      7.50s CPU      7.74s WALL (    3253 calls)
     s_psi        :      0.12s CPU      0.10s WALL (    3253 calls)
     g_psi        :      0.02s CPU      0.03s WALL (    2413 calls)

     Called by h_psi:
     h_psi:calbec :      0.36s CPU      0.33s WALL (    3253 calls)
     vloc_psi     :      7.05s CPU      7.26s WALL (    3253 calls)
     add_vuspsi   :      0.08s CPU      0.12s WALL (    3253 calls)

     General routines
     calbec       :      0.45s CPU      0.42s WALL (    4093 calls)
     fft          :      0.10s CPU      0.10s WALL (     394 calls)
     ffts         :      0.01s CPU      0.01s WALL (      62 calls)
     fftw         :      7.96s CPU      7.86s WALL (  109410 calls)
     interpolate  :      0.01s CPU      0.01s WALL (      32 calls)
 
     Parallel routines

     PAW routines
     PAW_pot      :      1.56s CPU      1.87s WALL (      16 calls)
     PAW_symme    :      0.03s CPU      0.03s WALL (      30 calls)
 
     PWSCF        :     14.58s CPU     15.73s WALL

 
   This run was terminated on:   8: 0:40  16Apr2024            

=------------------------------------------------------------------------------=
   JOB DONE.
=------------------------------------------------------------------------------=
