
     Program PWSCF v.7.2 starts on 16Apr2024 at  7:50:59 

     This program is part of the open-source Quantum ESPRESSO suite
     for quantum simulation of materials; please cite
         "P. Giannozzi et al., J. Phys.:Condens. Matter 21 395502 (2009);
         "P. Giannozzi et al., J. Phys.:Condens. Matter 29 465901 (2017);
         "P. Giannozzi et al., J. Chem. Phys. 152 154105 (2020);
          URL http://www.quantum-espresso.org", 
     in publications or presentations arising from this work. More details at
     http://www.quantum-espresso.org/quote

     Parallel version (MPI), running on    20 processors

     MPI processes distributed on     1 nodes
     360806 MiB available memory on the printing compute node when the environment starts
 
     Waiting for input...
     Reading input from standard input

     Current dimensions of program PWSCF are:
     Max number of different atomic species (ntypx) = 10
     Max number of k-points (npk) = 120000
     Max angular momentum in pseudopotentials (lmaxx) =  4
     file Fe.pbe-spn-kjpaw_psl.1.0.0.UPF: wavefunction(s)  3P 3D renormalized
     Found identity + ( -0.5000 -0.5000 -0.5000) symmetry
     This is a supercell, fractional translations are disabled
 
     K-points division:     npool     =       2
     R & G space division:  proc/nbgrp/npool/nimage =      10
     Subspace diagonalization in iterative solution of the eigenvalue problem:
     a serial algorithm will be used

 
     Parallelization info
     --------------------
     sticks:   dense  smooth     PW     G-vecs:    dense   smooth      PW
     Min         159      90     27                 4793     2047     339
     Max         160      91     28                 4794     2048     342
     Sum        1597     901    277                47937    20479    3407
 
     Using Slab Decomposition
 


     bravais-lattice index     =            1
     lattice parameter (alat)  =       5.3479  a.u.
     unit-cell volume          =     152.9523 (a.u.)^3
     number of atoms/cell      =            2
     number of atomic types    =            1
     number of electrons       =        32.00
     number of Kohn-Sham states=           20
     kinetic-energy cutoff     =     100.0000  Ry
     charge density cutoff     =     700.0000  Ry
     scf convergence threshold =      4.0E-10
     mixing beta               =       0.4000
     number of iterations used =            8  plain     mixing
     Exchange-correlation= SLA  PW   PBX  PBC
                           (   1   4   3   4   0   0   0)

     celldm(1)=   5.347925  celldm(2)=   0.000000  celldm(3)=   0.000000
     celldm(4)=   0.000000  celldm(5)=   0.000000  celldm(6)=   0.000000

     crystal axes: (cart. coord. in units of alat)
               a(1) = (   1.000000   0.000000   0.000000 )  
               a(2) = (   0.000000   1.000000   0.000000 )  
               a(3) = (   0.000000   0.000000   1.000000 )  

     reciprocal axes: (cart. coord. in units 2 pi/alat)
               b(1) = (  1.000000  0.000000  0.000000 )  
               b(2) = (  0.000000  1.000000  0.000000 )  
               b(3) = (  0.000000  0.000000  1.000000 )  


     PseudoPot. # 1 for Fe read from file:
     /truba/home/amuhaymin/ZnS/pseudo/QE/Fe.pbe-spn-kjpaw_psl.1.0.0.UPF
     MD5 check sum: fc81f059e5c5069939230b1155715ae8
     Pseudo is Projector augmented-wave + core cor, Zval = 16.0
     Generated using &quot;atomic&quot; code by A. Dal Corso  v.6.3
     Shape of augmentation charge: PSQ
     Using radial grid of 1191 points,  6 beta functions with: 
                l(1) =   0
                l(2) =   0
                l(3) =   1
                l(4) =   1
                l(5) =   2
                l(6) =   2
     Q(r) pseudized with 0 coefficients 


     atomic species   valence    mass     pseudopotential
        Fe            16.00    55.84500     Fe( 1.00)

     Starting magnetic structure 
     atomic species   magnetization
        Fe           0.312

     48 Sym. Ops., with inversion, found


                                    s                        frac. trans.

      isym =  1     identity                                     

 cryst.   s( 1) = (     1          0          0      )
                  (     0          1          0      )
                  (     0          0          1      )

 cart.    s( 1) = (  1.0000000  0.0000000  0.0000000 )
                  (  0.0000000  1.0000000  0.0000000 )
                  (  0.0000000  0.0000000  1.0000000 )


      isym =  2     180 deg rotation - cart. axis [0,0,1]        

 cryst.   s( 2) = (    -1          0          0      )
                  (     0         -1          0      )
                  (     0          0          1      )

 cart.    s( 2) = ( -1.0000000  0.0000000  0.0000000 )
                  (  0.0000000 -1.0000000  0.0000000 )
                  (  0.0000000  0.0000000  1.0000000 )


      isym =  3     180 deg rotation - cart. axis [0,1,0]        

 cryst.   s( 3) = (    -1          0          0      )
                  (     0          1          0      )
                  (     0          0         -1      )

 cart.    s( 3) = ( -1.0000000  0.0000000  0.0000000 )
                  (  0.0000000  1.0000000  0.0000000 )
                  (  0.0000000  0.0000000 -1.0000000 )


      isym =  4     180 deg rotation - cart. axis [1,0,0]        

 cryst.   s( 4) = (     1          0          0      )
                  (     0         -1          0      )
                  (     0          0         -1      )

 cart.    s( 4) = (  1.0000000  0.0000000  0.0000000 )
                  (  0.0000000 -1.0000000  0.0000000 )
                  (  0.0000000  0.0000000 -1.0000000 )


      isym =  5     180 deg rotation - cart. axis [1,1,0]        

 cryst.   s( 5) = (     0          1          0      )
                  (     1          0          0      )
                  (     0          0         -1      )

 cart.    s( 5) = (  0.0000000  1.0000000  0.0000000 )
                  (  1.0000000  0.0000000  0.0000000 )
                  (  0.0000000  0.0000000 -1.0000000 )


      isym =  6     180 deg rotation - cart. axis [1,-1,0]       

 cryst.   s( 6) = (     0         -1          0      )
                  (    -1          0          0      )
                  (     0          0         -1      )

 cart.    s( 6) = (  0.0000000 -1.0000000  0.0000000 )
                  ( -1.0000000  0.0000000  0.0000000 )
                  (  0.0000000  0.0000000 -1.0000000 )


      isym =  7      90 deg rotation - cart. axis [0,0,-1]       

 cryst.   s( 7) = (     0         -1          0      )
                  (     1          0          0      )
                  (     0          0          1      )

 cart.    s( 7) = (  0.0000000  1.0000000  0.0000000 )
                  ( -1.0000000  0.0000000  0.0000000 )
                  (  0.0000000  0.0000000  1.0000000 )


      isym =  8      90 deg rotation - cart. axis [0,0,1]        

 cryst.   s( 8) = (     0          1          0      )
                  (    -1          0          0      )
                  (     0          0          1      )

 cart.    s( 8) = (  0.0000000 -1.0000000  0.0000000 )
                  (  1.0000000  0.0000000  0.0000000 )
                  (  0.0000000  0.0000000  1.0000000 )


      isym =  9     180 deg rotation - cart. axis [1,0,1]        

 cryst.   s( 9) = (     0          0          1      )
                  (     0         -1          0      )
                  (     1          0          0      )

 cart.    s( 9) = (  0.0000000  0.0000000  1.0000000 )
                  (  0.0000000 -1.0000000  0.0000000 )
                  (  1.0000000  0.0000000  0.0000000 )


      isym = 10     180 deg rotation - cart. axis [-1,0,1]       

 cryst.   s(10) = (     0          0         -1      )
                  (     0         -1          0      )
                  (    -1          0          0      )

 cart.    s(10) = (  0.0000000  0.0000000 -1.0000000 )
                  (  0.0000000 -1.0000000  0.0000000 )
                  ( -1.0000000  0.0000000  0.0000000 )


      isym = 11      90 deg rotation - cart. axis [0,1,0]        

 cryst.   s(11) = (     0          0         -1      )
                  (     0          1          0      )
                  (     1          0          0      )

 cart.    s(11) = (  0.0000000  0.0000000  1.0000000 )
                  (  0.0000000  1.0000000  0.0000000 )
                  ( -1.0000000  0.0000000  0.0000000 )


      isym = 12      90 deg rotation - cart. axis [0,-1,0]       

 cryst.   s(12) = (     0          0          1      )
                  (     0          1          0      )
                  (    -1          0          0      )

 cart.    s(12) = (  0.0000000  0.0000000 -1.0000000 )
                  (  0.0000000  1.0000000  0.0000000 )
                  (  1.0000000  0.0000000  0.0000000 )


      isym = 13     180 deg rotation - cart. axis [0,1,1]        

 cryst.   s(13) = (    -1          0          0      )
                  (     0          0          1      )
                  (     0          1          0      )

 cart.    s(13) = ( -1.0000000  0.0000000  0.0000000 )
                  (  0.0000000  0.0000000  1.0000000 )
                  (  0.0000000  1.0000000  0.0000000 )


      isym = 14     180 deg rotation - cart. axis [0,1,-1]       

 cryst.   s(14) = (    -1          0          0      )
                  (     0          0         -1      )
                  (     0         -1          0      )

 cart.    s(14) = ( -1.0000000  0.0000000  0.0000000 )
                  (  0.0000000  0.0000000 -1.0000000 )
                  (  0.0000000 -1.0000000  0.0000000 )


      isym = 15      90 deg rotation - cart. axis [-1,0,0]       

 cryst.   s(15) = (     1          0          0      )
                  (     0          0         -1      )
                  (     0          1          0      )

 cart.    s(15) = (  1.0000000  0.0000000  0.0000000 )
                  (  0.0000000  0.0000000  1.0000000 )
                  (  0.0000000 -1.0000000  0.0000000 )


      isym = 16      90 deg rotation - cart. axis [1,0,0]        

 cryst.   s(16) = (     1          0          0      )
                  (     0          0          1      )
                  (     0         -1          0      )

 cart.    s(16) = (  1.0000000  0.0000000  0.0000000 )
                  (  0.0000000  0.0000000 -1.0000000 )
                  (  0.0000000  1.0000000  0.0000000 )


      isym = 17     120 deg rotation - cart. axis [-1,-1,-1]     

 cryst.   s(17) = (     0          0          1      )
                  (     1          0          0      )
                  (     0          1          0      )

 cart.    s(17) = (  0.0000000  1.0000000  0.0000000 )
                  (  0.0000000  0.0000000  1.0000000 )
                  (  1.0000000  0.0000000  0.0000000 )


      isym = 18     120 deg rotation - cart. axis [-1,1,1]       

 cryst.   s(18) = (     0          0         -1      )
                  (    -1          0          0      )
                  (     0          1          0      )

 cart.    s(18) = (  0.0000000 -1.0000000  0.0000000 )
                  (  0.0000000  0.0000000  1.0000000 )
                  ( -1.0000000  0.0000000  0.0000000 )


      isym = 19     120 deg rotation - cart. axis [1,1,-1]       

 cryst.   s(19) = (     0          0         -1      )
                  (     1          0          0      )
                  (     0         -1          0      )

 cart.    s(19) = (  0.0000000  1.0000000  0.0000000 )
                  (  0.0000000  0.0000000 -1.0000000 )
                  ( -1.0000000  0.0000000  0.0000000 )


      isym = 20     120 deg rotation - cart. axis [1,-1,1]       

 cryst.   s(20) = (     0          0          1      )
                  (    -1          0          0      )
                  (     0         -1          0      )

 cart.    s(20) = (  0.0000000 -1.0000000  0.0000000 )
                  (  0.0000000  0.0000000 -1.0000000 )
                  (  1.0000000  0.0000000  0.0000000 )


      isym = 21     120 deg rotation - cart. axis [1,1,1]        

 cryst.   s(21) = (     0          1          0      )
                  (     0          0          1      )
                  (     1          0          0      )

 cart.    s(21) = (  0.0000000  0.0000000  1.0000000 )
                  (  1.0000000  0.0000000  0.0000000 )
                  (  0.0000000  1.0000000  0.0000000 )


      isym = 22     120 deg rotation - cart. axis [-1,1,-1]      

 cryst.   s(22) = (     0         -1          0      )
                  (     0          0         -1      )
                  (     1          0          0      )

 cart.    s(22) = (  0.0000000  0.0000000  1.0000000 )
                  ( -1.0000000  0.0000000  0.0000000 )
                  (  0.0000000 -1.0000000  0.0000000 )


      isym = 23     120 deg rotation - cart. axis [1,-1,-1]      

 cryst.   s(23) = (     0         -1          0      )
                  (     0          0          1      )
                  (    -1          0          0      )

 cart.    s(23) = (  0.0000000  0.0000000 -1.0000000 )
                  ( -1.0000000  0.0000000  0.0000000 )
                  (  0.0000000  1.0000000  0.0000000 )


      isym = 24     120 deg rotation - cart. axis [-1,-1,1]      

 cryst.   s(24) = (     0          1          0      )
                  (     0          0         -1      )
                  (    -1          0          0      )

 cart.    s(24) = (  0.0000000  0.0000000 -1.0000000 )
                  (  1.0000000  0.0000000  0.0000000 )
                  (  0.0000000 -1.0000000  0.0000000 )


      isym = 25     inversion                                    

 cryst.   s(25) = (    -1          0          0      )
                  (     0         -1          0      )
                  (     0          0         -1      )

 cart.    s(25) = ( -1.0000000  0.0000000  0.0000000 )
                  (  0.0000000 -1.0000000  0.0000000 )
                  (  0.0000000  0.0000000 -1.0000000 )


      isym = 26     inv. 180 deg rotation - cart. axis [0,0,1]   

 cryst.   s(26) = (     1          0          0      )
                  (     0          1          0      )
                  (     0          0         -1      )

 cart.    s(26) = (  1.0000000  0.0000000  0.0000000 )
                  (  0.0000000  1.0000000  0.0000000 )
                  (  0.0000000  0.0000000 -1.0000000 )


      isym = 27     inv. 180 deg rotation - cart. axis [0,1,0]   

 cryst.   s(27) = (     1          0          0      )
                  (     0         -1          0      )
                  (     0          0          1      )

 cart.    s(27) = (  1.0000000  0.0000000  0.0000000 )
                  (  0.0000000 -1.0000000  0.0000000 )
                  (  0.0000000  0.0000000  1.0000000 )


      isym = 28     inv. 180 deg rotation - cart. axis [1,0,0]   

 cryst.   s(28) = (    -1          0          0      )
                  (     0          1          0      )
                  (     0          0          1      )

 cart.    s(28) = ( -1.0000000  0.0000000  0.0000000 )
                  (  0.0000000  1.0000000  0.0000000 )
                  (  0.0000000  0.0000000  1.0000000 )


      isym = 29     inv. 180 deg rotation - cart. axis [1,1,0]   

 cryst.   s(29) = (     0         -1          0      )
                  (    -1          0          0      )
                  (     0          0          1      )

 cart.    s(29) = (  0.0000000 -1.0000000  0.0000000 )
                  ( -1.0000000  0.0000000  0.0000000 )
                  (  0.0000000  0.0000000  1.0000000 )


      isym = 30     inv. 180 deg rotation - cart. axis [1,-1,0]  

 cryst.   s(30) = (     0          1          0      )
                  (     1          0          0      )
                  (     0          0          1      )

 cart.    s(30) = (  0.0000000  1.0000000  0.0000000 )
                  (  1.0000000  0.0000000  0.0000000 )
                  (  0.0000000  0.0000000  1.0000000 )


      isym = 31     inv.  90 deg rotation - cart. axis [0,0,-1]  

 cryst.   s(31) = (     0          1          0      )
                  (    -1          0          0      )
                  (     0          0         -1      )

 cart.    s(31) = (  0.0000000 -1.0000000  0.0000000 )
                  (  1.0000000  0.0000000  0.0000000 )
                  (  0.0000000  0.0000000 -1.0000000 )


      isym = 32     inv.  90 deg rotation - cart. axis [0,0,1]   

 cryst.   s(32) = (     0         -1          0      )
                  (     1          0          0      )
                  (     0          0         -1      )

 cart.    s(32) = (  0.0000000  1.0000000  0.0000000 )
                  ( -1.0000000  0.0000000  0.0000000 )
                  (  0.0000000  0.0000000 -1.0000000 )


      isym = 33     inv. 180 deg rotation - cart. axis [1,0,1]   

 cryst.   s(33) = (     0          0         -1      )
                  (     0          1          0      )
                  (    -1          0          0      )

 cart.    s(33) = (  0.0000000  0.0000000 -1.0000000 )
                  (  0.0000000  1.0000000  0.0000000 )
                  ( -1.0000000  0.0000000  0.0000000 )


      isym = 34     inv. 180 deg rotation - cart. axis [-1,0,1]  

 cryst.   s(34) = (     0          0          1      )
                  (     0          1          0      )
                  (     1          0          0      )

 cart.    s(34) = (  0.0000000  0.0000000  1.0000000 )
                  (  0.0000000  1.0000000  0.0000000 )
                  (  1.0000000  0.0000000  0.0000000 )


      isym = 35     inv.  90 deg rotation - cart. axis [0,1,0]   

 cryst.   s(35) = (     0          0          1      )
                  (     0         -1          0      )
                  (    -1          0          0      )

 cart.    s(35) = (  0.0000000  0.0000000 -1.0000000 )
                  (  0.0000000 -1.0000000  0.0000000 )
                  (  1.0000000  0.0000000  0.0000000 )


      isym = 36     inv.  90 deg rotation - cart. axis [0,-1,0]  

 cryst.   s(36) = (     0          0         -1      )
                  (     0         -1          0      )
                  (     1          0          0      )

 cart.    s(36) = (  0.0000000  0.0000000  1.0000000 )
                  (  0.0000000 -1.0000000  0.0000000 )
                  ( -1.0000000  0.0000000  0.0000000 )


      isym = 37     inv. 180 deg rotation - cart. axis [0,1,1]   

 cryst.   s(37) = (     1          0          0      )
                  (     0          0         -1      )
                  (     0         -1          0      )

 cart.    s(37) = (  1.0000000  0.0000000  0.0000000 )
                  (  0.0000000  0.0000000 -1.0000000 )
                  (  0.0000000 -1.0000000  0.0000000 )


      isym = 38     inv. 180 deg rotation - cart. axis [0,1,-1]  

 cryst.   s(38) = (     1          0          0      )
                  (     0          0          1      )
                  (     0          1          0      )

 cart.    s(38) = (  1.0000000  0.0000000  0.0000000 )
                  (  0.0000000  0.0000000  1.0000000 )
                  (  0.0000000  1.0000000  0.0000000 )


      isym = 39     inv.  90 deg rotation - cart. axis [-1,0,0]  

 cryst.   s(39) = (    -1          0          0      )
                  (     0          0          1      )
                  (     0         -1          0      )

 cart.    s(39) = ( -1.0000000  0.0000000  0.0000000 )
                  (  0.0000000  0.0000000 -1.0000000 )
                  (  0.0000000  1.0000000  0.0000000 )


      isym = 40     inv.  90 deg rotation - cart. axis [1,0,0]   

 cryst.   s(40) = (    -1          0          0      )
                  (     0          0         -1      )
                  (     0          1          0      )

 cart.    s(40) = ( -1.0000000  0.0000000  0.0000000 )
                  (  0.0000000  0.0000000  1.0000000 )
                  (  0.0000000 -1.0000000  0.0000000 )


      isym = 41     inv. 120 deg rotation - cart. axis [-1,-1,-1]

 cryst.   s(41) = (     0          0         -1      )
                  (    -1          0          0      )
                  (     0         -1          0      )

 cart.    s(41) = (  0.0000000 -1.0000000  0.0000000 )
                  (  0.0000000  0.0000000 -1.0000000 )
                  ( -1.0000000  0.0000000  0.0000000 )


      isym = 42     inv. 120 deg rotation - cart. axis [-1,1,1]  

 cryst.   s(42) = (     0          0          1      )
                  (     1          0          0      )
                  (     0         -1          0      )

 cart.    s(42) = (  0.0000000  1.0000000  0.0000000 )
                  (  0.0000000  0.0000000 -1.0000000 )
                  (  1.0000000  0.0000000  0.0000000 )


      isym = 43     inv. 120 deg rotation - cart. axis [1,1,-1]  

 cryst.   s(43) = (     0          0          1      )
                  (    -1          0          0      )
                  (     0          1          0      )

 cart.    s(43) = (  0.0000000 -1.0000000  0.0000000 )
                  (  0.0000000  0.0000000  1.0000000 )
                  (  1.0000000  0.0000000  0.0000000 )


      isym = 44     inv. 120 deg rotation - cart. axis [1,-1,1]  

 cryst.   s(44) = (     0          0         -1      )
                  (     1          0          0      )
                  (     0          1          0      )

 cart.    s(44) = (  0.0000000  1.0000000  0.0000000 )
                  (  0.0000000  0.0000000  1.0000000 )
                  ( -1.0000000  0.0000000  0.0000000 )


      isym = 45     inv. 120 deg rotation - cart. axis [1,1,1]   

 cryst.   s(45) = (     0         -1          0      )
                  (     0          0         -1      )
                  (    -1          0          0      )

 cart.    s(45) = (  0.0000000  0.0000000 -1.0000000 )
                  ( -1.0000000  0.0000000  0.0000000 )
                  (  0.0000000 -1.0000000  0.0000000 )


      isym = 46     inv. 120 deg rotation - cart. axis [-1,1,-1] 

 cryst.   s(46) = (     0          1          0      )
                  (     0          0          1      )
                  (    -1          0          0      )

 cart.    s(46) = (  0.0000000  0.0000000 -1.0000000 )
                  (  1.0000000  0.0000000  0.0000000 )
                  (  0.0000000  1.0000000  0.0000000 )


      isym = 47     inv. 120 deg rotation - cart. axis [1,-1,-1] 

 cryst.   s(47) = (     0          1          0      )
                  (     0          0         -1      )
                  (     1          0          0      )

 cart.    s(47) = (  0.0000000  0.0000000  1.0000000 )
                  (  1.0000000  0.0000000  0.0000000 )
                  (  0.0000000 -1.0000000  0.0000000 )


      isym = 48     inv. 120 deg rotation - cart. axis [-1,-1,1] 

 cryst.   s(48) = (     0         -1          0      )
                  (     0          0          1      )
                  (     1          0          0      )

 cart.    s(48) = (  0.0000000  0.0000000  1.0000000 )
                  ( -1.0000000  0.0000000  0.0000000 )
                  (  0.0000000  1.0000000  0.0000000 )


     point group O_h (m-3m) 
     there are 10 classes
     the character table:

       E     8C3   3C2   6C4   6C2'  i     8S6   3s_h  6S4   6s_d 
A_1g   1.00  1.00  1.00  1.00  1.00  1.00  1.00  1.00  1.00  1.00
A_2g   1.00  1.00  1.00 -1.00 -1.00  1.00  1.00  1.00 -1.00 -1.00
E_g    2.00 -1.00  2.00  0.00  0.00  2.00 -1.00  2.00  0.00  0.00
T_1g   3.00  0.00 -1.00  1.00 -1.00  3.00  0.00 -1.00  1.00 -1.00
T_2g   3.00  0.00 -1.00 -1.00  1.00  3.00  0.00 -1.00 -1.00  1.00
A_1u   1.00  1.00  1.00  1.00  1.00 -1.00 -1.00 -1.00 -1.00 -1.00
A_2u   1.00  1.00  1.00 -1.00 -1.00 -1.00 -1.00 -1.00  1.00  1.00
E_u    2.00 -1.00  2.00  0.00  0.00 -2.00  1.00 -2.00  0.00  0.00
T_1u   3.00  0.00 -1.00  1.00 -1.00 -3.00  0.00  1.00 -1.00  1.00
T_2u   3.00  0.00 -1.00 -1.00  1.00 -3.00  0.00  1.00  1.00 -1.00

     the symmetry operations in each class and the name of the first element:

     E        1
          identity                                               
     8C3     17   19   20   18   24   21   22   23
          120 deg rotation - cart. axis [-1,-1,-1]               
     3C2      2    4    3
          180 deg rotation - cart. axis [0,0,1]                  
     6C4      7    8   15   16   12   11
           90 deg rotation - cart. axis [0,0,-1]                 
     6C2'     5    6   14   13   10    9
          180 deg rotation - cart. axis [1,1,0]                  
     i       25
          inversion                                              
     8S6     41   43   44   42   48   45   46   47
          inv. 120 deg rotation - cart. axis [-1,-1,-1]          
     3s_h    26   28   27
          inv. 180 deg rotation - cart. axis [0,0,1]             
     6S4     31   32   39   40   36   35
          inv.  90 deg rotation - cart. axis [0,0,-1]            
     6s_d    29   30   38   37   34   33
          inv. 180 deg rotation - cart. axis [1,1,0]             

   Cartesian axes

     site n.     atom                  positions (alat units)
         1           Fe  tau(   1) = (   0.0000000   0.0000000   0.0000000  )
         2           Fe  tau(   2) = (   0.5000000   0.5000000   0.5000000  )

   Crystallographic axes

     site n.     atom                  positions (cryst. coord.)
         1           Fe  tau(   1) = (  0.0000000  0.0000000  0.0000000  )
         2           Fe  tau(   2) = (  0.5000000  0.5000000  0.5000000  )

     number of k points=    56  Gaussian smearing, width (Ry)=  0.0010
                       cart. coord. in units 2pi/alat
        k(    1) = (   0.0000000   0.0000000   0.0000000), wk =   0.0010000
        k(    2) = (   0.0000000   0.0000000   0.1000000), wk =   0.0060000
        k(    3) = (   0.0000000   0.0000000   0.2000000), wk =   0.0060000
        k(    4) = (   0.0000000   0.0000000   0.3000000), wk =   0.0060000
        k(    5) = (   0.0000000   0.0000000   0.4000000), wk =   0.0060000
        k(    6) = (   0.0000000   0.0000000  -0.5000000), wk =   0.0030000
        k(    7) = (   0.0000000   0.1000000   0.1000000), wk =   0.0120000
        k(    8) = (   0.0000000   0.1000000   0.2000000), wk =   0.0240000
        k(    9) = (   0.0000000   0.1000000   0.3000000), wk =   0.0240000
        k(   10) = (   0.0000000   0.1000000   0.4000000), wk =   0.0240000
        k(   11) = (   0.0000000   0.1000000  -0.5000000), wk =   0.0120000
        k(   12) = (   0.0000000   0.2000000   0.2000000), wk =   0.0120000
        k(   13) = (   0.0000000   0.2000000   0.3000000), wk =   0.0240000
        k(   14) = (   0.0000000   0.2000000   0.4000000), wk =   0.0240000
        k(   15) = (   0.0000000   0.2000000  -0.5000000), wk =   0.0120000
        k(   16) = (   0.0000000   0.3000000   0.3000000), wk =   0.0120000
        k(   17) = (   0.0000000   0.3000000   0.4000000), wk =   0.0240000
        k(   18) = (   0.0000000   0.3000000  -0.5000000), wk =   0.0120000
        k(   19) = (   0.0000000   0.4000000   0.4000000), wk =   0.0120000
        k(   20) = (   0.0000000   0.4000000  -0.5000000), wk =   0.0120000
        k(   21) = (   0.0000000  -0.5000000  -0.5000000), wk =   0.0030000
        k(   22) = (   0.1000000   0.1000000   0.1000000), wk =   0.0080000
        k(   23) = (   0.1000000   0.1000000   0.2000000), wk =   0.0240000
        k(   24) = (   0.1000000   0.1000000   0.3000000), wk =   0.0240000
        k(   25) = (   0.1000000   0.1000000   0.4000000), wk =   0.0240000
        k(   26) = (   0.1000000   0.1000000  -0.5000000), wk =   0.0120000
        k(   27) = (   0.1000000   0.2000000   0.2000000), wk =   0.0240000
        k(   28) = (   0.1000000   0.2000000   0.3000000), wk =   0.0480000
        k(   29) = (   0.1000000   0.2000000   0.4000000), wk =   0.0480000
        k(   30) = (   0.1000000   0.2000000  -0.5000000), wk =   0.0240000
        k(   31) = (   0.1000000   0.3000000   0.3000000), wk =   0.0240000
        k(   32) = (   0.1000000   0.3000000   0.4000000), wk =   0.0480000
        k(   33) = (   0.1000000   0.3000000  -0.5000000), wk =   0.0240000
        k(   34) = (   0.1000000   0.4000000   0.4000000), wk =   0.0240000
        k(   35) = (   0.1000000   0.4000000  -0.5000000), wk =   0.0240000
        k(   36) = (   0.1000000  -0.5000000  -0.5000000), wk =   0.0060000
        k(   37) = (   0.2000000   0.2000000   0.2000000), wk =   0.0080000
        k(   38) = (   0.2000000   0.2000000   0.3000000), wk =   0.0240000
        k(   39) = (   0.2000000   0.2000000   0.4000000), wk =   0.0240000
        k(   40) = (   0.2000000   0.2000000  -0.5000000), wk =   0.0120000
        k(   41) = (   0.2000000   0.3000000   0.3000000), wk =   0.0240000
        k(   42) = (   0.2000000   0.3000000   0.4000000), wk =   0.0480000
        k(   43) = (   0.2000000   0.3000000  -0.5000000), wk =   0.0240000
        k(   44) = (   0.2000000   0.4000000   0.4000000), wk =   0.0240000
        k(   45) = (   0.2000000   0.4000000  -0.5000000), wk =   0.0240000
        k(   46) = (   0.2000000  -0.5000000  -0.5000000), wk =   0.0060000
        k(   47) = (   0.3000000   0.3000000   0.3000000), wk =   0.0080000
        k(   48) = (   0.3000000   0.3000000   0.4000000), wk =   0.0240000
        k(   49) = (   0.3000000   0.3000000  -0.5000000), wk =   0.0120000
        k(   50) = (   0.3000000   0.4000000   0.4000000), wk =   0.0240000
        k(   51) = (   0.3000000   0.4000000  -0.5000000), wk =   0.0240000
        k(   52) = (   0.3000000  -0.5000000  -0.5000000), wk =   0.0060000
        k(   53) = (   0.4000000   0.4000000   0.4000000), wk =   0.0080000
        k(   54) = (   0.4000000   0.4000000  -0.5000000), wk =   0.0120000
        k(   55) = (   0.4000000  -0.5000000  -0.5000000), wk =   0.0060000
        k(   56) = (  -0.5000000  -0.5000000  -0.5000000), wk =   0.0010000

                       cryst. coord.
        k(    1) = (   0.0000000   0.0000000   0.0000000), wk =   0.0010000
        k(    2) = (   0.0000000   0.0000000   0.1000000), wk =   0.0060000
        k(    3) = (   0.0000000   0.0000000   0.2000000), wk =   0.0060000
        k(    4) = (   0.0000000   0.0000000   0.3000000), wk =   0.0060000
        k(    5) = (   0.0000000   0.0000000   0.4000000), wk =   0.0060000
        k(    6) = (   0.0000000   0.0000000  -0.5000000), wk =   0.0030000
        k(    7) = (   0.0000000   0.1000000   0.1000000), wk =   0.0120000
        k(    8) = (   0.0000000   0.1000000   0.2000000), wk =   0.0240000
        k(    9) = (   0.0000000   0.1000000   0.3000000), wk =   0.0240000
        k(   10) = (   0.0000000   0.1000000   0.4000000), wk =   0.0240000
        k(   11) = (   0.0000000   0.1000000  -0.5000000), wk =   0.0120000
        k(   12) = (   0.0000000   0.2000000   0.2000000), wk =   0.0120000
        k(   13) = (   0.0000000   0.2000000   0.3000000), wk =   0.0240000
        k(   14) = (   0.0000000   0.2000000   0.4000000), wk =   0.0240000
        k(   15) = (   0.0000000   0.2000000  -0.5000000), wk =   0.0120000
        k(   16) = (   0.0000000   0.3000000   0.3000000), wk =   0.0120000
        k(   17) = (   0.0000000   0.3000000   0.4000000), wk =   0.0240000
        k(   18) = (   0.0000000   0.3000000  -0.5000000), wk =   0.0120000
        k(   19) = (   0.0000000   0.4000000   0.4000000), wk =   0.0120000
        k(   20) = (   0.0000000   0.4000000  -0.5000000), wk =   0.0120000
        k(   21) = (   0.0000000  -0.5000000  -0.5000000), wk =   0.0030000
        k(   22) = (   0.1000000   0.1000000   0.1000000), wk =   0.0080000
        k(   23) = (   0.1000000   0.1000000   0.2000000), wk =   0.0240000
        k(   24) = (   0.1000000   0.1000000   0.3000000), wk =   0.0240000
        k(   25) = (   0.1000000   0.1000000   0.4000000), wk =   0.0240000
        k(   26) = (   0.1000000   0.1000000  -0.5000000), wk =   0.0120000
        k(   27) = (   0.1000000   0.2000000   0.2000000), wk =   0.0240000
        k(   28) = (   0.1000000   0.2000000   0.3000000), wk =   0.0480000
        k(   29) = (   0.1000000   0.2000000   0.4000000), wk =   0.0480000
        k(   30) = (   0.1000000   0.2000000  -0.5000000), wk =   0.0240000
        k(   31) = (   0.1000000   0.3000000   0.3000000), wk =   0.0240000
        k(   32) = (   0.1000000   0.3000000   0.4000000), wk =   0.0480000
        k(   33) = (   0.1000000   0.3000000  -0.5000000), wk =   0.0240000
        k(   34) = (   0.1000000   0.4000000   0.4000000), wk =   0.0240000
        k(   35) = (   0.1000000   0.4000000  -0.5000000), wk =   0.0240000
        k(   36) = (   0.1000000  -0.5000000  -0.5000000), wk =   0.0060000
        k(   37) = (   0.2000000   0.2000000   0.2000000), wk =   0.0080000
        k(   38) = (   0.2000000   0.2000000   0.3000000), wk =   0.0240000
        k(   39) = (   0.2000000   0.2000000   0.4000000), wk =   0.0240000
        k(   40) = (   0.2000000   0.2000000  -0.5000000), wk =   0.0120000
        k(   41) = (   0.2000000   0.3000000   0.3000000), wk =   0.0240000
        k(   42) = (   0.2000000   0.3000000   0.4000000), wk =   0.0480000
        k(   43) = (   0.2000000   0.3000000  -0.5000000), wk =   0.0240000
        k(   44) = (   0.2000000   0.4000000   0.4000000), wk =   0.0240000
        k(   45) = (   0.2000000   0.4000000  -0.5000000), wk =   0.0240000
        k(   46) = (   0.2000000  -0.5000000  -0.5000000), wk =   0.0060000
        k(   47) = (   0.3000000   0.3000000   0.3000000), wk =   0.0080000
        k(   48) = (   0.3000000   0.3000000   0.4000000), wk =   0.0240000
        k(   49) = (   0.3000000   0.3000000  -0.5000000), wk =   0.0120000
        k(   50) = (   0.3000000   0.4000000   0.4000000), wk =   0.0240000
        k(   51) = (   0.3000000   0.4000000  -0.5000000), wk =   0.0240000
        k(   52) = (   0.3000000  -0.5000000  -0.5000000), wk =   0.0060000
        k(   53) = (   0.4000000   0.4000000   0.4000000), wk =   0.0080000
        k(   54) = (   0.4000000   0.4000000  -0.5000000), wk =   0.0120000
        k(   55) = (   0.4000000  -0.5000000  -0.5000000), wk =   0.0060000
        k(   56) = (  -0.5000000  -0.5000000  -0.5000000), wk =   0.0010000

     Dense  grid:    47937 G-vectors     FFT dimensions: (  45,  45,  45)

     Smooth grid:    20479 G-vectors     FFT dimensions: (  36,  36,  36)

     Dynamical RAM for                 wfc:       0.08 MB

     Dynamical RAM for     wfc (w. buffer):       4.49 MB

     Dynamical RAM for           str. fact:       0.07 MB

     Dynamical RAM for           local pot:       0.00 MB

     Dynamical RAM for          nlocal pot:       0.14 MB

     Dynamical RAM for                qrad:       2.12 MB

     Dynamical RAM for          rho,v,vnew:       0.90 MB

     Dynamical RAM for               rhoin:       0.30 MB

     Dynamical RAM for            rho*nmix:       2.34 MB

     Dynamical RAM for           G-vectors:       0.29 MB

     Dynamical RAM for          h,s,v(r/c):       0.07 MB

     Dynamical RAM for          <psi|beta>:       0.01 MB

     Dynamical RAM for                 psi:       0.16 MB

     Dynamical RAM for                hpsi:       0.16 MB

     Dynamical RAM for                spsi:       0.16 MB

     Dynamical RAM for      wfcinit/wfcrot:       0.17 MB

     Dynamical RAM for           addusdens:       6.98 MB

     Estimated static dynamical RAM per process >       8.93 MB

     Estimated max dynamical RAM per process >      18.25 MB

     Estimated total dynamical RAM >     341.61 MB
     Generating pointlists ...
     new r_m :   0.3572 (alat units)  1.9105 (a.u.) for type    1

     The initial density is read from file :
     ./out/Fe.save/charge-density


     starting charge      32.3416, renormalised to      32.0000

     negative rho (up, down):  0.000E+00 9.046E-05
     Starting wfcs from file
     Checking if some PAW data can be deallocated... 

     total cpu time spent up to now is        0.5 secs

     Self-consistent Calculation

     iteration #  1     ecut=   100.00 Ry     beta= 0.40
     Davidson diagonalization with overlap

---- Real-time Memory Report at c_bands before calling an iterative solver
            57 MiB given to the printing process from OS
             0 MiB allocation reported by mallinfo(arena+hblkhd)
        360222 MiB available memory on the node where the printing process lives
------------------
     ethr =  1.00E-05,  avg # of iterations =  4.5

     negative rho (up, down):  0.000E+00 7.631E-05

     total cpu time spent up to now is        1.8 secs

     total energy              =    -658.52187626 Ry
     estimated scf accuracy    <       0.05592927 Ry

     total magnetization       =     4.35 Bohr mag/cell
     absolute magnetization    =     4.56 Bohr mag/cell

     iteration #  2     ecut=   100.00 Ry     beta= 0.40
     Davidson diagonalization with overlap

---- Real-time Memory Report at c_bands before calling an iterative solver
            74 MiB given to the printing process from OS
             0 MiB allocation reported by mallinfo(arena+hblkhd)
        359964 MiB available memory on the node where the printing process lives
------------------
     ethr =  1.75E-04,  avg # of iterations =  3.2

     negative rho (up, down):  0.000E+00 8.578E-05

     total cpu time spent up to now is        2.9 secs

     total energy              =    -658.53852334 Ry
     estimated scf accuracy    <       0.01834902 Ry

     total magnetization       =     4.14 Bohr mag/cell
     absolute magnetization    =     4.39 Bohr mag/cell

     iteration #  3     ecut=   100.00 Ry     beta= 0.40
     Davidson diagonalization with overlap

---- Real-time Memory Report at c_bands before calling an iterative solver
            75 MiB given to the printing process from OS
             0 MiB allocation reported by mallinfo(arena+hblkhd)
        359948 MiB available memory on the node where the printing process lives
------------------
     ethr =  5.73E-05,  avg # of iterations =  1.9

     negative rho (up, down):  0.000E+00 9.475E-05

     total cpu time spent up to now is        3.7 secs

     total energy              =    -658.54027564 Ry
     estimated scf accuracy    <       0.00071295 Ry

     total magnetization       =     4.20 Bohr mag/cell
     absolute magnetization    =     4.44 Bohr mag/cell

     iteration #  4     ecut=   100.00 Ry     beta= 0.40
     Davidson diagonalization with overlap

---- Real-time Memory Report at c_bands before calling an iterative solver
            77 MiB given to the printing process from OS
             0 MiB allocation reported by mallinfo(arena+hblkhd)
        359939 MiB available memory on the node where the printing process lives
------------------
     ethr =  2.23E-06,  avg # of iterations =  3.8

     negative rho (up, down):  0.000E+00 9.553E-05

     total cpu time spent up to now is        4.8 secs

     total energy              =    -658.54105306 Ry
     estimated scf accuracy    <       0.00406281 Ry

     total magnetization       =     4.29 Bohr mag/cell
     absolute magnetization    =     4.52 Bohr mag/cell

     iteration #  5     ecut=   100.00 Ry     beta= 0.40
     Davidson diagonalization with overlap

---- Real-time Memory Report at c_bands before calling an iterative solver
            78 MiB given to the printing process from OS
             0 MiB allocation reported by mallinfo(arena+hblkhd)
        359928 MiB available memory on the node where the printing process lives
------------------
     ethr =  2.23E-06,  avg # of iterations =  1.0

     negative rho (up, down):  0.000E+00 9.521E-05

     total cpu time spent up to now is        5.5 secs

     total energy              =    -658.54088123 Ry
     estimated scf accuracy    <       0.00208499 Ry

     total magnetization       =     4.29 Bohr mag/cell
     absolute magnetization    =     4.52 Bohr mag/cell

     iteration #  6     ecut=   100.00 Ry     beta= 0.40
     Davidson diagonalization with overlap

---- Real-time Memory Report at c_bands before calling an iterative solver
            80 MiB given to the printing process from OS
             0 MiB allocation reported by mallinfo(arena+hblkhd)
        359915 MiB available memory on the node where the printing process lives
------------------
     ethr =  2.23E-06,  avg # of iterations =  1.5

     negative rho (up, down):  0.000E+00 9.876E-05

     total cpu time spent up to now is        6.3 secs

     total energy              =    -658.54071276 Ry
     estimated scf accuracy    <       0.00099205 Ry

     total magnetization       =     4.28 Bohr mag/cell
     absolute magnetization    =     4.51 Bohr mag/cell

     iteration #  7     ecut=   100.00 Ry     beta= 0.40
     Davidson diagonalization with overlap

---- Real-time Memory Report at c_bands before calling an iterative solver
            81 MiB given to the printing process from OS
             0 MiB allocation reported by mallinfo(arena+hblkhd)
        359907 MiB available memory on the node where the printing process lives
------------------
     ethr =  2.23E-06,  avg # of iterations =  2.0

     negative rho (up, down):  0.000E+00 1.010E-04

     total cpu time spent up to now is        7.1 secs

     total energy              =    -658.54075752 Ry
     estimated scf accuracy    <       0.00013900 Ry

     total magnetization       =     4.26 Bohr mag/cell
     absolute magnetization    =     4.50 Bohr mag/cell

     iteration #  8     ecut=   100.00 Ry     beta= 0.40
     Davidson diagonalization with overlap

---- Real-time Memory Report at c_bands before calling an iterative solver
            81 MiB given to the printing process from OS
             0 MiB allocation reported by mallinfo(arena+hblkhd)
        359898 MiB available memory on the node where the printing process lives
------------------
     ethr =  4.34E-07,  avg # of iterations =  2.7

     negative rho (up, down):  0.000E+00 1.016E-04

     total cpu time spent up to now is        8.0 secs

     total energy              =    -658.54078536 Ry
     estimated scf accuracy    <       0.00001557 Ry

     total magnetization       =     4.25 Bohr mag/cell
     absolute magnetization    =     4.50 Bohr mag/cell

     iteration #  9     ecut=   100.00 Ry     beta= 0.40
     Davidson diagonalization with overlap

---- Real-time Memory Report at c_bands before calling an iterative solver
            82 MiB given to the printing process from OS
             0 MiB allocation reported by mallinfo(arena+hblkhd)
        359896 MiB available memory on the node where the printing process lives
------------------
     ethr =  4.87E-08,  avg # of iterations =  1.6

     negative rho (up, down):  0.000E+00 1.009E-04

     total cpu time spent up to now is        8.8 secs

     total energy              =    -658.54078472 Ry
     estimated scf accuracy    <       0.00001349 Ry

     total magnetization       =     4.25 Bohr mag/cell
     absolute magnetization    =     4.50 Bohr mag/cell

     iteration # 10     ecut=   100.00 Ry     beta= 0.40
     Davidson diagonalization with overlap

---- Real-time Memory Report at c_bands before calling an iterative solver
            82 MiB given to the printing process from OS
             0 MiB allocation reported by mallinfo(arena+hblkhd)
        359889 MiB available memory on the node where the printing process lives
------------------
     ethr =  4.21E-08,  avg # of iterations =  1.0

     negative rho (up, down):  0.000E+00 1.003E-04

     total cpu time spent up to now is        9.6 secs

     total energy              =    -658.54078328 Ry
     estimated scf accuracy    <       0.00000480 Ry

     total magnetization       =     4.25 Bohr mag/cell
     absolute magnetization    =     4.50 Bohr mag/cell

     iteration # 11     ecut=   100.00 Ry     beta= 0.40
     Davidson diagonalization with overlap

---- Real-time Memory Report at c_bands before calling an iterative solver
            82 MiB given to the printing process from OS
             0 MiB allocation reported by mallinfo(arena+hblkhd)
        359875 MiB available memory on the node where the printing process lives
------------------
     ethr =  1.50E-08,  avg # of iterations =  2.2

     negative rho (up, down):  0.000E+00 1.003E-04

     total cpu time spent up to now is       10.5 secs

     total energy              =    -658.54078425 Ry
     estimated scf accuracy    <       0.00000047 Ry

     total magnetization       =     4.25 Bohr mag/cell
     absolute magnetization    =     4.50 Bohr mag/cell

     iteration # 12     ecut=   100.00 Ry     beta= 0.40
     Davidson diagonalization with overlap

---- Real-time Memory Report at c_bands before calling an iterative solver
            83 MiB given to the printing process from OS
             0 MiB allocation reported by mallinfo(arena+hblkhd)
        359870 MiB available memory on the node where the printing process lives
------------------
     ethr =  1.46E-09,  avg # of iterations =  2.3

     negative rho (up, down):  0.000E+00 1.003E-04

     total cpu time spent up to now is       11.5 secs

     total energy              =    -658.54078439 Ry
     estimated scf accuracy    <       0.00000041 Ry

     total magnetization       =     4.25 Bohr mag/cell
     absolute magnetization    =     4.50 Bohr mag/cell

     iteration # 13     ecut=   100.00 Ry     beta= 0.40
     Davidson diagonalization with overlap

---- Real-time Memory Report at c_bands before calling an iterative solver
            83 MiB given to the printing process from OS
             0 MiB allocation reported by mallinfo(arena+hblkhd)
        359864 MiB available memory on the node where the printing process lives
------------------
     ethr =  1.27E-09,  avg # of iterations =  1.7

     negative rho (up, down):  0.000E+00 1.003E-04

     total cpu time spent up to now is       12.4 secs

     total energy              =    -658.54078448 Ry
     estimated scf accuracy    <          4.6E-09 Ry

     total magnetization       =     4.25 Bohr mag/cell
     absolute magnetization    =     4.50 Bohr mag/cell

     iteration # 14     ecut=   100.00 Ry     beta= 0.40
     Davidson diagonalization with overlap

---- Real-time Memory Report at c_bands before calling an iterative solver
            84 MiB given to the printing process from OS
             0 MiB allocation reported by mallinfo(arena+hblkhd)
        359863 MiB available memory on the node where the printing process lives
------------------
     ethr =  1.43E-11,  avg # of iterations =  3.6

     negative rho (up, down):  0.000E+00 1.003E-04

     total cpu time spent up to now is       13.5 secs

     total energy              =    -658.54078448 Ry
     estimated scf accuracy    <       0.00000002 Ry

     total magnetization       =     4.25 Bohr mag/cell
     absolute magnetization    =     4.50 Bohr mag/cell

     iteration # 15     ecut=   100.00 Ry     beta= 0.40
     Davidson diagonalization with overlap

---- Real-time Memory Report at c_bands before calling an iterative solver
            84 MiB given to the printing process from OS
             0 MiB allocation reported by mallinfo(arena+hblkhd)
        359861 MiB available memory on the node where the printing process lives
------------------
     ethr =  1.43E-11,  avg # of iterations =  3.1

     negative rho (up, down):  0.000E+00 1.003E-04

     total cpu time spent up to now is       14.4 secs

     total energy              =    -658.54078448 Ry
     estimated scf accuracy    <          6.9E-10 Ry

     total magnetization       =     4.25 Bohr mag/cell
     absolute magnetization    =     4.50 Bohr mag/cell

     iteration # 16     ecut=   100.00 Ry     beta= 0.40
     Davidson diagonalization with overlap

---- Real-time Memory Report at c_bands before calling an iterative solver
            84 MiB given to the printing process from OS
             0 MiB allocation reported by mallinfo(arena+hblkhd)
        359860 MiB available memory on the node where the printing process lives
------------------
     ethr =  2.15E-12,  avg # of iterations =  3.5

     negative rho (up, down):  0.000E+00 1.003E-04

     total cpu time spent up to now is       15.5 secs

     total energy              =    -658.54078448 Ry
     estimated scf accuracy    <          2.1E-09 Ry

     total magnetization       =     4.25 Bohr mag/cell
     absolute magnetization    =     4.50 Bohr mag/cell

     iteration # 17     ecut=   100.00 Ry     beta= 0.40
     Davidson diagonalization with overlap

---- Real-time Memory Report at c_bands before calling an iterative solver
            84 MiB given to the printing process from OS
             0 MiB allocation reported by mallinfo(arena+hblkhd)
        359859 MiB available memory on the node where the printing process lives
------------------
     ethr =  2.15E-12,  avg # of iterations =  1.0

     negative rho (up, down):  0.000E+00 1.003E-04

     total cpu time spent up to now is       16.2 secs

     total energy              =    -658.54078448 Ry
     estimated scf accuracy    <          1.2E-09 Ry

     total magnetization       =     4.25 Bohr mag/cell
     absolute magnetization    =     4.50 Bohr mag/cell

     iteration # 18     ecut=   100.00 Ry     beta= 0.40
     Davidson diagonalization with overlap

---- Real-time Memory Report at c_bands before calling an iterative solver
            85 MiB given to the printing process from OS
             0 MiB allocation reported by mallinfo(arena+hblkhd)
        359859 MiB available memory on the node where the printing process lives
------------------
     ethr =  2.15E-12,  avg # of iterations =  1.7

     negative rho (up, down):  0.000E+00 1.003E-04

     total cpu time spent up to now is       17.0 secs

     total energy              =    -658.54078448 Ry
     estimated scf accuracy    <          5.7E-10 Ry

     total magnetization       =     4.25 Bohr mag/cell
     absolute magnetization    =     4.50 Bohr mag/cell

     iteration # 19     ecut=   100.00 Ry     beta= 0.40
     Davidson diagonalization with overlap

---- Real-time Memory Report at c_bands before calling an iterative solver
            85 MiB given to the printing process from OS
             0 MiB allocation reported by mallinfo(arena+hblkhd)
        359858 MiB available memory on the node where the printing process lives
------------------
     ethr =  1.79E-12,  avg # of iterations =  1.5

     negative rho (up, down):  0.000E+00 1.003E-04
 
     Magnetic moment per site  (integrated on atomic sphere of radius R)
     atom   1 (R=0.357)  charge= 14.3877  magn=  2.1783
     atom   2 (R=0.357)  charge= 14.3879  magn=  2.1784

     total cpu time spent up to now is       17.8 secs

     End of self-consistent calculation

 ------ SPIN UP ------------


          k = 0.0000 0.0000 0.0000 (  2553 PWs)   bands (ev):

   -69.7344 -69.5958 -35.8269 -35.8269 -35.8269 -35.5274 -35.5274 -35.5274
     9.8152  13.4618  13.4618  16.0666  16.0666  16.0666  17.2672  17.2672
    18.5213  18.5213  18.5213  28.2171

     occupation numbers 
     1.0000   1.0000   1.0000   1.0000   1.0000   1.0000   1.0000   1.0000
     1.0000   1.0000   1.0000   1.0000   1.0000   1.0000   1.0000   1.0000
     0.0000   0.0000   0.0000   0.0000

          k = 0.0000 0.0000 0.1000 (  2569 PWs)   bands (ev):

   -69.7305 -69.5987 -35.8258 -35.8191 -35.8191 -35.5411 -35.5343 -35.5343
    10.0235  13.5506  13.5530  16.0650  16.0650  16.1237  17.1729  17.3043
    18.3455  18.3455  18.4583  26.8816

     occupation numbers 
     1.0000   1.0000   1.0000   1.0000   1.0000   1.0000   1.0000   1.0000
     1.0000   1.0000   1.0000   1.0000   1.0000   1.0000   1.0000   1.0000
     0.9967   0.9967   0.0000   0.0000

          k = 0.0000 0.0000 0.2000 (  2593 PWs)   bands (ev):

   -69.7194 -69.6072 -35.8209 -35.7968 -35.7968 -35.5790 -35.5544 -35.5544
    10.6288  13.7873  13.8102  16.0731  16.0731  16.2903  16.8983  17.4104
    17.9076  17.9076  18.2763  24.4197

     occupation numbers 
     1.0000   1.0000   1.0000   1.0000   1.0000   1.0000   1.0000   1.0000
     1.0000   1.0000   1.0000   1.0000   1.0000   1.0000   1.0000   1.0000
     1.0000   1.0000   1.0000   0.0000

          k = 0.0000 0.0000 0.3000 (  2593 PWs)   bands (ev):

   -69.7025 -69.6210 -35.8081 -35.7623 -35.7623 -35.6326 -35.5862 -35.5862
    11.5635  14.0403  14.2194  16.1245  16.1245  16.4691  16.5522  17.3788
    17.3788  17.5854  17.9952  21.9708

     occupation numbers 
     1.0000   1.0000   1.0000   1.0000   1.0000   1.0000   1.0000   1.0000
     1.0000   1.0000   1.0000   1.0000   1.0000   1.0000   1.0000   1.0000
     1.0000   1.0000   1.0000   0.0000

          k = 0.0000 0.0000 0.4000 (  2593 PWs)   bands (ev):

   -69.6819 -69.6390 -35.7829 -35.7195 -35.7195 -35.6907 -35.6269 -35.6269
    12.6719  14.0848  14.7429  15.9282  16.2594  16.2594  16.8866  16.8905
    16.8905  17.6453  17.8918  19.9261

     occupation numbers 
     1.0000   1.0000   1.0000   1.0000   1.0000   1.0000   1.0000   1.0000
     1.0000   1.0000   1.0000   1.0000   1.0000   1.0000   1.0000   1.0000
     1.0000   1.0000   1.0000   0.0000

          k = 0.0000 0.0000-0.5000 (  2594 PWs)   bands (ev):

   -69.6600 -69.6599 -35.7431 -35.7431 -35.6728 -35.6728 -35.6727 -35.6727
    13.6350  13.6350  15.3321  15.3321  16.5106  16.5106  16.5106  16.5106
    17.2630  17.2630  18.5632  18.5633

     occupation numbers 
     1.0000   1.0000   1.0000   1.0000   1.0000   1.0000   1.0000   1.0000
     1.0000   1.0000   1.0000   1.0000   1.0000   1.0000   1.0000   1.0000
     1.0000   1.0000   0.0000   0.0000

          k = 0.0000 0.1000 0.1000 (  2578 PWs)   bands (ev):

   -69.7268 -69.6014 -35.8381 -35.8118 -35.7987 -35.5678 -35.5408 -35.5273
    10.2280  13.6321  13.6481  15.9542  16.0505  16.2888  17.1660  17.2767
    18.0447  18.1708  18.5472  26.9464

     occupation numbers 
     1.0000   1.0000   1.0000   1.0000   1.0000   1.0000   1.0000   1.0000
     1.0000   1.0000   1.0000   1.0000   1.0000   1.0000   1.0000   1.0000
     1.0000   1.0000   0.0000   0.0000

          k = 0.0000 0.1000 0.2000 (  2583 PWs)   bands (ev):

   -69.7162 -69.6095 -35.8443 -35.7904 -35.7672 -35.6150 -35.5599 -35.5361
    10.8206  13.8542  13.9070  15.8756  16.0211  16.5378  16.9734  17.3679
    17.5511  17.7461  18.4810  24.6678

     occupation numbers 
     1.0000   1.0000   1.0000   1.0000   1.0000   1.0000   1.0000   1.0000
     1.0000   1.0000   1.0000   1.0000   1.0000   1.0000   1.0000   1.0000
     1.0000   1.0000   0.0000   0.0000

          k = 0.0000 0.1000 0.3000 (  2575 PWs)   bands (ev):

   -69.7000 -69.6224 -35.8390 -35.7575 -35.7283 -35.6728 -35.5900 -35.5602
    11.7284  14.1047  14.2877  15.8716  15.9730  16.6885  16.8460  17.0205
    17.2649  17.5471  18.2642  22.1976

     occupation numbers 
     1.0000   1.0000   1.0000   1.0000   1.0000   1.0000   1.0000   1.0000
     1.0000   1.0000   1.0000   1.0000   1.0000   1.0000   1.0000   1.0000
     1.0000   1.0000   1.0000   0.0000

          k = 0.0000 0.1000 0.4000 (  2591 PWs)   bands (ev):

   -69.6803 -69.6395 -35.8189 -35.7317 -35.7167 -35.6843 -35.6286 -35.5958
    12.7880  14.1355  14.7679  15.7499  15.9694  16.5493  16.5581  16.8872
    17.2014  17.8706  17.9482  20.0935

     occupation numbers 
     1.0000   1.0000   1.0000   1.0000   1.0000   1.0000   1.0000   1.0000
     1.0000   1.0000   1.0000   1.0000   1.0000   1.0000   1.0000   1.0000
     1.0000   1.0000   1.0000   0.0000

          k = 0.0000 0.1000-0.5000 (  2588 PWs)   bands (ev):

   -69.6594 -69.6594 -35.7825 -35.7825 -35.6723 -35.6722 -35.6387 -35.6387
    13.6953  13.6953  15.2899  15.2899  16.1927  16.1927  16.6642  16.6642
    17.5802  17.5802  18.6222  18.6222

     occupation numbers 
     1.0000   1.0000   1.0000   1.0000   1.0000   1.0000   1.0000   1.0000
     1.0000   1.0000   1.0000   1.0000   1.0000   1.0000   1.0000   1.0000
     1.0000   1.0000   0.0000   0.0000

          k = 0.0000 0.2000 0.2000 (  2582 PWs)   bands (ev):

   -69.7069 -69.6161 -35.8674 -35.7720 -35.7245 -35.6731 -35.5759 -35.5273
    11.3684  13.9915  14.2058  15.6679  15.9363  16.9013  17.0004  17.0749
    17.3102  17.3825  18.6154  24.6609

     occupation numbers 
     1.0000   1.0000   1.0000   1.0000   1.0000   1.0000   1.0000   1.0000
     1.0000   1.0000   1.0000   1.0000   1.0000   1.0000   1.0000   1.0000
     1.0000   1.0000   0.0000   0.0000

          k = 0.0000 0.2000 0.3000 (  2594 PWs)   bands (ev):

   -69.6929 -69.6269 -35.8775 -35.7437 -35.7368 -35.6792 -35.6012 -35.5356
    12.1757  14.1210  14.6167  15.5526  15.8839  16.4646  16.9966  17.0497
    17.2913  17.4448  18.5662  22.6379

     occupation numbers 
     1.0000   1.0000   1.0000   1.0000   1.0000   1.0000   1.0000   1.0000
     1.0000   1.0000   1.0000   1.0000   1.0000   1.0000   1.0000   1.0000
     1.0000   1.0000   0.0000   0.0000

          k = 0.0000 0.2000 0.4000 (  2606 PWs)   bands (ev):

   -69.6759 -69.6412 -35.8698 -35.7960 -35.7088 -35.6342 -35.6338 -35.5586
    13.0469  14.0792  15.0559  15.5615  15.7687  16.0222  16.9157  16.9612
    17.6850  17.8049  18.3636  20.4702

     occupation numbers 
     1.0000   1.0000   1.0000   1.0000   1.0000   1.0000   1.0000   1.0000
     1.0000   1.0000   1.0000   1.0000   1.0000   1.0000   1.0000   1.0000
     1.0000   1.0000   0.7982   0.0000

          k = 0.0000 0.2000-0.5000 (  2582 PWs)   bands (ev):

   -69.6581 -69.6581 -35.8422 -35.8422 -35.6709 -35.6708 -35.5927 -35.5927
    13.7271  13.7272  15.4673  15.4674  15.7160  15.7160  16.9453  16.9453
    18.0548  18.0548  18.7746  18.7747

     occupation numbers 
     1.0000   1.0000   1.0000   1.0000   1.0000   1.0000   1.0000   1.0000
     1.0000   1.0000   1.0000   1.0000   1.0000   1.0000   1.0000   1.0000
     1.0000   1.0000   0.0000   0.0000

          k = 0.0000 0.3000 0.3000 (  2598 PWs)   bands (ev):

   -69.6822 -69.6343 -35.9035 -35.8018 -35.7227 -35.6319 -35.6191 -35.5272
    12.7523  14.0341  15.1265  15.3290  15.9527  16.0635  16.9398  17.1958
    17.3694  17.7332  18.7003  22.3342

     occupation numbers 
     1.0000   1.0000   1.0000   1.0000   1.0000   1.0000   1.0000   1.0000
     1.0000   1.0000   1.0000   1.0000   1.0000   1.0000   1.0000   1.0000
     1.0000   1.0000   0.0000   0.0000

          k = 0.0000 0.3000 0.4000 (  2577 PWs)   bands (ev):

   -69.6695 -69.6443 -35.9106 -35.8572 -35.6968 -35.6423 -35.5902 -35.5350
    13.2502  13.8531  15.2427  15.5578  15.6648  16.3090  17.0122  17.2578
    17.6878  18.1316  18.6534  20.7018

     occupation numbers 
     1.0000   1.0000   1.0000   1.0000   1.0000   1.0000   1.0000   1.0000
     1.0000   1.0000   1.0000   1.0000   1.0000   1.0000   1.0000   1.0000
     1.0000   1.0000   0.0000   0.0000

          k = 0.0000 0.3000-0.5000 (  2586 PWs)   bands (ev):

   -69.6564 -69.6564 -35.8951 -35.8950 -35.6691 -35.6690 -35.5569 -35.5569
    13.5983  13.5983  15.3167  15.3167  16.1087  16.1088  17.1749  17.1749
    18.4511  18.4511  18.9272  18.9273

     occupation numbers 
     1.0000   1.0000   1.0000   1.0000   1.0000   1.0000   1.0000   1.0000
     1.0000   1.0000   1.0000   1.0000   1.0000   1.0000   1.0000   1.0000
     0.0000   0.0000   0.0000   0.0000

          k = 0.0000 0.4000 0.4000 (  2582 PWs)   bands (ev):

   -69.6622 -69.6489 -35.9327 -35.9047 -35.6825 -35.6539 -35.5562 -35.5272
    13.3484  13.6175  15.0658  15.2251  16.3709  17.1556  17.1589  17.4327
    17.6550  18.4852  18.7697  20.2052

     occupation numbers 
     1.0000   1.0000   1.0000   1.0000   1.0000   1.0000   1.0000   1.0000
     1.0000   1.0000   1.0000   1.0000   1.0000   1.0000   1.0000   1.0000
     1.0000   0.0000   0.0000   0.0000

          k = 0.0000 0.4000-0.5000 (  2592 PWs)   bands (ev):

   -69.6550 -69.6550 -35.9310 -35.9310 -35.6677 -35.6676 -35.5347 -35.5347
    13.4480  13.4480  15.0574  15.0574  16.9622  16.9623  17.3116  17.3116
    18.7078  18.7078  18.9272  18.9272

     occupation numbers 
     1.0000   1.0000   1.0000   1.0000   1.0000   1.0000   1.0000   1.0000
     1.0000   1.0000   1.0000   1.0000   1.0000   1.0000   1.0000   1.0000
     0.0000   0.0000   0.0000   0.0000

          k = 0.0000-0.5000-0.5000 (  2544 PWs)   bands (ev):

   -69.6545 -69.6545 -35.9438 -35.9438 -35.6672 -35.6671 -35.5272 -35.5272
    13.3880  13.3880  14.9678  14.9678  17.3447  17.3448  17.4607  17.4608
    18.7963  18.7963  18.8146  18.8146

     occupation numbers 
     1.0000   1.0000   1.0000   1.0000   1.0000   1.0000   1.0000   1.0000
     1.0000   1.0000   1.0000   1.0000   1.0000   1.0000   1.0000   1.0000
     0.0000   0.0000   0.0000   0.0000

          k = 0.1000 0.1000 0.1000 (  2587 PWs)   bands (ev):

   -69.7233 -69.6040 -35.8301 -35.8301 -35.7738 -35.5922 -35.5345 -35.5345
    10.4294  13.7272  13.7272  15.9339  15.9339  16.4584  17.2115  17.2115
    17.6554  18.3719  18.3719  27.2995

     occupation numbers 
     1.0000   1.0000   1.0000   1.0000   1.0000   1.0000   1.0000   1.0000
     1.0000   1.0000   1.0000   1.0000   1.0000   1.0000   1.0000   1.0000
     1.0000   0.4884   0.4884   0.0000

          k = 0.1000 0.1000 0.2000 (  2589 PWs)   bands (ev):

   -69.7131 -69.6116 -35.8448 -35.8069 -35.7384 -35.6404 -35.5555 -35.5372
    11.0113  13.9565  13.9689  15.8159  15.8778  16.7535  17.0306  17.1196
    17.3329  17.9424  18.4122  24.9304

     occupation numbers 
     1.0000   1.0000   1.0000   1.0000   1.0000   1.0000   1.0000   1.0000
     1.0000   1.0000   1.0000   1.0000   1.0000   1.0000   1.0000   1.0000
     1.0000   1.0000   0.0000   0.0000

          k = 0.1000 0.1000 0.3000 (  2583 PWs)   bands (ev):

   -69.6976 -69.6238 -35.8473 -35.7712 -35.6990 -35.6980 -35.5885 -35.5537
    11.8958  14.2164  14.3118  15.7797  15.7999  16.6225  16.7939  17.1036
    17.4394  17.5187  18.2721  22.4456

     occupation numbers 
     1.0000   1.0000   1.0000   1.0000   1.0000   1.0000   1.0000   1.0000
     1.0000   1.0000   1.0000   1.0000   1.0000   1.0000   1.0000   1.0000
     1.0000   1.0000   1.0000   0.0000

          k = 0.1000 0.1000 0.4000 (  2595 PWs)   bands (ev):

   -69.6788 -69.6400 -35.8337 -35.7550 -35.7268 -35.6578 -35.6307 -35.5817
    12.9136  14.2234  14.7501  15.5738  15.9119  16.2876  16.6428  17.0019
    17.4344  17.9025  18.0122  20.3138

     occupation numbers 
     1.0000   1.0000   1.0000   1.0000   1.0000   1.0000   1.0000   1.0000
     1.0000   1.0000   1.0000   1.0000   1.0000   1.0000   1.0000   1.0000
     1.0000   1.0000   1.0000   0.0000

          k = 0.1000 0.1000-0.5000 (  2594 PWs)   bands (ev):

   -69.6589 -69.6589 -35.8023 -35.8023 -35.6784 -35.6783 -35.6175 -35.6175
    13.7774  13.7774  15.2042  15.2043  16.0937  16.0937  16.7154  16.7154
    17.7120  17.7120  18.7743  18.7743

     occupation numbers 
     1.0000   1.0000   1.0000   1.0000   1.0000   1.0000   1.0000   1.0000
     1.0000   1.0000   1.0000   1.0000   1.0000   1.0000   1.0000   1.0000
     1.0000   1.0000   0.0000   0.0000

          k = 0.1000 0.2000 0.2000 (  2600 PWs)   bands (ev):

   -69.7042 -69.6178 -35.8587 -35.7980 -35.6980 -35.6920 -35.5686 -35.5352
    11.5546  14.1052  14.2557  15.6273  15.7671  16.5661  17.1068  17.1469
    17.2896  17.7177  18.4342  25.0104

     occupation numbers 
     1.0000   1.0000   1.0000   1.0000   1.0000   1.0000   1.0000   1.0000
     1.0000   1.0000   1.0000   1.0000   1.0000   1.0000   1.0000   1.0000
     1.0000   1.0000   0.0000   0.0000

          k = 0.1000 0.2000 0.3000 (  2594 PWs)   bands (ev):

   -69.6907 -69.6280 -35.8711 -35.7666 -35.7504 -35.6573 -35.5975 -35.5411
    12.3505  14.2551  14.6246  15.5008  15.7040  16.1159  17.0234  17.3282
    17.4161  17.5919  18.3966  22.9529

     occupation numbers 
     1.0000   1.0000   1.0000   1.0000   1.0000   1.0000   1.0000   1.0000
     1.0000   1.0000   1.0000   1.0000   1.0000   1.0000   1.0000   1.0000
     1.0000   1.0000   0.0047   0.0000

          k = 0.1000 0.2000 0.4000 (  2593 PWs)   bands (ev):

   -69.6746 -69.6416 -35.8681 -35.8046 -35.7252 -35.6359 -35.6189 -35.5584
    13.1980  14.2173  14.9653  15.4113  15.7289  15.8896  16.9471  17.0562
    17.6111  18.1776  18.2045  20.8031

     occupation numbers 
     1.0000   1.0000   1.0000   1.0000   1.0000   1.0000   1.0000   1.0000
     1.0000   1.0000   1.0000   1.0000   1.0000   1.0000   1.0000   1.0000
     1.0000   1.0000   1.0000   0.0000

          k = 0.1000 0.2000-0.5000 (  2572 PWs)   bands (ev):

   -69.6576 -69.6575 -35.8456 -35.8456 -35.6800 -35.6800 -35.5851 -35.5851
    13.8565  13.8565  15.2410  15.2410  15.8051  15.8051  16.9593  16.9594
    17.9012  17.9012  19.1639  19.1639

     occupation numbers 
     1.0000   1.0000   1.0000   1.0000   1.0000   1.0000   1.0000   1.0000
     1.0000   1.0000   1.0000   1.0000   1.0000   1.0000   1.0000   1.0000
     1.0000   1.0000   0.0000   0.0000

          k = 0.1000 0.3000 0.3000 (  2578 PWs)   bands (ev):

   -69.6805 -69.6349 -35.8939 -35.8075 -35.7436 -35.6181 -35.6172 -35.5360
    12.9323  14.1695  15.1256  15.2910  15.7075  15.8166  17.1463  17.1958
    17.3707  18.0849  18.4763  22.7594

     occupation numbers 
     1.0000   1.0000   1.0000   1.0000   1.0000   1.0000   1.0000   1.0000
     1.0000   1.0000   1.0000   1.0000   1.0000   1.0000   1.0000   1.0000
     1.0000   1.0000   0.0000   0.0000

          k = 0.1000 0.3000 0.4000 (  2583 PWs)   bands (ev):

   -69.6684 -69.6444 -35.9021 -35.8569 -35.7119 -35.6447 -35.5846 -35.5421
    13.4170  13.9884  15.1972  15.3693  15.6947  16.0907  17.1114  17.2181
    17.5465  18.3691  18.6642  21.1899

     occupation numbers 
     1.0000   1.0000   1.0000   1.0000   1.0000   1.0000   1.0000   1.0000
     1.0000   1.0000   1.0000   1.0000   1.0000   1.0000   1.0000   1.0000
     1.0000   0.6043   0.0000   0.0000

          k = 0.1000 0.3000-0.5000 (  2588 PWs)   bands (ev):

   -69.6559 -69.6559 -35.8899 -35.8899 -35.6775 -35.6774 -35.5587 -35.5587
    13.7429  13.7429  15.2288  15.2288  16.0484  16.0484  17.1880  17.1880
    18.0140  18.0140  19.6182  19.6183

     occupation numbers 
     1.0000   1.0000   1.0000   1.0000   1.0000   1.0000   1.0000   1.0000
     1.0000   1.0000   1.0000   1.0000   1.0000   1.0000   1.0000   1.0000
     1.0000   1.0000   0.0000   0.0000

          k = 0.1000 0.4000 0.4000 (  2583 PWs)   bands (ev):

   -69.6613 -69.6487 -35.9223 -35.8987 -35.6935 -35.6577 -35.5587 -35.5367
    13.5063  13.7529  15.0403  15.1675  16.2902  16.8635  17.2145  17.3554
    17.4372  18.3388  19.2124  20.9082

     occupation numbers 
     1.0000   1.0000   1.0000   1.0000   1.0000   1.0000   1.0000   1.0000
     1.0000   1.0000   1.0000   1.0000   1.0000   1.0000   1.0000   1.0000
     1.0000   0.9997   0.0000   0.0000

          k = 0.1000 0.4000-0.5000 (  2584 PWs)   bands (ev):

   -69.6545 -69.6545 -35.9217 -35.9217 -35.6745 -35.6744 -35.5424 -35.5424
    13.5918  13.5919  15.0275  15.0275  16.8369  16.8369  17.3233  17.3233
    17.9551  17.9551  19.9820  19.9820

     occupation numbers 
     1.0000   1.0000   1.0000   1.0000   1.0000   1.0000   1.0000   1.0000
     1.0000   1.0000   1.0000   1.0000   1.0000   1.0000   1.0000   1.0000
     1.0000   1.0000   0.0000   0.0000

          k = 0.1000-0.5000-0.5000 (  2572 PWs)   bands (ev):

   -69.6540 -69.6540 -35.9332 -35.9332 -35.6733 -35.6732 -35.5369 -35.5369
    13.5310  13.5310  14.9483  14.9483  17.3626  17.3627  17.4642  17.4643
    17.6684  17.6684  20.1278  20.1278

     occupation numbers 
     1.0000   1.0000   1.0000   1.0000   1.0000   1.0000   1.0000   1.0000
     1.0000   1.0000   1.0000   1.0000   1.0000   1.0000   1.0000   1.0000
     1.0000   1.0000   0.0000   0.0000

          k = 0.2000 0.2000 0.2000 (  2590 PWs)   bands (ev):

   -69.6964 -69.6229 -35.8334 -35.8334 -35.7346 -35.6594 -35.5582 -35.5582
    12.0803  14.3960  14.3960  15.5200  15.5200  15.9995  17.2295  17.2295
    17.6019  18.0165  18.0165  25.9319

     occupation numbers 
     1.0000   1.0000   1.0000   1.0000   1.0000   1.0000   1.0000   1.0000
     1.0000   1.0000   1.0000   1.0000   1.0000   1.0000   1.0000   1.0000
     1.0000   1.0000   1.0000   0.0000

          k = 0.2000 0.2000 0.3000 (  2587 PWs)   bands (ev):

   -69.6847 -69.6313 -35.8591 -35.7945 -35.7837 -35.6242 -35.5945 -35.5544
    12.8282  14.5996  14.6488  15.3762  15.4212  15.6213  17.1432  17.3852
    17.5737  18.1085  18.1395  23.6669

     occupation numbers 
     1.0000   1.0000   1.0000   1.0000   1.0000   1.0000   1.0000   1.0000
     1.0000   1.0000   1.0000   1.0000   1.0000   1.0000   1.0000   1.0000
     1.0000   1.0000   1.0000   0.0000

          k = 0.2000 0.2000 0.4000 (  2591 PWs)   bands (ev):

   -69.6707 -69.6427 -35.8682 -35.8276 -35.7459 -35.6408 -35.5950 -35.5594
    13.5683  14.4975  14.8260  15.2163  15.5520  15.6698  17.0710  17.2438
    17.5575  18.0024  18.8170  21.5171

     occupation numbers 
     1.0000   1.0000   1.0000   1.0000   1.0000   1.0000   1.0000   1.0000
     1.0000   1.0000   1.0000   1.0000   1.0000   1.0000   1.0000   1.0000
     1.0000   1.0000   0.0000   0.0000

          k = 0.2000 0.2000-0.5000 (  2580 PWs)   bands (ev):

   -69.6562 -69.6562 -35.8575 -35.8575 -35.6930 -35.6929 -35.5732 -35.5731
    14.1094  14.1095  15.0363  15.0364  15.7333  15.7334  17.0821  17.0822
    17.7744  17.7744  19.8717  19.8717

     occupation numbers 
     1.0000   1.0000   1.0000   1.0000   1.0000   1.0000   1.0000   1.0000
     1.0000   1.0000   1.0000   1.0000   1.0000   1.0000   1.0000   1.0000
     1.0000   1.0000   0.0000   0.0000

          k = 0.2000 0.3000 0.3000 (  2583 PWs)   bands (ev):

   -69.6758 -69.6370 -35.8661 -35.8231 -35.7839 -35.6113 -35.5967 -35.5616
    13.4332  14.5377  15.1153  15.1961  15.2766  15.3822  17.2596  17.3698
    17.4631  18.0385  18.7710  23.8025

     occupation numbers 
     1.0000   1.0000   1.0000   1.0000   1.0000   1.0000   1.0000   1.0000
     1.0000   1.0000   1.0000   1.0000   1.0000   1.0000   1.0000   1.0000
     1.0000   1.0000   0.0000   0.0000

          k = 0.2000 0.3000 0.4000 (  2579 PWs)   bands (ev):

   -69.6653 -69.6449 -35.8790 -35.8570 -35.7439 -35.6492 -35.5775 -35.5623
    13.8722  14.3365  15.0942  15.0949  15.6119  15.6289  17.2523  17.3082
    17.4913  17.9446  19.5268  22.2074

     occupation numbers 
     1.0000   1.0000   1.0000   1.0000   1.0000   1.0000   1.0000   1.0000
     1.0000   1.0000   1.0000   1.0000   1.0000   1.0000   1.0000   1.0000
     1.0000   1.0000   0.0000   0.0000

          k = 0.2000 0.3000-0.5000 (  2582 PWs)   bands (ev):

   -69.6546 -69.6545 -35.8770 -35.8770 -35.6961 -35.6960 -35.5664 -35.5664
    14.1156  14.1156  15.0604  15.0604  15.8220  15.8220  17.2551  17.2552
    17.7088  17.7089  20.6228  20.6228

     occupation numbers 
     1.0000   1.0000   1.0000   1.0000   1.0000   1.0000   1.0000   1.0000
     1.0000   1.0000   1.0000   1.0000   1.0000   1.0000   1.0000   1.0000
     1.0000   1.0000   0.0000   0.0000

          k = 0.2000 0.4000 0.4000 (  2573 PWs)   bands (ev):

   -69.6591 -69.6483 -35.8924 -35.8824 -35.7214 -35.6660 -35.5681 -35.5643
    13.9433  14.1109  14.9810  15.0521  16.0366  16.1407  17.3392  17.3617
    17.4479  17.8465  20.3186  22.2248

     occupation numbers 
     1.0000   1.0000   1.0000   1.0000   1.0000   1.0000   1.0000   1.0000
     1.0000   1.0000   1.0000   1.0000   1.0000   1.0000   1.0000   1.0000
     1.0000   1.0000   0.0000   0.0000

          k = 0.2000 0.4000-0.5000 (  2568 PWs)   bands (ev):

   -69.6532 -69.6532 -35.8952 -35.8952 -35.6920 -35.6919 -35.5651 -35.5651
    13.9821  13.9821  14.9644  14.9644  16.3672  16.3672  17.3706  17.3707
    17.5995  17.5996  21.2963  21.2963

     occupation numbers 
     1.0000   1.0000   1.0000   1.0000   1.0000   1.0000   1.0000   1.0000
     1.0000   1.0000   1.0000   1.0000   1.0000   1.0000   1.0000   1.0000
     1.0000   1.0000   0.0000   0.0000

          k = 0.2000-0.5000-0.5000 (  2556 PWs)   bands (ev):

   -69.6527 -69.6527 -35.9025 -35.9025 -35.6893 -35.6892 -35.5654 -35.5654
    13.9231  13.9231  14.9063  14.9063  16.7281  16.7281  17.4078  17.4078
    17.4732  17.4733  21.6221  21.6221

     occupation numbers 
     1.0000   1.0000   1.0000   1.0000   1.0000   1.0000   1.0000   1.0000
     1.0000   1.0000   1.0000   1.0000   1.0000   1.0000   1.0000   1.0000
     1.0000   1.0000   0.0000   0.0000

          k = 0.3000 0.3000 0.3000 (  2587 PWs)   bands (ev):

   -69.6688 -69.6406 -35.8430 -35.8231 -35.8231 -35.6018 -35.6018 -35.5825
    14.0876  14.8345  15.0825  15.0825  15.0890  15.0890  17.3603  17.3603
    17.6645  17.6645  19.5537  25.1832

     occupation numbers 
     1.0000   1.0000   1.0000   1.0000   1.0000   1.0000   1.0000   1.0000
     1.0000   1.0000   1.0000   1.0000   1.0000   1.0000   1.0000   1.0000
     1.0000   1.0000   0.0000   0.0000

          k = 0.3000 0.3000 0.4000 (  2572 PWs)   bands (ev):

   -69.6608 -69.6460 -35.8590 -35.8512 -35.7695 -35.6532 -35.5908 -35.5780
    14.4083  14.5792  15.0148  15.0324  15.2868  15.4938  17.3478  17.4452
    17.4657  17.6915  20.4628  23.3230

     occupation numbers 
     1.0000   1.0000   1.0000   1.0000   1.0000   1.0000   1.0000   1.0000
     1.0000   1.0000   1.0000   1.0000   1.0000   1.0000   1.0000   1.0000
     1.0000   1.0000   0.0000   0.0000

          k = 0.3000 0.3000-0.5000 (  2578 PWs)   bands (ev):

   -69.6529 -69.6529 -35.8632 -35.8632 -35.7110 -35.7109 -35.5817 -35.5817
    14.4458  14.4458  14.9983  14.9983  15.6088  15.6089  17.3594  17.3594
    17.5861  17.5862  21.6763  21.6763

     occupation numbers 
     1.0000   1.0000   1.0000   1.0000   1.0000   1.0000   1.0000   1.0000
     1.0000   1.0000   1.0000   1.0000   1.0000   1.0000   1.0000   1.0000
     1.0000   1.0000   0.0000   0.0000

          k = 0.3000 0.4000 0.4000 (  2576 PWs)   bands (ev):

   -69.6560 -69.6482 -35.8604 -35.8463 -35.7560 -35.6707 -35.6078 -35.5870
    14.4973  14.5382  14.9320  15.0493  15.5306  15.6650  17.4199  17.4546
    17.4592  17.5992  21.4873  23.7821

     occupation numbers 
     1.0000   1.0000   1.0000   1.0000   1.0000   1.0000   1.0000   1.0000
     1.0000   1.0000   1.0000   1.0000   1.0000   1.0000   1.0000   1.0000
     1.0000   1.0000   0.0000   0.0000

          k = 0.3000 0.4000-0.5000 (  2568 PWs)   bands (ev):

   -69.6516 -69.6515 -35.8562 -35.8562 -35.7126 -35.7125 -35.6004 -35.6004
    14.4717  14.4717  14.9473  14.9473  15.8009  15.8010  17.4348  17.4349
    17.5184  17.5184  22.6922  22.6922

     occupation numbers 
     1.0000   1.0000   1.0000   1.0000   1.0000   1.0000   1.0000   1.0000
     1.0000   1.0000   1.0000   1.0000   1.0000   1.0000   1.0000   1.0000
     1.0000   1.0000   0.0000   0.0000

          k = 0.3000-0.5000-0.5000 (  2556 PWs)   bands (ev):

   -69.6511 -69.6510 -35.8551 -35.8551 -35.7091 -35.7090 -35.6101 -35.6101
    14.4501  14.4501  14.8842  14.8842  15.9914  15.9914  17.4577  17.4578
    17.4845  17.4846  23.2745  23.2745

     occupation numbers 
     1.0000   1.0000   1.0000   1.0000   1.0000   1.0000   1.0000   1.0000
     1.0000   1.0000   1.0000   1.0000   1.0000   1.0000   1.0000   1.0000
     1.0000   1.0000   0.0000   0.0000

          k = 0.4000 0.4000 0.4000 (  2551 PWs)   bands (ev):

   -69.6528 -69.6487 -35.8379 -35.7886 -35.7886 -35.6633 -35.6633 -35.6136
    14.6422  14.9456  14.9456  15.2455  15.3120  15.3120  17.4677  17.4677
    17.5068  17.5068  22.7183  25.5141

     occupation numbers 
     1.0000   1.0000   1.0000   1.0000   1.0000   1.0000   1.0000   1.0000
     1.0000   1.0000   1.0000   1.0000   1.0000   1.0000   1.0000   1.0000
     1.0000   1.0000   0.0000   0.0000

          k = 0.4000 0.4000-0.5000 (  2540 PWs)   bands (ev):

   -69.6502 -69.6502 -35.8153 -35.8153 -35.7256 -35.7255 -35.6419 -35.6419
    14.7617  14.7617  15.0655  15.0655  15.4395  15.4395  17.4776  17.4777
    17.4983  17.4984  24.0932  24.0932

     occupation numbers 
     1.0000   1.0000   1.0000   1.0000   1.0000   1.0000   1.0000   1.0000
     1.0000   1.0000   1.0000   1.0000   1.0000   1.0000   1.0000   1.0000
     1.0000   1.0000   0.0000   0.0000

          k = 0.4000-0.5000-0.5000 (  2544 PWs)   bands (ev):

   -69.6497 -69.6497 -35.7959 -35.7959 -35.7250 -35.7250 -35.6671 -35.6671
    14.9208  14.9208  14.9363  14.9363  15.4573  15.4573  17.4889  17.4890
    17.4936  17.4937  25.0715  25.0715

     occupation numbers 
     1.0000   1.0000   1.0000   1.0000   1.0000   1.0000   1.0000   1.0000
     1.0000   1.0000   1.0000   1.0000   1.0000   1.0000   1.0000   1.0000
     1.0000   1.0000   0.0000   0.0000

          k =-0.5000-0.5000-0.5000 (  2512 PWs)   bands (ev):

   -69.6492 -69.6492 -35.7311 -35.7311 -35.7311 -35.7310 -35.7310 -35.7310
    15.1140  15.1140  15.1140  15.1141  15.1141  15.1141  17.4970  17.4970
    17.4971  17.4971  26.9993  26.9993

     occupation numbers 
     1.0000   1.0000   1.0000   1.0000   1.0000   1.0000   1.0000   1.0000
     1.0000   1.0000   1.0000   1.0000   1.0000   1.0000   1.0000   1.0000
     1.0000   1.0000   0.0000   0.0000

 ------ SPIN DOWN ----------


          k = 0.0000 0.0000 0.0000 (  2553 PWs)   bands (ev):

   -67.1583 -67.0079 -33.3234 -33.3234 -33.3234 -32.9941 -32.9941 -32.9941
     9.9507  15.2623  15.2623  17.9027  17.9027  17.9027  20.0184  20.0184
    20.6347  20.6347  20.6347  28.4652

     occupation numbers 
     1.0000   1.0000   1.0000   1.0000   1.0000   1.0000   1.0000   1.0000
     1.0000   1.0000   1.0000   1.0000   1.0000   1.0000   0.0000   0.0000
     0.0000   0.0000   0.0000   0.0000

          k = 0.0000 0.0000 0.1000 (  2569 PWs)   bands (ev):

   -67.1541 -67.0110 -33.3224 -33.3148 -33.3148 -33.0095 -33.0017 -33.0017
    10.1603  15.3341  15.3679  17.8935  17.8935  17.9656  19.8948  20.0650
    20.4049  20.4049  20.5639  27.3464

     occupation numbers 
     1.0000   1.0000   1.0000   1.0000   1.0000   1.0000   1.0000   1.0000
     1.0000   1.0000   1.0000   1.0000   1.0000   1.0000   0.0000   0.0000
     0.0000   0.0000   0.0000   0.0000

          k = 0.0000 0.0000 0.2000 (  2593 PWs)   bands (ev):

   -67.1420 -67.0203 -33.3178 -33.2902 -33.2902 -33.0519 -33.0238 -33.0238
    10.7729  15.4870  15.6777  17.8823  17.8823  18.1492  19.5362  19.8589
    19.8589  20.1916  20.3593  25.2043

     occupation numbers 
     1.0000   1.0000   1.0000   1.0000   1.0000   1.0000   1.0000   1.0000
     1.0000   1.0000   1.0000   1.0000   1.0000   1.0000   0.0000   0.0000
     0.0000   0.0000   0.0000   0.0000

          k = 0.0000 0.0000 0.3000 (  2593 PWs)   bands (ev):

   -67.1236 -67.0351 -33.3045 -33.2522 -33.2522 -33.1118 -33.0586 -33.0586
    11.7359  15.5227  16.1703  17.9111  17.9111  18.4384  18.9802  19.2363
    19.2363  20.0441  20.3680  23.1610

     occupation numbers 
     1.0000   1.0000   1.0000   1.0000   1.0000   1.0000   1.0000   1.0000
     1.0000   1.0000   1.0000   1.0000   1.0000   0.0000   0.0000   0.0000
     0.0000   0.0000   0.0000   0.0000

          k = 0.0000 0.0000 0.4000 (  2593 PWs)   bands (ev):

   -67.1012 -67.0547 -33.2775 -33.2051 -33.2051 -33.1763 -33.1033 -33.1033
    12.9429  15.1360  16.8085  18.0306  18.0306  18.2883  18.6891  18.6891
    18.8086  19.6527  20.5831  21.6973

     occupation numbers 
     1.0000   1.0000   1.0000   1.0000   1.0000   1.0000   1.0000   1.0000
     1.0000   1.0000   1.0000   1.0000   1.0000   1.0000   0.0000   0.0000
     0.0000   0.0000   0.0000   0.0000

          k = 0.0000 0.0000-0.5000 (  2594 PWs)   bands (ev):

   -67.0774 -67.0774 -33.2341 -33.2341 -33.1537 -33.1537 -33.1537 -33.1537
    14.1891  14.1891  17.5378  17.5378  18.2830  18.2830  18.2830  18.2830
    19.2266  19.2266  20.9310  20.9310

     occupation numbers 
     1.0000   1.0000   1.0000   1.0000   1.0000   1.0000   1.0000   1.0000
     1.0000   1.0000   1.0000   1.0000   1.0000   1.0000   1.0000   1.0000
[...]
    12.0886  15.7196  16.2057  17.5385  17.5872  18.3968  19.0172  19.2865
    19.3601  20.2873  20.3505  23.6449

     occupation numbers 
     1.0000   1.0000   1.0000   1.0000   1.0000   1.0000   1.0000   1.0000
     1.0000   1.0000   1.0000   1.0000   1.0000   0.0045   0.0000   0.0000
     0.0000   0.0000   0.0000   0.0000

          k = 0.1000 0.1000 0.4000 (  2595 PWs)   bands (ev):

   -67.0978 -67.0557 -33.3330 -33.2467 -33.2134 -33.1376 -33.1076 -33.0540
    13.2335  15.3084  16.7026  17.4554  17.6139  18.0571  18.9039  18.9269
    19.4266  20.0941  20.5347  21.9928

     occupation numbers 
     1.0000   1.0000   1.0000   1.0000   1.0000   1.0000   1.0000   1.0000
     1.0000   1.0000   1.0000   1.0000   1.0000   1.0000   0.0000   0.0000
     0.0000   0.0000   0.0000   0.0000

          k = 0.1000 0.1000-0.5000 (  2594 PWs)   bands (ev):

   -67.0762 -67.0762 -33.2988 -33.2988 -33.1600 -33.1600 -33.0934 -33.0934
    14.4008  14.4008  17.1673  17.1673  17.8094  17.8094  18.7455  18.7455
    19.7976  19.7976  20.9988  20.9989

     occupation numbers 
     1.0000   1.0000   1.0000   1.0000   1.0000   1.0000   1.0000   1.0000
     1.0000   1.0000   1.0000   1.0000   1.0000   1.0000   0.0000   0.0000
     0.0000   0.0000   0.0000   0.0000

          k = 0.1000 0.2000 0.2000 (  2600 PWs)   bands (ev):

   -67.1254 -67.0317 -33.3595 -33.2920 -33.1817 -33.1767 -33.0395 -33.0028
    11.7258  15.8821  15.9912  17.3778  17.5307  18.2997  19.0497  19.6917
    19.7443  20.0310  20.5275  25.9230

     occupation numbers 
     1.0000   1.0000   1.0000   1.0000   1.0000   1.0000   1.0000   1.0000
     1.0000   1.0000   1.0000   1.0000   1.0000   1.0000   0.0000   0.0000
     0.0000   0.0000   0.0000   0.0000

          k = 0.1000 0.2000 0.3000 (  2594 PWs)   bands (ev):

   -67.1108 -67.0427 -33.3738 -33.2573 -33.2415 -33.1370 -33.0711 -33.0095
    12.5889  15.8581  16.3487  17.2238  17.4114  17.8362  19.3246  19.4967
    19.5664  20.1932  20.5028  24.1275

     occupation numbers 
     1.0000   1.0000   1.0000   1.0000   1.0000   1.0000   1.0000   1.0000
     1.0000   1.0000   1.0000   1.0000   1.0000   1.0000   0.0000   0.0000
     0.0000   0.0000   0.0000   0.0000

          k = 0.1000 0.2000 0.4000 (  2593 PWs)   bands (ev):

   -67.0932 -67.0574 -33.3710 -33.3014 -33.2117 -33.1133 -33.0949 -33.0284
    13.6244  15.4333  16.7192  17.1508  17.3571  17.6021  19.1456  19.3081
    19.9274  20.3464  20.4921  22.3683

     occupation numbers 
     1.0000   1.0000   1.0000   1.0000   1.0000   1.0000   1.0000   1.0000
     1.0000   1.0000   1.0000   1.0000   1.0000   1.0000   0.0000   0.0000
     0.0000   0.0000   0.0000   0.0000

          k = 0.1000 0.2000-0.5000 (  2572 PWs)   bands (ev):

   -67.0747 -67.0747 -33.3466 -33.3466 -33.1619 -33.1618 -33.0578 -33.0578
    14.6390  14.6390  17.0065  17.0065  17.4427  17.4427  19.1569  19.1569
    20.1636  20.1636  21.1608  21.1608

     occupation numbers 
     1.0000   1.0000   1.0000   1.0000   1.0000   1.0000   1.0000   1.0000
     1.0000   1.0000   1.0000   1.0000   1.0000   1.0000   0.0000   0.0000
     0.0000   0.0000   0.0000   0.0000

          k = 0.1000 0.3000 0.3000 (  2578 PWs)   bands (ev):

   -67.0997 -67.0502 -33.3993 -33.3047 -33.2319 -33.0940 -33.0927 -33.0039
    13.3168  15.6952  16.7623  16.9754  17.3374  17.4001  19.2730  19.7391
    20.0268  20.1430  20.6131  23.9020

     occupation numbers 
     1.0000   1.0000   1.0000   1.0000   1.0000   1.0000   1.0000   1.0000
     1.0000   1.0000   1.0000   1.0000   1.0000   1.0000   0.0000   0.0000
     0.0000   0.0000   0.0000   0.0000

          k = 0.1000 0.3000 0.4000 (  2583 PWs)   bands (ev):

   -67.0864 -67.0604 -33.4088 -33.3593 -33.1969 -33.1229 -33.0573 -33.0106
    14.1055  15.3135  16.8600  17.0159  17.2820  17.4076  19.3873  19.6747
    20.2348  20.5504  20.6067  22.5843

     occupation numbers 
     1.0000   1.0000   1.0000   1.0000   1.0000   1.0000   1.0000   1.0000
     1.0000   1.0000   1.0000   1.0000   1.0000   1.0000   0.0000   0.0000
     0.0000   0.0000   0.0000   0.0000

          k = 0.1000 0.3000-0.5000 (  2588 PWs)   bands (ev):

   -67.0729 -67.0728 -33.3957 -33.3957 -33.1589 -33.1589 -33.0290 -33.0290
    14.7868  14.7868  16.8846  16.8846  17.4629  17.4629  19.5520  19.5520
    20.3770  20.3770  21.3819  21.3819

     occupation numbers 
     1.0000   1.0000   1.0000   1.0000   1.0000   1.0000   1.0000   1.0000
     1.0000   1.0000   1.0000   1.0000   1.0000   1.0000   0.0000   0.0000
     0.0000   0.0000   0.0000   0.0000

          k = 0.1000 0.4000 0.4000 (  2583 PWs)   bands (ev):

   -67.0788 -67.0651 -33.4314 -33.4056 -33.1765 -33.1370 -33.0289 -33.0048
    14.4997  15.0534  16.6764  16.8057  17.7588  17.7984  19.6335  19.8480
    20.2422  20.5672  21.0149  22.2205

     occupation numbers 
     1.0000   1.0000   1.0000   1.0000   1.0000   1.0000   1.0000   1.0000
     1.0000   1.0000   1.0000   1.0000   1.0000   1.0000   0.0000   0.0000
     0.0000   0.0000   0.0000   0.0000

          k = 0.1000 0.4000-0.5000 (  2584 PWs)   bands (ev):

   -67.0714 -67.0713 -33.4309 -33.4309 -33.1554 -33.1554 -33.0111 -33.0111
    14.7874  14.7874  16.6552  16.6552  18.0623  18.0623  19.8101  19.8102
    20.3751  20.3751  21.5296  21.5296

     occupation numbers 
     1.0000   1.0000   1.0000   1.0000   1.0000   1.0000   1.0000   1.0000
     1.0000   1.0000   1.0000   1.0000   1.0000   1.0000   0.0000   0.0000
     0.0000   0.0000   0.0000   0.0000

          k = 0.1000-0.5000-0.5000 (  2572 PWs)   bands (ev):

   -67.0708 -67.0708 -33.4437 -33.4437 -33.1540 -33.1540 -33.0051 -33.0051
    14.7676  14.7676  16.5671  16.5671  18.4492  18.4492  19.8968  19.8968
    20.2837  20.2837  21.5660  21.5660

     occupation numbers 
     1.0000   1.0000   1.0000   1.0000   1.0000   1.0000   1.0000   1.0000
     1.0000   1.0000   1.0000   1.0000   0.0000   0.0000   0.0000   0.0000
     0.0000   0.0000   0.0000   0.0000

          k = 0.2000 0.2000 0.2000 (  2590 PWs)   bands (ev):

   -67.1169 -67.0372 -33.3316 -33.3316 -33.2237 -33.1391 -33.0282 -33.0282
    12.2695  16.1398  16.1398  17.2503  17.2503  17.6297  19.5164  19.9167
    19.9167  20.0770  20.0770  26.8955

     occupation numbers 
     1.0000   1.0000   1.0000   1.0000   1.0000   1.0000   1.0000   1.0000
     1.0000   1.0000   1.0000   1.0000   1.0000   1.0000   0.0000   0.0000
     0.0000   0.0000   0.0000   0.0000

          k = 0.2000 0.2000 0.3000 (  2587 PWs)   bands (ev):

   -67.1042 -67.0463 -33.3605 -33.2886 -33.2781 -33.1004 -33.0681 -33.0241
    13.0913  16.1845  16.3462  17.0839  17.0848  17.2643  19.6600  19.7398
    20.0216  20.1560  20.2423  24.8382

     occupation numbers 
     1.0000   1.0000   1.0000   1.0000   1.0000   1.0000   1.0000   1.0000
     1.0000   1.0000   1.0000   1.0000   1.0000   1.0000   0.0000   0.0000
     0.0000   0.0000   0.0000   0.0000

          k = 0.2000 0.2000 0.4000 (  2591 PWs)   bands (ev):

   -67.0890 -67.0586 -33.3712 -33.3267 -33.2350 -33.1191 -33.0685 -33.0296
    14.0490  15.6947  16.5601  16.9157  17.1029  17.3106  19.4244  19.5424
    20.2126  20.2575  20.7511  22.9945

     occupation numbers 
     1.0000   1.0000   1.0000   1.0000   1.0000   1.0000   1.0000   1.0000
     1.0000   1.0000   1.0000   1.0000   1.0000   1.0000   0.0000   0.0000
     0.0000   0.0000   0.0000   0.0000

          k = 0.2000 0.2000-0.5000 (  2580 PWs)   bands (ev):

   -67.0732 -67.0732 -33.3596 -33.3596 -33.1766 -33.1765 -33.0446 -33.0446
    14.9553  14.9553  16.7477  16.7477  17.2532  17.2532  19.4045  19.4045
    20.2466  20.2466  21.6545  21.6545

     occupation numbers 
     1.0000   1.0000   1.0000   1.0000   1.0000   1.0000   1.0000   1.0000
     1.0000   1.0000   1.0000   1.0000   1.0000   1.0000   0.0000   0.0000
     0.0000   0.0000   0.0000   0.0000

          k = 0.2000 0.3000 0.3000 (  2583 PWs)   bands (ev):

   -67.0945 -67.0524 -33.3685 -33.3217 -33.2771 -33.0867 -33.0703 -33.0321
    13.8151  16.0633  16.7082  16.8447  16.8977  16.9618  19.6718  19.8809
    20.1200  20.2414  20.6412  24.9312

     occupation numbers 
     1.0000   1.0000   1.0000   1.0000   1.0000   1.0000   1.0000   1.0000
     1.0000   1.0000   1.0000   1.0000   1.0000   1.0000   0.0000   0.0000
     0.0000   0.0000   0.0000   0.0000

          k = 0.2000 0.3000 0.4000 (  2579 PWs)   bands (ev):

   -67.0830 -67.0609 -33.3831 -33.3592 -33.2330 -33.1284 -33.0493 -33.0329
    14.5731  15.6708  16.6955  16.7158  16.9961  17.1121  19.6506  19.8127
    20.2375  20.2854  21.3062  23.5325

     occupation numbers 
     1.0000   1.0000   1.0000   1.0000   1.0000   1.0000   1.0000   1.0000
     1.0000   1.0000   1.0000   1.0000   1.0000   1.0000   0.0000   0.0000
     0.0000   0.0000   0.0000   0.0000

          k = 0.2000 0.3000-0.5000 (  2582 PWs)   bands (ev):

   -67.0714 -67.0714 -33.3812 -33.3812 -33.1800 -33.1800 -33.0373 -33.0373
    15.1887  15.1887  16.6657  16.6657  17.1527  17.1527  19.7103  19.7104
    20.2882  20.2883  22.2149  22.2149

     occupation numbers 
     1.0000   1.0000   1.0000   1.0000   1.0000   1.0000   1.0000   1.0000
     1.0000   1.0000   1.0000   1.0000   1.0000   1.0000   0.0000   0.0000
     0.0000   0.0000   0.0000   0.0000

          k = 0.2000 0.4000 0.4000 (  2573 PWs)   bands (ev):

   -67.0763 -67.0646 -33.3983 -33.3874 -33.2079 -33.1467 -33.0392 -33.0354
    14.9659  15.4330  16.5700  16.6358  17.2324  17.3763  19.8215  19.9550
    20.2500  20.3155  21.9196  23.4253

     occupation numbers 
     1.0000   1.0000   1.0000   1.0000   1.0000   1.0000   1.0000   1.0000
     1.0000   1.0000   1.0000   1.0000   1.0000   1.0000   0.0000   0.0000
     0.0000   0.0000   0.0000   0.0000

          k = 0.2000 0.4000-0.5000 (  2568 PWs)   bands (ev):

   -67.0699 -67.0699 -33.4015 -33.4015 -33.1754 -33.1753 -33.0361 -33.0361
    15.2068  15.2068  16.5402  16.5402  17.4963  17.4963  19.9293  19.9294
    20.2971  20.2971  22.6545  22.6545

     occupation numbers 
     1.0000   1.0000   1.0000   1.0000   1.0000   1.0000   1.0000   1.0000
     1.0000   1.0000   1.0000   1.0000   1.0000   1.0000   0.0000   0.0000
     0.0000   0.0000   0.0000   0.0000

          k = 0.2000-0.5000-0.5000 (  2556 PWs)   bands (ev):

   -67.0693 -67.0693 -33.4097 -33.4097 -33.1723 -33.1722 -33.0366 -33.0366
    15.1846  15.1846  16.4739  16.4739  17.7344  17.7344  19.9997  19.9997
    20.2958  20.2958  22.8291  22.8291

     occupation numbers 
     1.0000   1.0000   1.0000   1.0000   1.0000   1.0000   1.0000   1.0000
     1.0000   1.0000   1.0000   1.0000   1.0000   1.0000   0.0000   0.0000
     0.0000   0.0000   0.0000   0.0000

          k = 0.3000 0.3000 0.3000 (  2587 PWs)   bands (ev):

   -67.0869 -67.0563 -33.3436 -33.3210 -33.3210 -33.0765 -33.0765 -33.0547
    14.5174  16.3118  16.6245  16.6245  16.6892  16.6892  19.9907  19.9907
    20.0713  20.0713  21.3412  26.2498

     occupation numbers 
     1.0000   1.0000   1.0000   1.0000   1.0000   1.0000   1.0000   1.0000
     1.0000   1.0000   1.0000   1.0000   1.0000   1.0000   0.0000   0.0000
     0.0000   0.0000   0.0000   0.0000

          k = 0.3000 0.3000 0.4000 (  2572 PWs)   bands (ev):

   -67.0782 -67.0621 -33.3613 -33.3524 -33.2617 -33.1332 -33.0645 -33.0499
    15.1870  15.9536  16.5452  16.5670  16.6775  16.9046  19.9029  19.9994
    20.1849  20.2293  22.1075  24.5358

     occupation numbers 
     1.0000   1.0000   1.0000   1.0000   1.0000   1.0000   1.0000   1.0000
     1.0000   1.0000   1.0000   1.0000   1.0000   1.0000   0.0000   0.0000
     0.0000   0.0000   0.0000   0.0000

          k = 0.3000 0.3000-0.5000 (  2578 PWs)   bands (ev):

   -67.0696 -67.0695 -33.3659 -33.3659 -33.1970 -33.1970 -33.0542 -33.0542
    15.6196  15.6196  16.5169  16.5169  16.8819  16.8819  19.9275  19.9275
    20.2701  20.2702  23.1113  23.1113

     occupation numbers 
     1.0000   1.0000   1.0000   1.0000   1.0000   1.0000   1.0000   1.0000
     1.0000   1.0000   1.0000   1.0000   1.0000   1.0000   0.0000   0.0000
     0.0000   0.0000   0.0000   0.0000

          k = 0.3000 0.4000 0.4000 (  2576 PWs)   bands (ev):

   -67.0729 -67.0644 -33.3629 -33.3471 -33.2468 -33.1525 -33.0834 -33.0601
    15.6163  15.8684  16.4545  16.5212  16.7193  16.9593  20.0395  20.1089
    20.2283  20.2542  22.9471  24.8660

     occupation numbers 
     1.0000   1.0000   1.0000   1.0000   1.0000   1.0000   1.0000   1.0000
     1.0000   1.0000   1.0000   1.0000   1.0000   1.0000   0.0000   0.0000
     0.0000   0.0000   0.0000   0.0000

          k = 0.3000 0.4000-0.5000 (  2568 PWs)   bands (ev):

   -67.0681 -67.0680 -33.3583 -33.3583 -33.1987 -33.1987 -33.0751 -33.0751
    15.7519  15.7519  16.4365  16.4365  16.9699  16.9699  20.0928  20.0928
    20.2867  20.2867  23.9243  23.9243

     occupation numbers 
     1.0000   1.0000   1.0000   1.0000   1.0000   1.0000   1.0000   1.0000
     1.0000   1.0000   1.0000   1.0000   1.0000   1.0000   0.0000   0.0000
     0.0000   0.0000   0.0000   0.0000

          k = 0.3000-0.5000-0.5000 (  2556 PWs)   bands (ev):

   -67.0675 -67.0675 -33.3571 -33.3571 -33.1947 -33.1947 -33.0860 -33.0860
    15.7427  15.7427  16.3785  16.3785  17.1235  17.1235  20.1409  20.1409
    20.3108  20.3109  24.3464  24.3464

     occupation numbers 
     1.0000   1.0000   1.0000   1.0000   1.0000   1.0000   1.0000   1.0000
     1.0000   1.0000   1.0000   1.0000   1.0000   1.0000   0.0000   0.0000
     0.0000   0.0000   0.0000   0.0000

          k = 0.4000 0.4000 0.4000 (  2551 PWs)   bands (ev):

   -67.0694 -67.0649 -33.3379 -33.2833 -33.2833 -33.1446 -33.1446 -33.0896
    16.0546  16.2109  16.3943  16.3943  16.6320  16.6320  20.2178  20.2178
    20.2485  20.2485  24.0087  26.4843

     occupation numbers 
     1.0000   1.0000   1.0000   1.0000   1.0000   1.0000   1.0000   1.0000
     1.0000   1.0000   1.0000   1.0000   1.0000   1.0000   0.0000   0.0000
     0.0000   0.0000   0.0000   0.0000

          k = 0.4000 0.4000-0.5000 (  2540 PWs)   bands (ev):

   -67.0666 -67.0666 -33.3130 -33.3130 -33.2135 -33.2135 -33.1211 -33.1211
    16.1317  16.1317  16.4432  16.4432  16.6447  16.6447  20.2330  20.2330
    20.2979  20.2979  25.1900  25.1900

     occupation numbers 
     1.0000   1.0000   1.0000   1.0000   1.0000   1.0000   1.0000   1.0000
     1.0000   1.0000   1.0000   1.0000   1.0000   1.0000   0.0000   0.0000
     0.0000   0.0000   0.0000   0.0000

          k = 0.4000-0.5000-0.5000 (  2544 PWs)   bands (ev):

   -67.0660 -67.0660 -33.2916 -33.2916 -33.2129 -33.2129 -33.1490 -33.1490
    16.2357  16.2358  16.3462  16.3462  16.6879  16.6879  20.2719  20.2720
    20.3230  20.3230  26.0314  26.0314

     occupation numbers 
     1.0000   1.0000   1.0000   1.0000   1.0000   1.0000   1.0000   1.0000
     1.0000   1.0000   1.0000   1.0000   1.0000   1.0000   0.0000   0.0000
     0.0000   0.0000   0.0000   0.0000

          k =-0.5000-0.5000-0.5000 (  2512 PWs)   bands (ev):

   -67.0655 -67.0654 -33.2198 -33.2198 -33.2198 -33.2198 -33.2198 -33.2198
    16.4355  16.4355  16.4355  16.4355  16.4355  16.4355  20.3277  20.3277
    20.3277  20.3277  27.8484  27.8484

     occupation numbers 
     1.0000   1.0000   1.0000   1.0000   1.0000   1.0000   1.0000   1.0000
     1.0000   1.0000   1.0000   1.0000   1.0000   1.0000   0.0000   0.0000
     0.0000   0.0000   0.0000   0.0000

     the Fermi energy is    18.3716 ev

!    total energy              =    -658.54078448 Ry
     total all-electron energy =     -5091.133851 Ry
     estimated scf accuracy    <          1.6E-10 Ry
     smearing contrib. (-TS)   =      -0.00002365 Ry
     internal energy E=F+TS    =    -658.54076083 Ry

     The total energy is F=E-TS. E is the sum of the following terms:
     one-electron contribution =    -218.77443994 Ry
     hartree contribution      =     129.74427583 Ry
     xc contribution           =     -55.51047485 Ry
     ewald contribution        =    -348.41317887 Ry
     one-center paw contrib.   =    -165.58694300 Ry
      -> PAW hartree energy AE =     183.01964867 Ry
      -> PAW hartree energy PS =    -181.72097380 Ry
      -> PAW xc energy AE      =    -110.15525841 Ry
      -> PAW xc energy PS      =      26.06311181 Ry
      -> total E_H with PAW    =     131.04295070 Ry
      -> total E_XC with PAW   =    -139.60262145 Ry

     total magnetization       =     4.25 Bohr mag/cell
     absolute magnetization    =     4.50 Bohr mag/cell

     convergence has been achieved in  19 iterations

     Writing all to output data dir ./out/Fe.save/
 
     init_run     :      0.28s CPU      0.36s WALL (       1 calls)
     electrons    :     16.41s CPU     17.35s WALL (       1 calls)

     Called by init_run:
     wfcinit      :      0.08s CPU      0.12s WALL (       1 calls)
     potinit      :      0.11s CPU      0.14s WALL (       1 calls)
     hinit0       :      0.06s CPU      0.06s WALL (       1 calls)

     Called by electrons:
     c_bands      :     11.74s CPU     12.16s WALL (      19 calls)
     sum_band     :      2.37s CPU      2.45s WALL (      19 calls)
     v_of_rho     :      0.22s CPU      0.22s WALL (      20 calls)
     v_h          :      0.01s CPU      0.01s WALL (      20 calls)
     v_xc         :      0.21s CPU      0.21s WALL (      20 calls)
     newd         :      0.16s CPU      0.20s WALL (      20 calls)
     PAW_pot      :      1.94s CPU      2.35s WALL (      20 calls)
     mix_rho      :      0.04s CPU      0.04s WALL (      19 calls)

     Called by c_bands:
     init_us_2    :      0.16s CPU      0.16s WALL (    2128 calls)
     init_us_2:cp :      0.16s CPU      0.15s WALL (    2128 calls)
     cegterg      :     10.72s CPU     11.01s WALL (    1064 calls)

     Called by sum_band:
     sum_band:wei :      0.01s CPU      0.01s WALL (      19 calls)
     sum_band:loo :      2.00s CPU      2.07s WALL (      19 calls)
     sum_band:buf :      0.01s CPU      0.01s WALL (    1064 calls)
     sum_band:ini :      0.09s CPU      0.08s WALL (    1064 calls)
     sum_band:cal :      0.13s CPU      0.13s WALL (    1064 calls)
     sum_band:bec :      0.00s CPU      0.01s WALL (    1064 calls)
     addusdens    :      0.30s CPU      0.31s WALL (      19 calls)
                                        0.00s GPU  (      19 calls)
     addusd:skk   :      0.00s CPU      0.00s WALL (      19 calls)
                                        0.00s GPU  (      19 calls)

     Called by *egterg:
     cdiaghg      :      1.57s CPU      1.59s WALL (    3396 calls)
     cegterg:over :      0.28s CPU      0.26s WALL (    2388 calls)
     cegterg:upda :      0.06s CPU      0.08s WALL (    2388 calls)
     cegterg:last :      0.13s CPU      0.15s WALL (    1948 calls)
     h_psi        :      8.30s CPU      8.53s WALL (    3452 calls)
     s_psi        :      0.13s CPU      0.11s WALL (    3452 calls)
     g_psi        :      0.02s CPU      0.03s WALL (    2388 calls)

     Called by h_psi:
     h_psi:calbec :      0.40s CPU      0.37s WALL (    3452 calls)
     vloc_psi     :      7.79s CPU      8.00s WALL (    3452 calls)
     add_vuspsi   :      0.09s CPU      0.12s WALL (    3452 calls)

     General routines
     calbec       :      0.53s CPU      0.49s WALL (    4516 calls)
     fft          :      0.12s CPU      0.12s WALL (     494 calls)
     ffts         :      0.01s CPU      0.01s WALL (      78 calls)
     fftw         :      8.97s CPU      8.90s WALL (  125570 calls)
     interpolate  :      0.02s CPU      0.02s WALL (      40 calls)
 
     Parallel routines

     PAW routines
     PAW_pot      :      1.94s CPU      2.35s WALL (      20 calls)
     PAW_symme    :      0.04s CPU      0.04s WALL (      38 calls)
 
     PWSCF        :     16.86s CPU     18.09s WALL

 
   This run was terminated on:   7:51:18  16Apr2024            

=------------------------------------------------------------------------------=
   JOB DONE.
=------------------------------------------------------------------------------=
