
     Program PWSCF v.7.2 starts on 22Mar2024 at  8:23: 1 

     This program is part of the open-source Quantum ESPRESSO suite
     for quantum simulation of materials; please cite
         "P. Giannozzi et al., J. Phys.:Condens. Matter 21 395502 (2009);
         "P. Giannozzi et al., J. Phys.:Condens. Matter 29 465901 (2017);
         "P. Giannozzi et al., J. Chem. Phys. 152 154105 (2020);
          URL http://www.quantum-espresso.org", 
     in publications or presentations arising from this work. More details at
     http://www.quantum-espresso.org/quote

     Parallel version (MPI), running on    20 processors

     MPI processes distributed on     1 nodes
     352646 MiB available memory on the printing compute node when the environment starts
 
     Waiting for input...
     Reading input from standard input

     Current dimensions of program PWSCF are:
     Max number of different atomic species (ntypx) = 10
     Max number of k-points (npk) = 120000
     Max angular momentum in pseudopotentials (lmaxx) =  4
     file Co.pbe-spn-kjpaw_psl.0.3.1.UPF: wavefunction(s)  3P 3D renormalized
 
     R & G space division:  proc/nbgrp/npool/nimage =      20
     Subspace diagonalization in iterative solution of the eigenvalue problem:
     a serial algorithm will be used

 
     Parallelization info
     --------------------
     sticks:   dense  smooth     PW     G-vecs:    dense   smooth      PW
     Min          33      33      9                 1188     1149     185
     Max          35      34     10                 1200     1156     192
     Sum         685     673    199                23847    23067    3789
 
     Using Slab Decomposition
 


     bravais-lattice index     =            4
     lattice parameter (alat)  =       4.7243  a.u.
     unit-cell volume          =     148.1147 (a.u.)^3
     number of atoms/cell      =            2
     number of atomic types    =            1
     number of electrons       =        34.00
     number of Kohn-Sham states=           21
     kinetic-energy cutoff     =     110.0000  Ry
     charge density cutoff     =     450.0000  Ry
     scf convergence threshold =      1.0E-06
     mixing beta               =       0.7000
     number of iterations used =            8  plain     mixing
     Exchange-correlation= SLA  PW   PBX  PBC
                           (   1   4   3   4   0   0   0)

     celldm(1)=   4.724315  celldm(2)=   0.000000  celldm(3)=   1.622000
     celldm(4)=   0.000000  celldm(5)=   0.000000  celldm(6)=   0.000000

     crystal axes: (cart. coord. in units of alat)
               a(1) = (   1.000000   0.000000   0.000000 )  
               a(2) = (  -0.500000   0.866025   0.000000 )  
               a(3) = (   0.000000   0.000000   1.622000 )  

     reciprocal axes: (cart. coord. in units 2 pi/alat)
               b(1) = (  1.000000  0.577350  0.000000 )  
               b(2) = (  0.000000  1.154701  0.000000 )  
               b(3) = (  0.000000  0.000000  0.616523 )  


     PseudoPot. # 1 for Co read from file:
     /truba/home/amuhaymin/ZnS/pseudo/QE/Co.pbe-spn-kjpaw_psl.0.3.1.UPF
     MD5 check sum: b0a1ad65bf214e88c1f3d33b20c7d919
     Pseudo is Projector augmented-wave + core cor, Zval = 17.0
     Generated using &quot;atomic&quot; code by A. Dal Corso  v.6.2.2
     Shape of augmentation charge: PSQ
     Using radial grid of 1193 points,  6 beta functions with: 
                l(1) =   0
                l(2) =   0
                l(3) =   1
                l(4) =   1
                l(5) =   2
                l(6) =   2
     Q(r) pseudized with 0 coefficients 


     atomic species   valence    mass     pseudopotential
        Co            17.00    58.93300     Co( 1.00)

     Starting magnetic structure 
     atomic species   magnetization
        Co           0.294

     24 Sym. Ops., with inversion, found (12 have fractional translation)


                                    s                        frac. trans.

      isym =  1     identity                                     

 cryst.   s( 1) = (     1          0          0      )
                  (     0          1          0      )
                  (     0          0          1      )

 cart.    s( 1) = (  1.0000000  0.0000000  0.0000000 )
                  (  0.0000000  1.0000000  0.0000000 )
                  (  0.0000000  0.0000000  1.0000000 )


      isym =  2     180 deg rotation - cart. axis [0,0,1]        

 cryst.   s( 2) = (    -1          0          0      )    f =(  0.0000000 )
                  (     0         -1          0      )       ( -0.0000000 )
                  (     0          0          1      )       ( -0.5000000 )

 cart.    s( 2) = ( -1.0000000  0.0000000  0.0000000 )    f =(  0.0000000 )
                  (  0.0000000 -1.0000000  0.0000000 )       ( -0.0000000 )
                  (  0.0000000  0.0000000  1.0000000 )       ( -0.8110000 )


      isym =  3     180 deg rotation - cart. axis [0,1,0]        

 cryst.   s( 3) = (    -1          0          0      )    f =(  0.0000000 )
                  (     1          1          0      )       (  0.0000000 )
                  (     0          0         -1      )       (  0.5000000 )

 cart.    s( 3) = ( -1.0000000  0.0000000  0.0000000 )    f =(  0.0000000 )
                  (  0.0000000  1.0000000  0.0000000 )       (  0.0000000 )
                  (  0.0000000  0.0000000 -1.0000000 )       (  0.8110000 )


      isym =  4     180 deg rotation - cart. axis [1,0,0]        

 cryst.   s( 4) = (     1          0          0      )
                  (    -1         -1          0      )
                  (     0          0         -1      )

 cart.    s( 4) = (  1.0000000  0.0000000  0.0000000 )
                  (  0.0000000 -1.0000000  0.0000000 )
                  (  0.0000000  0.0000000 -1.0000000 )


      isym =  5      60 deg rotation - cryst. axis [0,0,1]       

 cryst.   s( 5) = (     1          1          0      )    f =(  0.0000000 )
                  (    -1          0          0      )       ( -0.0000000 )
                  (     0          0          1      )       ( -0.5000000 )

 cart.    s( 5) = (  0.5000000 -0.8660254  0.0000000 )    f =(  0.0000000 )
                  (  0.8660254  0.5000000  0.0000000 )       ( -0.0000000 )
                  (  0.0000000  0.0000000  1.0000000 )       ( -0.8110000 )


      isym =  6      60 deg rotation - cryst. axis [0,0,-1]      

 cryst.   s( 6) = (     0         -1          0      )    f =(  0.0000000 )
                  (     1          1          0      )       ( -0.0000000 )
                  (     0          0          1      )       ( -0.5000000 )

 cart.    s( 6) = (  0.5000000  0.8660254  0.0000000 )    f =(  0.0000000 )
                  ( -0.8660254  0.5000000  0.0000000 )       ( -0.0000000 )
                  (  0.0000000  0.0000000  1.0000000 )       ( -0.8110000 )


      isym =  7     120 deg rotation - cryst. axis [0,0,1]       

 cryst.   s( 7) = (     0          1          0      )
                  (    -1         -1          0      )
                  (     0          0          1      )

 cart.    s( 7) = ( -0.5000000 -0.8660254  0.0000000 )
                  (  0.8660254 -0.5000000  0.0000000 )
                  (  0.0000000  0.0000000  1.0000000 )


      isym =  8     120 deg rotation - cryst. axis [0,0,-1]      

 cryst.   s( 8) = (    -1         -1          0      )
                  (     1          0          0      )
                  (     0          0          1      )

 cart.    s( 8) = ( -0.5000000  0.8660254  0.0000000 )
                  ( -0.8660254 -0.5000000  0.0000000 )
                  (  0.0000000  0.0000000  1.0000000 )


      isym =  9     180 deg rotation - cryst. axis [1,-1,0]      

 cryst.   s( 9) = (     0         -1          0      )    f =( -0.0000000 )
                  (    -1          0          0      )       ( -0.0000000 )
                  (     0          0         -1      )       (  0.5000000 )

 cart.    s( 9) = (  0.5000000 -0.8660254  0.0000000 )    f =( -0.0000000 )
                  ( -0.8660254 -0.5000000  0.0000000 )       ( -0.0000000 )
                  (  0.0000000  0.0000000 -1.0000000 )       (  0.8110000 )


      isym = 10     180 deg rotation - cryst. axis [2,1,0]       

 cryst.   s(10) = (     1          1          0      )    f =(  0.0000000 )
                  (     0         -1          0      )       ( -0.0000000 )
                  (     0          0         -1      )       (  0.5000000 )

 cart.    s(10) = (  0.5000000  0.8660254  0.0000000 )    f =(  0.0000000 )
                  (  0.8660254 -0.5000000  0.0000000 )       ( -0.0000000 )
                  (  0.0000000  0.0000000 -1.0000000 )       (  0.8110000 )


      isym = 11     180 deg rotation - cryst. axis [0,1,0]       

 cryst.   s(11) = (    -1         -1          0      )
                  (     0          1          0      )
                  (     0          0         -1      )

 cart.    s(11) = ( -0.5000000 -0.8660254  0.0000000 )
                  ( -0.8660254  0.5000000  0.0000000 )
                  (  0.0000000  0.0000000 -1.0000000 )


      isym = 12     180 deg rotation - cryst. axis [1,1,0]       

 cryst.   s(12) = (     0          1          0      )
                  (     1          0          0      )
                  (     0          0         -1      )

 cart.    s(12) = ( -0.5000000  0.8660254  0.0000000 )
                  (  0.8660254  0.5000000  0.0000000 )
                  (  0.0000000  0.0000000 -1.0000000 )


      isym = 13     inversion                                    

 cryst.   s(13) = (    -1          0          0      )
                  (     0         -1          0      )
                  (     0          0         -1      )

 cart.    s(13) = ( -1.0000000  0.0000000  0.0000000 )
                  (  0.0000000 -1.0000000  0.0000000 )
                  (  0.0000000  0.0000000 -1.0000000 )


      isym = 14     inv. 180 deg rotation - cart. axis [0,0,1]   

 cryst.   s(14) = (     1          0          0      )    f =(  0.0000000 )
                  (     0          1          0      )       (  0.0000000 )
                  (     0          0         -1      )       (  0.5000000 )

 cart.    s(14) = (  1.0000000  0.0000000  0.0000000 )    f =(  0.0000000 )
                  (  0.0000000  1.0000000  0.0000000 )       (  0.0000000 )
                  (  0.0000000  0.0000000 -1.0000000 )       (  0.8110000 )


      isym = 15     inv. 180 deg rotation - cart. axis [0,1,0]   

 cryst.   s(15) = (     1          0          0      )    f =(  0.0000000 )
                  (    -1         -1          0      )       ( -0.0000000 )
                  (     0          0          1      )       ( -0.5000000 )

 cart.    s(15) = (  1.0000000  0.0000000  0.0000000 )    f =(  0.0000000 )
                  (  0.0000000 -1.0000000  0.0000000 )       ( -0.0000000 )
                  (  0.0000000  0.0000000  1.0000000 )       ( -0.8110000 )


      isym = 16     inv. 180 deg rotation - cart. axis [1,0,0]   

 cryst.   s(16) = (    -1          0          0      )
                  (     1          1          0      )
                  (     0          0          1      )

 cart.    s(16) = ( -1.0000000  0.0000000  0.0000000 )
                  (  0.0000000  1.0000000  0.0000000 )
                  (  0.0000000  0.0000000  1.0000000 )


      isym = 17     inv.  60 deg rotation - cryst. axis [0,0,1]  

 cryst.   s(17) = (    -1         -1          0      )    f =(  0.0000000 )
                  (     1          0          0      )       ( -0.0000000 )
                  (     0          0         -1      )       (  0.5000000 )

 cart.    s(17) = ( -0.5000000  0.8660254  0.0000000 )    f =(  0.0000000 )
                  ( -0.8660254 -0.5000000  0.0000000 )       ( -0.0000000 )
                  (  0.0000000  0.0000000 -1.0000000 )       (  0.8110000 )


      isym = 18     inv.  60 deg rotation - cryst. axis [0,0,-1] 

 cryst.   s(18) = (     0          1          0      )    f =( -0.0000000 )
                  (    -1         -1          0      )       ( -0.0000000 )
                  (     0          0         -1      )       (  0.5000000 )

 cart.    s(18) = ( -0.5000000 -0.8660254  0.0000000 )    f =(  0.0000000 )
                  (  0.8660254 -0.5000000  0.0000000 )       ( -0.0000000 )
                  (  0.0000000  0.0000000 -1.0000000 )       (  0.8110000 )


      isym = 19     inv. 120 deg rotation - cryst. axis [0,0,1]  

 cryst.   s(19) = (     0         -1          0      )
                  (     1          1          0      )
                  (     0          0         -1      )

 cart.    s(19) = (  0.5000000  0.8660254  0.0000000 )
                  ( -0.8660254  0.5000000  0.0000000 )
                  (  0.0000000  0.0000000 -1.0000000 )


      isym = 20     inv. 120 deg rotation - cryst. axis [0,0,-1] 

 cryst.   s(20) = (     1          1          0      )
                  (    -1          0          0      )
                  (     0          0         -1      )

 cart.    s(20) = (  0.5000000 -0.8660254  0.0000000 )
                  (  0.8660254  0.5000000  0.0000000 )
                  (  0.0000000  0.0000000 -1.0000000 )


      isym = 21     inv. 180 deg rotation - cryst. axis [1,-1,0] 

 cryst.   s(21) = (     0          1          0      )    f =(  0.0000000 )
                  (     1          0          0      )       ( -0.0000000 )
                  (     0          0          1      )       ( -0.5000000 )

 cart.    s(21) = ( -0.5000000  0.8660254  0.0000000 )    f =(  0.0000000 )
                  (  0.8660254  0.5000000  0.0000000 )       ( -0.0000000 )
                  (  0.0000000  0.0000000  1.0000000 )       ( -0.8110000 )


      isym = 22     inv. 180 deg rotation - cryst. axis [2,1,0]  

 cryst.   s(22) = (    -1         -1          0      )    f =(  0.0000000 )
                  (     0          1          0      )       ( -0.0000000 )
                  (     0          0          1      )       ( -0.5000000 )

 cart.    s(22) = ( -0.5000000 -0.8660254  0.0000000 )    f =(  0.0000000 )
                  ( -0.8660254  0.5000000  0.0000000 )       ( -0.0000000 )
                  (  0.0000000  0.0000000  1.0000000 )       ( -0.8110000 )


      isym = 23     inv. 180 deg rotation - cryst. axis [0,1,0]  

 cryst.   s(23) = (     1          1          0      )
                  (     0         -1          0      )
                  (     0          0          1      )

 cart.    s(23) = (  0.5000000  0.8660254  0.0000000 )
                  (  0.8660254 -0.5000000  0.0000000 )
                  (  0.0000000  0.0000000  1.0000000 )


      isym = 24     inv. 180 deg rotation - cryst. axis [1,1,0]  

 cryst.   s(24) = (     0         -1          0      )
                  (    -1          0          0      )
                  (     0          0          1      )

 cart.    s(24) = (  0.5000000 -0.8660254  0.0000000 )
                  ( -0.8660254 -0.5000000  0.0000000 )
                  (  0.0000000  0.0000000  1.0000000 )


     point group D_6h(6/mmm)
     there are 12 classes
     the character table:

       E     2C6   2C3   C2    3C2'  3C2'' i     2S3   2S6   s_h   3s_d  3s_v 
A_1g   1.00  1.00  1.00  1.00  1.00  1.00  1.00  1.00  1.00  1.00  1.00  1.00
A_2g   1.00  1.00  1.00  1.00 -1.00 -1.00  1.00  1.00  1.00  1.00 -1.00 -1.00
B_1g   1.00 -1.00  1.00 -1.00  1.00 -1.00  1.00 -1.00  1.00 -1.00  1.00 -1.00
B_2g   1.00 -1.00  1.00 -1.00 -1.00  1.00  1.00 -1.00  1.00 -1.00 -1.00  1.00
E_1g   2.00  1.00 -1.00 -2.00  0.00  0.00  2.00  1.00 -1.00 -2.00  0.00  0.00
E_2g   2.00 -1.00 -1.00  2.00  0.00  0.00  2.00 -1.00 -1.00  2.00  0.00  0.00
A_1u   1.00  1.00  1.00  1.00  1.00  1.00 -1.00 -1.00 -1.00 -1.00 -1.00 -1.00
A_2u   1.00  1.00  1.00  1.00 -1.00 -1.00 -1.00 -1.00 -1.00 -1.00  1.00  1.00
B_1u   1.00 -1.00  1.00 -1.00  1.00 -1.00 -1.00  1.00 -1.00  1.00 -1.00  1.00
B_2u   1.00 -1.00  1.00 -1.00 -1.00  1.00 -1.00  1.00 -1.00  1.00  1.00 -1.00
E_1u   2.00  1.00 -1.00 -2.00  0.00  0.00 -2.00 -1.00  1.00  2.00  0.00  0.00
E_2u   2.00 -1.00 -1.00  2.00  0.00  0.00 -2.00  1.00  1.00 -2.00  0.00  0.00

     the symmetry operations in each class and the name of the first element:

     E        1
          identity                                               
     2C6      5    6
           60 deg rotation - cryst. axis [0,0,1]                 
     2C3      7    8
          120 deg rotation - cryst. axis [0,0,1]                 
     C2       2
          180 deg rotation - cart. axis [0,0,1]                  
     3C2'     4   12   11
          180 deg rotation - cart. axis [1,0,0]                  
     3C2''    3    9   10
          180 deg rotation - cart. axis [0,1,0]                  
     i       13
          inversion                                              
     2S3     17   18
          inv.  60 deg rotation - cryst. axis [0,0,1]            
     2S6     19   20
          inv. 120 deg rotation - cryst. axis [0,0,1]            
     s_h     14
          inv. 180 deg rotation - cart. axis [0,0,1]             
     3s_d    16   24   23
          inv. 180 deg rotation - cart. axis [1,0,0]             
     3s_v    15   21   22
          inv. 180 deg rotation - cart. axis [0,1,0]             

   Cartesian axes

     site n.     atom                  positions (alat units)
         1           Co  tau(   1) = (  -0.0000000   0.5773503   0.4055000  )
         2           Co  tau(   2) = (   0.5000000   0.2886751   1.2165000  )

   Crystallographic axes

     site n.     atom                  positions (cryst. coord.)
         1           Co  tau(   1) = (  0.3333333  0.6666667  0.2500000  )
         2           Co  tau(   2) = (  0.6666667  0.3333333  0.7500000  )

     number of k points=    76  Gaussian smearing, width (Ry)=  0.0010
                       cart. coord. in units 2pi/alat
        k(    1) = (   0.0000000   0.0000000   0.0000000), wk =   0.0011574
        k(    2) = (   0.0000000   0.0000000   0.1027538), wk =   0.0023148
        k(    3) = (   0.0000000   0.0000000   0.2055076), wk =   0.0023148
        k(    4) = (   0.0000000   0.0000000  -0.3082614), wk =   0.0011574
        k(    5) = (   0.0000000   0.0962250   0.0000000), wk =   0.0069444
        k(    6) = (   0.0000000   0.0962250   0.1027538), wk =   0.0138889
        k(    7) = (   0.0000000   0.0962250   0.2055076), wk =   0.0138889
        k(    8) = (   0.0000000   0.0962250  -0.3082614), wk =   0.0069444
        k(    9) = (   0.0000000   0.1924501   0.0000000), wk =   0.0069444
        k(   10) = (   0.0000000   0.1924501   0.1027538), wk =   0.0138889
        k(   11) = (   0.0000000   0.1924501   0.2055076), wk =   0.0138889
        k(   12) = (   0.0000000   0.1924501  -0.3082614), wk =   0.0069444
        k(   13) = (   0.0000000   0.2886751   0.0000000), wk =   0.0069444
        k(   14) = (   0.0000000   0.2886751   0.1027538), wk =   0.0138889
        k(   15) = (   0.0000000   0.2886751   0.2055076), wk =   0.0138889
        k(   16) = (   0.0000000   0.2886751  -0.3082614), wk =   0.0069444
        k(   17) = (   0.0000000   0.3849002   0.0000000), wk =   0.0069444
        k(   18) = (   0.0000000   0.3849002   0.1027538), wk =   0.0138889
        k(   19) = (   0.0000000   0.3849002   0.2055076), wk =   0.0138889
        k(   20) = (   0.0000000   0.3849002  -0.3082614), wk =   0.0069444
        k(   21) = (   0.0000000   0.4811252   0.0000000), wk =   0.0069444
        k(   22) = (   0.0000000   0.4811252   0.1027538), wk =   0.0138889
        k(   23) = (   0.0000000   0.4811252   0.2055076), wk =   0.0138889
        k(   24) = (   0.0000000   0.4811252  -0.3082614), wk =   0.0069444
        k(   25) = (   0.0000000  -0.5773503   0.0000000), wk =   0.0034722
        k(   26) = (   0.0000000  -0.5773503   0.1027538), wk =   0.0069444
        k(   27) = (   0.0000000  -0.5773503   0.2055076), wk =   0.0069444
        k(   28) = (   0.0000000  -0.5773503  -0.3082614), wk =   0.0034722
        k(   29) = (   0.0833333   0.1443376   0.0000000), wk =   0.0069444
        k(   30) = (   0.0833333   0.1443376   0.1027538), wk =   0.0138889
        k(   31) = (   0.0833333   0.1443376   0.2055076), wk =   0.0138889
        k(   32) = (   0.0833333   0.1443376  -0.3082614), wk =   0.0069444
        k(   33) = (   0.0833333   0.2405626   0.0000000), wk =   0.0138889
        k(   34) = (   0.0833333   0.2405626   0.1027538), wk =   0.0277778
        k(   35) = (   0.0833333   0.2405626   0.2055076), wk =   0.0277778
        k(   36) = (   0.0833333   0.2405626  -0.3082614), wk =   0.0138889
        k(   37) = (   0.0833333   0.3367877   0.0000000), wk =   0.0138889
        k(   38) = (   0.0833333   0.3367877   0.1027538), wk =   0.0277778
        k(   39) = (   0.0833333   0.3367877   0.2055076), wk =   0.0277778
        k(   40) = (   0.0833333   0.3367877  -0.3082614), wk =   0.0138889
        k(   41) = (   0.0833333   0.4330127   0.0000000), wk =   0.0138889
        k(   42) = (   0.0833333   0.4330127   0.1027538), wk =   0.0277778
        k(   43) = (   0.0833333   0.4330127   0.2055076), wk =   0.0277778
        k(   44) = (   0.0833333   0.4330127  -0.3082614), wk =   0.0138889
        k(   45) = (   0.0833333   0.5292377   0.0000000), wk =   0.0138889
        k(   46) = (   0.0833333   0.5292377   0.1027538), wk =   0.0277778
        k(   47) = (   0.0833333   0.5292377   0.2055076), wk =   0.0277778
        k(   48) = (   0.0833333   0.5292377  -0.3082614), wk =   0.0138889
        k(   49) = (   0.1666667   0.2886751   0.0000000), wk =   0.0069444
        k(   50) = (   0.1666667   0.2886751   0.1027538), wk =   0.0138889
        k(   51) = (   0.1666667   0.2886751   0.2055076), wk =   0.0138889
        k(   52) = (   0.1666667   0.2886751  -0.3082614), wk =   0.0069444
        k(   53) = (   0.1666667   0.3849002   0.0000000), wk =   0.0138889
        k(   54) = (   0.1666667   0.3849002   0.1027538), wk =   0.0277778
        k(   55) = (   0.1666667   0.3849002   0.2055076), wk =   0.0277778
        k(   56) = (   0.1666667   0.3849002  -0.3082614), wk =   0.0138889
        k(   57) = (   0.1666667   0.4811252   0.0000000), wk =   0.0138889
        k(   58) = (   0.1666667   0.4811252   0.1027538), wk =   0.0277778
        k(   59) = (   0.1666667   0.4811252   0.2055076), wk =   0.0277778
        k(   60) = (   0.1666667   0.4811252  -0.3082614), wk =   0.0138889
        k(   61) = (   0.1666667   0.5773503   0.0000000), wk =   0.0069444
        k(   62) = (   0.1666667   0.5773503   0.1027538), wk =   0.0138889
        k(   63) = (   0.1666667   0.5773503   0.2055076), wk =   0.0138889
        k(   64) = (   0.1666667   0.5773503  -0.3082614), wk =   0.0069444
        k(   65) = (   0.2500000   0.4330127   0.0000000), wk =   0.0069444
        k(   66) = (   0.2500000   0.4330127   0.1027538), wk =   0.0138889
        k(   67) = (   0.2500000   0.4330127   0.2055076), wk =   0.0138889
        k(   68) = (   0.2500000   0.4330127  -0.3082614), wk =   0.0069444
        k(   69) = (   0.2500000   0.5292377   0.0000000), wk =   0.0138889
        k(   70) = (   0.2500000   0.5292377   0.1027538), wk =   0.0277778
        k(   71) = (   0.2500000   0.5292377   0.2055076), wk =   0.0277778
        k(   72) = (   0.2500000   0.5292377  -0.3082614), wk =   0.0138889
        k(   73) = (   0.3333333   0.5773503   0.0000000), wk =   0.0023148
        k(   74) = (   0.3333333   0.5773503   0.1027538), wk =   0.0046296
        k(   75) = (   0.3333333   0.5773503   0.2055076), wk =   0.0046296
        k(   76) = (   0.3333333   0.5773503  -0.3082614), wk =   0.0023148

                       cryst. coord.
        k(    1) = (   0.0000000   0.0000000   0.0000000), wk =   0.0011574
        k(    2) = (   0.0000000   0.0000000   0.1666667), wk =   0.0023148
        k(    3) = (   0.0000000   0.0000000   0.3333333), wk =   0.0023148
        k(    4) = (   0.0000000   0.0000000  -0.5000000), wk =   0.0011574
        k(    5) = (   0.0000000   0.0833333   0.0000000), wk =   0.0069444
        k(    6) = (   0.0000000   0.0833333   0.1666667), wk =   0.0138889
        k(    7) = (   0.0000000   0.0833333   0.3333333), wk =   0.0138889
        k(    8) = (   0.0000000   0.0833333  -0.5000000), wk =   0.0069444
        k(    9) = (   0.0000000   0.1666667   0.0000000), wk =   0.0069444
        k(   10) = (   0.0000000   0.1666667   0.1666667), wk =   0.0138889
        k(   11) = (   0.0000000   0.1666667   0.3333333), wk =   0.0138889
        k(   12) = (   0.0000000   0.1666667  -0.5000000), wk =   0.0069444
        k(   13) = (   0.0000000   0.2500000   0.0000000), wk =   0.0069444
        k(   14) = (   0.0000000   0.2500000   0.1666667), wk =   0.0138889
        k(   15) = (   0.0000000   0.2500000   0.3333333), wk =   0.0138889
        k(   16) = (   0.0000000   0.2500000  -0.5000000), wk =   0.0069444
        k(   17) = (   0.0000000   0.3333333   0.0000000), wk =   0.0069444
        k(   18) = (   0.0000000   0.3333333   0.1666667), wk =   0.0138889
        k(   19) = (   0.0000000   0.3333333   0.3333333), wk =   0.0138889
        k(   20) = (   0.0000000   0.3333333  -0.5000000), wk =   0.0069444
        k(   21) = (   0.0000000   0.4166667   0.0000000), wk =   0.0069444
        k(   22) = (   0.0000000   0.4166667   0.1666667), wk =   0.0138889
        k(   23) = (   0.0000000   0.4166667   0.3333333), wk =   0.0138889
        k(   24) = (   0.0000000   0.4166667  -0.5000000), wk =   0.0069444
        k(   25) = (   0.0000000  -0.5000000   0.0000000), wk =   0.0034722
        k(   26) = (   0.0000000  -0.5000000   0.1666667), wk =   0.0069444
        k(   27) = (   0.0000000  -0.5000000   0.3333333), wk =   0.0069444
        k(   28) = (   0.0000000  -0.5000000  -0.5000000), wk =   0.0034722
        k(   29) = (   0.0833333   0.0833333   0.0000000), wk =   0.0069444
        k(   30) = (   0.0833333   0.0833333   0.1666667), wk =   0.0138889
        k(   31) = (   0.0833333   0.0833333   0.3333333), wk =   0.0138889
        k(   32) = (   0.0833333   0.0833333  -0.5000000), wk =   0.0069444
        k(   33) = (   0.0833333   0.1666667   0.0000000), wk =   0.0138889
        k(   34) = (   0.0833333   0.1666667   0.1666667), wk =   0.0277778
        k(   35) = (   0.0833333   0.1666667   0.3333333), wk =   0.0277778
        k(   36) = (   0.0833333   0.1666667  -0.5000000), wk =   0.0138889
        k(   37) = (   0.0833333   0.2500000   0.0000000), wk =   0.0138889
        k(   38) = (   0.0833333   0.2500000   0.1666667), wk =   0.0277778
        k(   39) = (   0.0833333   0.2500000   0.3333333), wk =   0.0277778
        k(   40) = (   0.0833333   0.2500000  -0.5000000), wk =   0.0138889
        k(   41) = (   0.0833333   0.3333333   0.0000000), wk =   0.0138889
        k(   42) = (   0.0833333   0.3333333   0.1666667), wk =   0.0277778
        k(   43) = (   0.0833333   0.3333333   0.3333333), wk =   0.0277778
        k(   44) = (   0.0833333   0.3333333  -0.5000000), wk =   0.0138889
        k(   45) = (   0.0833333   0.4166667   0.0000000), wk =   0.0138889
        k(   46) = (   0.0833333   0.4166667   0.1666667), wk =   0.0277778
        k(   47) = (   0.0833333   0.4166667   0.3333333), wk =   0.0277778
        k(   48) = (   0.0833333   0.4166667  -0.5000000), wk =   0.0138889
        k(   49) = (   0.1666667   0.1666667   0.0000000), wk =   0.0069444
        k(   50) = (   0.1666667   0.1666667   0.1666667), wk =   0.0138889
        k(   51) = (   0.1666667   0.1666667   0.3333333), wk =   0.0138889
        k(   52) = (   0.1666667   0.1666667  -0.5000000), wk =   0.0069444
        k(   53) = (   0.1666667   0.2500000   0.0000000), wk =   0.0138889
        k(   54) = (   0.1666667   0.2500000   0.1666667), wk =   0.0277778
        k(   55) = (   0.1666667   0.2500000   0.3333333), wk =   0.0277778
        k(   56) = (   0.1666667   0.2500000  -0.5000000), wk =   0.0138889
        k(   57) = (   0.1666667   0.3333333   0.0000000), wk =   0.0138889
        k(   58) = (   0.1666667   0.3333333   0.1666667), wk =   0.0277778
        k(   59) = (   0.1666667   0.3333333   0.3333333), wk =   0.0277778
        k(   60) = (   0.1666667   0.3333333  -0.5000000), wk =   0.0138889
        k(   61) = (   0.1666667   0.4166667   0.0000000), wk =   0.0069444
        k(   62) = (   0.1666667   0.4166667   0.1666667), wk =   0.0138889
        k(   63) = (   0.1666667   0.4166667   0.3333333), wk =   0.0138889
        k(   64) = (   0.1666667   0.4166667  -0.5000000), wk =   0.0069444
        k(   65) = (   0.2500000   0.2500000   0.0000000), wk =   0.0069444
        k(   66) = (   0.2500000   0.2500000   0.1666667), wk =   0.0138889
        k(   67) = (   0.2500000   0.2500000   0.3333333), wk =   0.0138889
        k(   68) = (   0.2500000   0.2500000  -0.5000000), wk =   0.0069444
        k(   69) = (   0.2500000   0.3333333   0.0000000), wk =   0.0138889
        k(   70) = (   0.2500000   0.3333333   0.1666667), wk =   0.0277778
        k(   71) = (   0.2500000   0.3333333   0.3333333), wk =   0.0277778
        k(   72) = (   0.2500000   0.3333333  -0.5000000), wk =   0.0138889
        k(   73) = (   0.3333333   0.3333333   0.0000000), wk =   0.0023148
        k(   74) = (   0.3333333   0.3333333   0.1666667), wk =   0.0046296
        k(   75) = (   0.3333333   0.3333333   0.3333333), wk =   0.0046296
        k(   76) = (   0.3333333   0.3333333  -0.5000000), wk =   0.0023148

     Dense  grid:    23847 G-vectors     FFT dimensions: (  32,  32,  54)

     Smooth grid:    23067 G-vectors     FFT dimensions: (  32,  32,  54)

     Dynamical RAM for                 wfc:       0.05 MB

     Dynamical RAM for     wfc (w. buffer):       7.06 MB

     Dynamical RAM for           str. fact:       0.02 MB

     Dynamical RAM for           local pot:       0.00 MB

     Dynamical RAM for          nlocal pot:       0.08 MB

     Dynamical RAM for                qrad:       1.70 MB

     Dynamical RAM for          rho,v,vnew:       0.25 MB

     Dynamical RAM for               rhoin:       0.08 MB

     Dynamical RAM for            rho*nmix:       0.58 MB

     Dynamical RAM for           G-vectors:       0.08 MB

     Dynamical RAM for          h,s,v(r/c):       0.08 MB

     Dynamical RAM for          <psi|beta>:       0.01 MB

     Dynamical RAM for                 psi:       0.09 MB

     Dynamical RAM for                hpsi:       0.09 MB

     Dynamical RAM for                spsi:       0.09 MB

     Dynamical RAM for      wfcinit/wfcrot:       0.10 MB

     Dynamical RAM for           addusdens:       3.44 MB

     Estimated static dynamical RAM per process >       9.45 MB

     Estimated max dynamical RAM per process >      13.47 MB

     Estimated total dynamical RAM >     269.39 MB

     Check: negative core charge=   -0.000043
     Generating pointlists ...
     new r_m :   0.4107 (alat units)  1.9400 (a.u.) for type    1

     The initial density is read from file :
     ./out/Co.save/charge-density


     starting charge      34.0420, renormalised to      34.0000

     negative rho (up, down):  1.947E+00 1.553E+00
     Starting wfcs from file
     Checking if some PAW data can be deallocated... 

     total cpu time spent up to now is        0.6 secs

     Self-consistent Calculation

     iteration #  1     ecut=   110.00 Ry     beta= 0.70
     Davidson diagonalization with overlap

---- Real-time Memory Report at c_bands before calling an iterative solver
            56 MiB given to the printing process from OS
             0 MiB allocation reported by mallinfo(arena+hblkhd)
        352066 MiB available memory on the node where the printing process lives
------------------
     c_bands:  3 eigenvalues not converged
     c_bands:  4 eigenvalues not converged
     c_bands:  2 eigenvalues not converged
     c_bands:  1 eigenvalues not converged
     c_bands:  5 eigenvalues not converged
     c_bands:  5 eigenvalues not converged
     c_bands:  3 eigenvalues not converged
     c_bands:  5 eigenvalues not converged
     c_bands:  5 eigenvalues not converged
     c_bands:  3 eigenvalues not converged
     c_bands:  1 eigenvalues not converged
     c_bands:  1 eigenvalues not converged
     c_bands:  2 eigenvalues not converged
     c_bands:  1 eigenvalues not converged
     c_bands:  3 eigenvalues not converged
     c_bands:  4 eigenvalues not converged
     c_bands:  4 eigenvalues not converged
     c_bands:  3 eigenvalues not converged
     c_bands:  5 eigenvalues not converged
     c_bands:  3 eigenvalues not converged
     c_bands:  1 eigenvalues not converged
     c_bands:  1 eigenvalues not converged
     ethr =  1.00E-05,  avg # of iterations = 28.5

     negative rho (up, down):  1.253E-01 6.340E-02

     total cpu time spent up to now is       12.6 secs

     total energy              =    -753.04203575 Ry
     estimated scf accuracy    <       1.79359345 Ry

     total magnetization       =     3.36 Bohr mag/cell
     absolute magnetization    =     3.65 Bohr mag/cell

     iteration #  2     ecut=   110.00 Ry     beta= 0.70
     Davidson diagonalization with overlap

---- Real-time Memory Report at c_bands before calling an iterative solver
            78 MiB given to the printing process from OS
             0 MiB allocation reported by mallinfo(arena+hblkhd)
        351848 MiB available memory on the node where the printing process lives
------------------
     ethr =  5.28E-03,  avg # of iterations =  2.1

     negative rho (up, down):  1.177E-02 3.176E-03

     total cpu time spent up to now is       13.9 secs

     total energy              =    -752.96231223 Ry
     estimated scf accuracy    <       0.85647879 Ry

     total magnetization       =     2.94 Bohr mag/cell
     absolute magnetization    =     3.25 Bohr mag/cell

     iteration #  3     ecut=   110.00 Ry     beta= 0.70
     Davidson diagonalization with overlap

---- Real-time Memory Report at c_bands before calling an iterative solver
            81 MiB given to the printing process from OS
             0 MiB allocation reported by mallinfo(arena+hblkhd)
        351837 MiB available memory on the node where the printing process lives
------------------
     ethr =  2.52E-03,  avg # of iterations =  2.0

     total cpu time spent up to now is       15.3 secs

     total energy              =    -753.44059570 Ry
     estimated scf accuracy    <       0.25918054 Ry

     total magnetization       =     3.32 Bohr mag/cell
     absolute magnetization    =     3.55 Bohr mag/cell

     iteration #  4     ecut=   110.00 Ry     beta= 0.70
     Davidson diagonalization with overlap

---- Real-time Memory Report at c_bands before calling an iterative solver
            82 MiB given to the printing process from OS
             0 MiB allocation reported by mallinfo(arena+hblkhd)
        351828 MiB available memory on the node where the printing process lives
------------------
     ethr =  7.62E-04,  avg # of iterations =  2.0

     total cpu time spent up to now is       16.6 secs

     total energy              =    -753.43136158 Ry
     estimated scf accuracy    <       0.05057148 Ry

     total magnetization       =     3.28 Bohr mag/cell
     absolute magnetization    =     3.58 Bohr mag/cell

     iteration #  5     ecut=   110.00 Ry     beta= 0.70
     Davidson diagonalization with overlap

---- Real-time Memory Report at c_bands before calling an iterative solver
            83 MiB given to the printing process from OS
             0 MiB allocation reported by mallinfo(arena+hblkhd)
        351819 MiB available memory on the node where the printing process lives
------------------
     ethr =  1.49E-04,  avg # of iterations =  4.2

     total cpu time spent up to now is       18.5 secs

     total energy              =    -753.44980462 Ry
     estimated scf accuracy    <       0.01895467 Ry

     total magnetization       =     3.28 Bohr mag/cell
     absolute magnetization    =     3.55 Bohr mag/cell

     iteration #  6     ecut=   110.00 Ry     beta= 0.70
     Davidson diagonalization with overlap

---- Real-time Memory Report at c_bands before calling an iterative solver
            83 MiB given to the printing process from OS
             0 MiB allocation reported by mallinfo(arena+hblkhd)
        351812 MiB available memory on the node where the printing process lives
------------------
     ethr =  5.57E-05,  avg # of iterations =  2.0

     total cpu time spent up to now is       19.9 secs

     total energy              =    -753.45359262 Ry
     estimated scf accuracy    <       0.00028386 Ry

     total magnetization       =     3.31 Bohr mag/cell
     absolute magnetization    =     3.60 Bohr mag/cell

     iteration #  7     ecut=   110.00 Ry     beta= 0.70
     Davidson diagonalization with overlap

---- Real-time Memory Report at c_bands before calling an iterative solver
            84 MiB given to the printing process from OS
             0 MiB allocation reported by mallinfo(arena+hblkhd)
        351804 MiB available memory on the node where the printing process lives
------------------
     c_bands:  1 eigenvalues not converged
     c_bands:  1 eigenvalues not converged
     c_bands:  1 eigenvalues not converged
     ethr =  8.35E-07,  avg # of iterations = 13.6

     total cpu time spent up to now is       23.8 secs

     total energy              =    -753.45507278 Ry
     estimated scf accuracy    <       0.00320503 Ry

     total magnetization       =     3.36 Bohr mag/cell
     absolute magnetization    =     3.67 Bohr mag/cell

     iteration #  8     ecut=   110.00 Ry     beta= 0.70
     Davidson diagonalization with overlap

---- Real-time Memory Report at c_bands before calling an iterative solver
            85 MiB given to the printing process from OS
             0 MiB allocation reported by mallinfo(arena+hblkhd)
        351794 MiB available memory on the node where the printing process lives
------------------
     ethr =  8.35E-07,  avg # of iterations =  3.1

     total cpu time spent up to now is       25.4 secs

     total energy              =    -753.45487241 Ry
     estimated scf accuracy    <       0.00134732 Ry

     total magnetization       =     3.36 Bohr mag/cell
     absolute magnetization    =     3.67 Bohr mag/cell

     iteration #  9     ecut=   110.00 Ry     beta= 0.70
     Davidson diagonalization with overlap

---- Real-time Memory Report at c_bands before calling an iterative solver
            86 MiB given to the printing process from OS
             0 MiB allocation reported by mallinfo(arena+hblkhd)
        351789 MiB available memory on the node where the printing process lives
------------------
     ethr =  8.35E-07,  avg # of iterations =  4.3

     total cpu time spent up to now is       27.2 secs

     total energy              =    -753.45491402 Ry
     estimated scf accuracy    <       0.00014323 Ry

     total magnetization       =     3.36 Bohr mag/cell
     absolute magnetization    =     3.68 Bohr mag/cell

     iteration # 10     ecut=   110.00 Ry     beta= 0.70
     Davidson diagonalization with overlap

---- Real-time Memory Report at c_bands before calling an iterative solver
            86 MiB given to the printing process from OS
             0 MiB allocation reported by mallinfo(arena+hblkhd)
        351782 MiB available memory on the node where the printing process lives
------------------
     ethr =  4.21E-07,  avg # of iterations =  4.6

     total cpu time spent up to now is       29.2 secs

     total energy              =    -753.45498917 Ry
     estimated scf accuracy    <       0.00009911 Ry

     total magnetization       =     3.36 Bohr mag/cell
     absolute magnetization    =     3.68 Bohr mag/cell

     iteration # 11     ecut=   110.00 Ry     beta= 0.70
     Davidson diagonalization with overlap

---- Real-time Memory Report at c_bands before calling an iterative solver
            87 MiB given to the printing process from OS
             0 MiB allocation reported by mallinfo(arena+hblkhd)
        351780 MiB available memory on the node where the printing process lives
------------------
     ethr =  2.92E-07,  avg # of iterations =  1.2

     total cpu time spent up to now is       30.4 secs

     total energy              =    -753.45497785 Ry
     estimated scf accuracy    <       0.00004587 Ry

     total magnetization       =     3.36 Bohr mag/cell
     absolute magnetization    =     3.68 Bohr mag/cell

     iteration # 12     ecut=   110.00 Ry     beta= 0.70
     Davidson diagonalization with overlap

---- Real-time Memory Report at c_bands before calling an iterative solver
            89 MiB given to the printing process from OS
             0 MiB allocation reported by mallinfo(arena+hblkhd)
        351777 MiB available memory on the node where the printing process lives
------------------
     ethr =  1.35E-07,  avg # of iterations =  2.1

     total cpu time spent up to now is       31.8 secs

     total energy              =    -753.45498132 Ry
     estimated scf accuracy    <       0.00000453 Ry

     total magnetization       =     3.36 Bohr mag/cell
     absolute magnetization    =     3.68 Bohr mag/cell

     iteration # 13     ecut=   110.00 Ry     beta= 0.70
     Davidson diagonalization with overlap

---- Real-time Memory Report at c_bands before calling an iterative solver
            89 MiB given to the printing process from OS
             0 MiB allocation reported by mallinfo(arena+hblkhd)
        351775 MiB available memory on the node where the printing process lives
------------------
     ethr =  1.33E-08,  avg # of iterations =  6.0

     total cpu time spent up to now is       34.0 secs

     total energy              =    -753.45498607 Ry
     estimated scf accuracy    <       0.00000860 Ry

     total magnetization       =     3.36 Bohr mag/cell
     absolute magnetization    =     3.69 Bohr mag/cell

     iteration # 14     ecut=   110.00 Ry     beta= 0.70
     Davidson diagonalization with overlap

---- Real-time Memory Report at c_bands before calling an iterative solver
            89 MiB given to the printing process from OS
             0 MiB allocation reported by mallinfo(arena+hblkhd)
        351773 MiB available memory on the node where the printing process lives
------------------
     ethr =  1.33E-08,  avg # of iterations =  2.0

     total cpu time spent up to now is       35.3 secs

     total energy              =    -753.45498692 Ry
     estimated scf accuracy    <       0.00000143 Ry

     total magnetization       =     3.36 Bohr mag/cell
     absolute magnetization    =     3.69 Bohr mag/cell

     iteration # 15     ecut=   110.00 Ry     beta= 0.70
     Davidson diagonalization with overlap

---- Real-time Memory Report at c_bands before calling an iterative solver
            89 MiB given to the printing process from OS
             0 MiB allocation reported by mallinfo(arena+hblkhd)
        351770 MiB available memory on the node where the printing process lives
------------------
     ethr =  4.22E-09,  avg # of iterations =  2.2

     total cpu time spent up to now is       36.7 secs

     total energy              =    -753.45498669 Ry
     estimated scf accuracy    <       0.00000145 Ry

     total magnetization       =     3.36 Bohr mag/cell
     absolute magnetization    =     3.69 Bohr mag/cell

     iteration # 16     ecut=   110.00 Ry     beta= 0.70
     Davidson diagonalization with overlap

---- Real-time Memory Report at c_bands before calling an iterative solver
            89 MiB given to the printing process from OS
             0 MiB allocation reported by mallinfo(arena+hblkhd)
        351770 MiB available memory on the node where the printing process lives
------------------
     ethr =  4.22E-09,  avg # of iterations =  2.3
 
     Magnetic moment per site  (integrated on atomic sphere of radius R)
     atom   1 (R=0.411)  charge= 15.6007  magn=  1.7550
     atom   2 (R=0.411)  charge= 15.6007  magn=  1.7550

     total cpu time spent up to now is       38.1 secs

     End of self-consistent calculation

 ------ SPIN UP ------------


          k = 0.0000 0.0000 0.0000 (  2875 PWs)   bands (ev):

   -77.7075 -77.6545 -41.1037 -40.8198 -40.8198 -40.7922 -40.7747 -40.7747
     9.4946  13.2783  15.7700  15.8155  15.8155  16.1198  16.1198  16.4576
    16.4576  17.5341  17.5341  18.1629  24.5732

     occupation numbers 
     1.0000   1.0000   1.0000   1.0000   1.0000   1.0000   1.0000   1.0000
     1.0000   1.0000   1.0000   1.0000   1.0000   1.0000   1.0000   1.0000
     1.0000   1.0000   1.0000   1.0000   0.0000

          k = 0.0000 0.0000 0.1028 (  2875 PWs)   bands (ev):

   -77.7039 -77.6580 -41.0831 -40.8168 -40.8168 -40.8133 -40.7777 -40.7777
     9.7684  13.2066  15.7011  15.7522  15.7522  16.0481  16.0481  16.6167
    16.6167  17.2117  17.5178  17.5178  26.0891

     occupation numbers 
     1.0000   1.0000   1.0000   1.0000   1.0000   1.0000   1.0000   1.0000
     1.0000   1.0000   1.0000   1.0000   1.0000   1.0000   1.0000   1.0000
     1.0000   1.0000   1.0000   1.0000   0.0000

          k = 0.0000 0.0000 0.2055 (  2882 PWs)   bands (ev):

   -77.6943 -77.6678 -41.0267 -40.8709 -40.8085 -40.8085 -40.7860 -40.7860
    10.5540  12.7631  15.5417  15.6985  15.6985  15.8899  15.8899  15.9085
    16.9304  16.9304  17.4314  17.4314  29.2843

     occupation numbers 
     1.0000   1.0000   1.0000   1.0000   1.0000   1.0000   1.0000   1.0000
     1.0000   1.0000   1.0000   1.0000   1.0000   1.0000   1.0000   1.0000
     1.0000   1.0000   1.0000   1.0000   0.0000

          k = 0.0000 0.0000-0.3083 (  2858 PWs)   bands (ev):

   -77.6810 -77.6810 -40.9490 -40.9490 -40.7973 -40.7973 -40.7973 -40.7973
    11.7011  11.7011  15.4656  15.4656  15.7491  15.7491  15.7491  15.7491
    17.2299  17.2299  17.2299  17.2299  33.0975

     occupation numbers 
     1.0000   1.0000   1.0000   1.0000   1.0000   1.0000   1.0000   1.0000
     1.0000   1.0000   1.0000   1.0000   1.0000   1.0000   1.0000   1.0000
     1.0000   1.0000   1.0000   1.0000   0.0000

          k = 0.0000 0.0962 0.0000 (  2857 PWs)   bands (ev):

   -77.7044 -77.6531 -41.0969 -40.8348 -40.8247 -40.7950 -40.7903 -40.7773
     9.7347  13.4226  15.5758  15.9276  15.9742  16.0726  16.2191  16.3030
    16.3880  16.7512  17.5633  19.2649  24.6141

     occupation numbers 
     1.0000   1.0000   1.0000   1.0000   1.0000   1.0000   1.0000   1.0000
     1.0000   1.0000   1.0000   1.0000   1.0000   1.0000   1.0000   1.0000
     1.0000   1.0000   1.0000   0.0000   0.0000

          k = 0.0000 0.0962 0.1028 (  2874 PWs)   bands (ev):

   -77.7010 -77.6565 -41.0775 -40.8314 -40.8215 -40.8202 -40.7885 -40.7804
    10.0043  13.3653  15.5742  15.8030  15.8478  15.8948  16.1415  16.4296
    16.5737  16.6560  17.5398  18.4889  26.1989

     occupation numbers 
     1.0000   1.0000   1.0000   1.0000   1.0000   1.0000   1.0000   1.0000
     1.0000   1.0000   1.0000   1.0000   1.0000   1.0000   1.0000   1.0000
     1.0000   1.0000   1.0000   0.0000   0.0000

          k = 0.0000 0.0962 0.2055 (  2876 PWs)   bands (ev):

   -77.6916 -77.6660 -41.0241 -40.8764 -40.8218 -40.8128 -40.7963 -40.7891
    10.7777  12.9502  15.4665  15.5220  15.6231  15.7873  15.9821  16.0452
    16.9056  16.9498  17.4373  17.7272  29.4379

     occupation numbers 
     1.0000   1.0000   1.0000   1.0000   1.0000   1.0000   1.0000   1.0000
     1.0000   1.0000   1.0000   1.0000   1.0000   1.0000   1.0000   1.0000
     1.0000   1.0000   1.0000   1.0000   0.0000

          k = 0.0000 0.0962-0.3083 (  2876 PWs)   bands (ev):

   -77.6788 -77.6788 -40.9507 -40.9507 -40.8089 -40.8089 -40.8010 -40.8010
    11.9064  11.9064  15.3228  15.3228  15.7620  15.7620  15.8393  15.8393
    17.2191  17.2192  17.3202  17.3202  33.2652

     occupation numbers 
     1.0000   1.0000   1.0000   1.0000   1.0000   1.0000   1.0000   1.0000
     1.0000   1.0000   1.0000   1.0000   1.0000   1.0000   1.0000   1.0000
     1.0000   1.0000   1.0000   1.0000   0.0000

          k = 0.0000 0.1925 0.0000 (  2865 PWs)   bands (ev):

   -77.6960 -77.6494 -41.0777 -40.8761 -40.8378 -40.8326 -40.8034 -40.7845
    10.4294  13.7797  15.3111  15.5824  15.8980  16.2163  16.2440  16.2723
    16.4026  16.4976  17.6253  20.8372  24.7577

     occupation numbers 
     1.0000   1.0000   1.0000   1.0000   1.0000   1.0000   1.0000   1.0000
     1.0000   1.0000   1.0000   1.0000   1.0000   1.0000   1.0000   1.0000
     1.0000   1.0000   1.0000   0.0000   0.0000

          k = 0.0000 0.1925 0.1028 (  2868 PWs)   bands (ev):

   -77.6929 -77.6525 -41.0619 -40.8713 -40.8509 -40.8343 -40.8060 -40.7880
    10.6834  13.7669  15.3145  15.3508  15.7801  16.0525  16.1594  16.3838
    16.5570  16.6447  17.5860  19.7049  26.5556

     occupation numbers 
     1.0000   1.0000   1.0000   1.0000   1.0000   1.0000   1.0000   1.0000
     1.0000   1.0000   1.0000   1.0000   1.0000   1.0000   1.0000   1.0000
     1.0000   1.0000   1.0000   0.0000   0.0000

          k = 0.0000 0.1925 0.2055 (  2876 PWs)   bands (ev):

   -77.6844 -77.6611 -41.0188 -40.8988 -40.8555 -40.8245 -40.8177 -40.7978
    11.4086  13.4352  14.9804  15.4053  15.5051  15.9850  16.0036  16.2374
    16.8806  17.0368  17.4500  18.3646  29.8972

     occupation numbers 
     1.0000   1.0000   1.0000   1.0000   1.0000   1.0000   1.0000   1.0000
     1.0000   1.0000   1.0000   1.0000   1.0000   1.0000   1.0000   1.0000
     1.0000   1.0000   1.0000   1.0000   0.0000

          k = 0.0000 0.1925-0.3083 (  2880 PWs)   bands (ev):

   -77.6727 -77.6727 -40.9593 -40.9593 -40.8363 -40.8363 -40.8112 -40.8112
    12.4601  12.4601  15.0965  15.0965  15.7052  15.7052  16.0797  16.0797
    17.2041  17.2041  17.5635  17.5635  33.7223

     occupation numbers 
     1.0000   1.0000   1.0000   1.0000   1.0000   1.0000   1.0000   1.0000
     1.0000   1.0000   1.0000   1.0000   1.0000   1.0000   1.0000   1.0000
     1.0000   1.0000   1.0000   1.0000   0.0000

          k = 0.0000 0.2887 0.0000 (  2876 PWs)   bands (ev):

   -77.6841 -77.6447 -41.0487 -40.9330 -40.8895 -40.8553 -40.8175 -40.7948
    11.4822  14.0682  14.8716  15.1487  15.8016  16.0097  16.2051  16.6944
    16.7028  16.8976  17.6835  22.6107  25.0366

     occupation numbers 
     1.0000   1.0000   1.0000   1.0000   1.0000   1.0000   1.0000   1.0000
     1.0000   1.0000   1.0000   1.0000   1.0000   1.0000   1.0000   1.0000
     1.0000   1.0000   1.0000   0.0000   0.0000

          k = 0.0000 0.2887 0.1028 (  2879 PWs)   bands (ev):

   -77.6815 -77.6474 -41.0415 -40.9239 -40.9031 -40.8512 -40.8204 -40.7988
    11.6943  14.1089  14.7307  15.1989  15.6528  16.0478  16.2092  16.7449
    16.8136  16.8536  17.6303  20.9713  27.1947

     occupation numbers 
     1.0000   1.0000   1.0000   1.0000   1.0000   1.0000   1.0000   1.0000
     1.0000   1.0000   1.0000   1.0000   1.0000   1.0000   1.0000   1.0000
     1.0000   1.0000   1.0000   0.0000   0.0000

          k = 0.0000 0.2887 0.2055 (  2886 PWs)   bands (ev):

   -77.6743 -77.6546 -41.0194 -40.9435 -40.8923 -40.8402 -40.8340 -40.8099
    12.2854  13.8688  14.6537  15.2283  15.5266  16.0544  16.1681  16.5971
    17.0015  17.1947  17.4759  19.1306  30.5315

     occupation numbers 
     1.0000   1.0000   1.0000   1.0000   1.0000   1.0000   1.0000   1.0000
     1.0000   1.0000   1.0000   1.0000   1.0000   1.0000   1.0000   1.0000
     1.0000   1.0000   1.0000   0.0000   0.0000

          k = 0.0000 0.2887-0.3083 (  2900 PWs)   bands (ev):

   -77.6644 -77.6644 -40.9844 -40.9844 -40.8603 -40.8603 -40.8251 -40.8251
    13.1045  13.1045  14.9449  14.9449  15.7634  15.7634  16.3656  16.3656
    17.2472  17.2472  17.9052  17.9052  32.6611

     occupation numbers 
     1.0000   1.0000   1.0000   1.0000   1.0000   1.0000   1.0000   1.0000
     1.0000   1.0000   1.0000   1.0000   1.0000   1.0000   1.0000   1.0000
     1.0000   1.0000   1.0000   1.0000   0.0000

          k = 0.0000 0.3849 0.0000 (  2880 PWs)   bands (ev):

   -77.6714 -77.6409 -41.0149 -40.9903 -40.9453 -40.8723 -40.8365 -40.8054
    12.6369  14.0049  14.3582  15.2537  15.8235  15.9209  16.0274  17.1918
    17.3311  17.3707  17.7231  24.5458  25.1203

     occupation numbers 
     1.0000   1.0000   1.0000   1.0000   1.0000   1.0000   1.0000   1.0000
     1.0000   1.0000   1.0000   1.0000   1.0000   1.0000   1.0000   1.0000
     1.0000   1.0000   1.0000   0.0000   0.0000

          k = 0.0000 0.3849 0.1028 (  2877 PWs)   bands (ev):

   -77.6693 -77.6430 -41.0321 -40.9686 -40.9499 -40.8679 -40.8364 -40.8099
    12.7375  14.0347  14.3910  15.1121  15.8446  15.9139  16.3684  17.2092
    17.2405  17.3077  17.6730  22.2042  27.2619

     occupation numbers 
     1.0000   1.0000   1.0000   1.0000   1.0000   1.0000   1.0000   1.0000
     1.0000   1.0000   1.0000   1.0000   1.0000   1.0000   1.0000   1.0000
     1.0000   1.0000   1.0000   0.0000   0.0000

          k = 0.0000 0.3849 0.2055 (  2885 PWs)   bands (ev):

   -77.6638 -77.6485 -41.0382 -40.9947 -40.9094 -40.8557 -40.8448 -40.8222
    13.0180  13.8533  14.5310  15.0297  15.9448  16.1690  16.6709  16.9293
    17.3120  17.4203  17.5617  20.0151  28.3569

     occupation numbers 
     1.0000   1.0000   1.0000   1.0000   1.0000   1.0000   1.0000   1.0000
     1.0000   1.0000   1.0000   1.0000   1.0000   1.0000   1.0000   1.0000
     1.0000   1.0000   1.0000   0.0000   0.0000

          k = 0.0000 0.3849-0.3083 (  2894 PWs)   bands (ev):

   -77.6561 -77.6561 -41.0238 -41.0238 -40.8698 -40.8698 -40.8389 -40.8389
    13.4248  13.4248  14.8190  14.8190  16.3530  16.3530  16.5376  16.5376
    17.4325  17.4325  18.3843  18.3843  29.4684

     occupation numbers 
     1.0000   1.0000   1.0000   1.0000   1.0000   1.0000   1.0000   1.0000
     1.0000   1.0000   1.0000   1.0000   1.0000   1.0000   1.0000   1.0000
     1.0000   1.0000   0.9825   0.9825   0.0000

          k = 0.0000 0.4811 0.0000 (  2896 PWs)   bands (ev):

   -77.6609 -77.6392 -41.0326 -40.9856 -40.9835 -40.8846 -40.8569 -40.8134
    13.4053  13.8201  14.0519  15.6040  15.6963  15.9016  16.1219  17.5574
    17.6897  17.7440  18.4702  23.3182  26.5461

     occupation numbers 
     1.0000   1.0000   1.0000   1.0000   1.0000   1.0000   1.0000   1.0000
     1.0000   1.0000   1.0000   1.0000   1.0000   1.0000   1.0000   1.0000
     1.0000   1.0000   0.0000   0.0000   0.0000

          k = 0.0000 0.4811 0.1028 (  2896 PWs)   bands (ev):

   -77.6594 -77.6407 -41.0509 -41.0024 -40.9522 -40.8799 -40.8531 -40.8182
    13.3008  13.8167  14.3568  15.0073  15.8067  16.1230  16.7183  17.4901
    17.5897  17.7542  18.3143  22.5451  25.8569

     occupation numbers 
     1.0000   1.0000   1.0000   1.0000   1.0000   1.0000   1.0000   1.0000
     1.0000   1.0000   1.0000   1.0000   1.0000   1.0000   1.0000   1.0000
     1.0000   1.0000   1.0000   0.0000   0.0000

          k = 0.0000 0.4811 0.2055 (  2888 PWs)   bands (ev):

   -77.6555 -77.6447 -41.0648 -41.0331 -40.9070 -40.8669 -40.8535 -40.8312
    13.2721  13.7434  14.5170  14.8372  16.1200  16.3674  17.0854  17.6206
    17.6580  17.7235  18.0125  20.8483  25.9921

     occupation numbers 
     1.0000   1.0000   1.0000   1.0000   1.0000   1.0000   1.0000   1.0000
     1.0000   1.0000   1.0000   1.0000   1.0000   1.0000   1.0000   1.0000
     1.0000   1.0000   1.0000   0.0000   0.0000

          k = 0.0000 0.4811-0.3083 (  2888 PWs)   bands (ev):

   -77.6501 -77.6501 -41.0579 -41.0579 -40.8712 -40.8712 -40.8491 -40.8491
    13.4549  13.4549  14.6991  14.6991  16.5798  16.5798  17.0649  17.0649
    17.6727  17.6727  19.2152  19.2152  26.7679

     occupation numbers 
     1.0000   1.0000   1.0000   1.0000   1.0000   1.0000   1.0000   1.0000
     1.0000   1.0000   1.0000   1.0000   1.0000   1.0000   1.0000   1.0000
     1.0000   1.0000   0.0000   0.0000   0.0000

          k = 0.0000-0.5774 0.0000 (  2886 PWs)   bands (ev):

   -77.6565 -77.6392 -41.0481 -41.0002 -40.9689 -40.8890 -40.8676 -40.8163
    13.6733  13.6745  13.9504  15.6513  15.8489  15.8561  16.1962  17.6896
    17.7503  17.8348  19.6194  21.6035  27.8447

     occupation numbers 
     1.0000   1.0000   1.0000   1.0000   1.0000   1.0000   1.0000   1.0000
     1.0000   1.0000   1.0000   1.0000   1.0000   1.0000   1.0000   1.0000
     1.0000   1.0000   0.0000   0.0000   0.0000

          k = 0.0000-0.5774 0.1028 (  2892 PWs)   bands (ev):

   -77.6554 -77.6403 -41.0627 -41.0162 -40.9443 -40.8842 -40.8616 -40.8212
    13.4042  13.7230  14.3911  14.9794  15.7675  16.2083  16.9163  17.5472
    17.7316  17.8273  19.4180  21.4319  26.9747

     occupation numbers 
     1.0000   1.0000   1.0000   1.0000   1.0000   1.0000   1.0000   1.0000
     1.0000   1.0000   1.0000   1.0000   1.0000   1.0000   1.0000   1.0000
     1.0000   1.0000   0.0000   0.0000   0.0000

          k = 0.0000-0.5774 0.2055 (  2894 PWs)   bands (ev):

   -77.6522 -77.6435 -41.0765 -41.0471 -40.9030 -40.8709 -40.8578 -40.8346
    13.2943  13.7004  14.5420  14.7488  16.0975  16.5080  17.1180  17.7495
    17.7732  17.8065  19.1117  20.8499  25.9181

     occupation numbers 
     1.0000   1.0000   1.0000   1.0000   1.0000   1.0000   1.0000   1.0000
     1.0000   1.0000   1.0000   1.0000   1.0000   1.0000   1.0000   1.0000
     1.0000   1.0000   0.0000   0.0000   0.0000

          k = 0.0000-0.5774-0.3083 (  2892 PWs)   bands (ev):

   -77.6478 -77.6478 -41.0710 -41.0710 -40.8711 -40.8711 -40.8528 -40.8528
    13.4398  13.4398  14.6521  14.6521  16.5830  16.5830  17.3011  17.3011
    17.7779  17.7779  19.8706  19.8706  25.5143

     occupation numbers 
     1.0000   1.0000   1.0000   1.0000   1.0000   1.0000   1.0000   1.0000
     1.0000   1.0000   1.0000   1.0000   1.0000   1.0000   1.0000   1.0000
     1.0000   1.0000   0.0000   0.0000   0.0000

          k = 0.0833 0.1443 0.0000 (  2862 PWs)   bands (ev):

   -77.6987 -77.6505 -41.0839 -40.8605 -40.8400 -40.8135 -40.8006 -40.7841
    10.2029  13.6789  15.3676  15.8245  15.9683  16.1247  16.1564  16.1864
    16.4375  16.5227  17.5990  20.3965  24.7082

     occupation numbers 
     1.0000   1.0000   1.0000   1.0000   1.0000   1.0000   1.0000   1.0000
     1.0000   1.0000   1.0000   1.0000   1.0000   1.0000   1.0000   1.0000
     1.0000   1.0000   1.0000   0.0000   0.0000

          k = 0.0833 0.1443 0.1028 (  2866 PWs)   bands (ev):

   -77.6955 -77.6538 -41.0669 -40.8559 -40.8443 -40.8284 -40.8000 -40.7875
    10.4628  13.6517  15.3935  15.4982  15.8234  16.0119  16.1363  16.3012
    16.5781  16.6334  17.5675  19.3749  26.4342

     occupation numbers 
     1.0000   1.0000   1.0000   1.0000   1.0000   1.0000   1.0000   1.0000
     1.0000   1.0000   1.0000   1.0000   1.0000   1.0000   1.0000   1.0000
     1.0000   1.0000   1.0000   0.0000   0.0000

          k = 0.0833 0.1443 0.2055 (  2883 PWs)   bands (ev):

   -77.6867 -77.6626 -41.0201 -40.8904 -40.8437 -40.8250 -40.8080 -40.7967
    11.2067  13.2926  15.1018  15.4519  15.5162  15.9379  16.0006  16.1581
    16.9091  16.9832  17.4492  18.1799  29.7471

     occupation numbers 
     1.0000   1.0000   1.0000   1.0000   1.0000   1.0000   1.0000   1.0000
     1.0000   1.0000   1.0000   1.0000   1.0000   1.0000   1.0000   1.0000
     1.0000   1.0000   1.0000   1.0000   0.0000

          k = 0.0833 0.1443-0.3083 (  2878 PWs)   bands (ev):

   -77.6747 -77.6747 -40.9557 -40.9557 -40.8281 -40.8281 -40.8084 -40.8084
    12.2895  12.2895  15.1539  15.1539  15.7060  15.7060  16.0166  16.0166
    17.2093  17.2093  17.4875  17.4875  33.5881

     occupation numbers 
     1.0000   1.0000   1.0000   1.0000   1.0000   1.0000   1.0000   1.0000
     1.0000   1.0000   1.0000   1.0000   1.0000   1.0000   1.0000   1.0000
     1.0000   1.0000   1.0000   1.0000   0.0000

          k = 0.0833 0.2406 0.0000 (  2874 PWs)   bands (ev):

   -77.6886 -77.6464 -41.0597 -40.9059 -40.8784 -40.8407 -40.8119 -40.7958
    11.0849  14.0456  15.1021  15.1322  15.8454  15.9649  16.3743  16.3769
    16.5734  16.8472  17.6426  21.9706  24.9403

     occupation numbers 
     1.0000   1.0000   1.0000   1.0000   1.0000   1.0000   1.0000   1.0000
     1.0000   1.0000   1.0000   1.0000   1.0000   1.0000   1.0000   1.0000
     1.0000   1.0000   1.0000   0.0000   0.0000

          k = 0.0833 0.2406 0.1028 (  2874 PWs)   bands (ev):

   -77.6857 -77.6492 -41.0485 -40.8995 -40.8871 -40.8453 -40.8130 -40.7994
    11.3181  14.0772  14.9254  15.1507  15.7265  15.9873  16.1925  16.5024
    16.7608  16.8276  17.6060  20.5348  26.9535

     occupation numbers 
     1.0000   1.0000   1.0000   1.0000   1.0000   1.0000   1.0000   1.0000
     1.0000   1.0000   1.0000   1.0000   1.0000   1.0000   1.0000   1.0000
     1.0000   1.0000   1.0000   0.0000   0.0000

          k = 0.0833 0.2406 0.2055 (  2876 PWs)   bands (ev):

   -77.6780 -77.6569 -41.0170 -40.9247 -40.8771 -40.8439 -40.8215 -40.8091
    11.9772  13.8076  14.7354  15.2538  15.4666  15.8830  16.1466  16.4706
    16.9987  17.1098  17.4882  18.8643  30.3506

     occupation numbers 
     1.0000   1.0000   1.0000   1.0000   1.0000   1.0000   1.0000   1.0000
     1.0000   1.0000   1.0000   1.0000   1.0000   1.0000   1.0000   1.0000
     1.0000   1.0000   1.0000   0.0000   0.0000

          k = 0.0833 0.2406-0.3083 (  2888 PWs)   bands (ev):

   -77.6675 -77.6675 -40.9721 -40.9721 -40.8535 -40.8535 -40.8212 -40.8212
    12.9173  12.9173  15.0001  15.0001  15.6034  15.6034  16.2906  16.2906
    17.2538  17.2538  17.7826  17.7826  33.9551

     occupation numbers 
     1.0000   1.0000   1.0000   1.0000   1.0000   1.0000   1.0000   1.0000
     1.0000   1.0000   1.0000   1.0000   1.0000   1.0000   1.0000   1.0000
     1.0000   1.0000   1.0000   1.0000   0.0000

          k = 0.0833 0.3368 0.0000 (  2881 PWs)   bands (ev):

   -77.6762 -77.6422 -41.0281 -40.9617 -40.9263 -40.8656 -40.8287 -40.8085
    12.2246  14.1685  14.5697  15.0324  15.7797  15.8519  16.1796  16.7769
    17.0679  17.4033  17.6791  23.7876  25.2953

     occupation numbers 
     1.0000   1.0000   1.0000   1.0000   1.0000   1.0000   1.0000   1.0000
     1.0000   1.0000   1.0000   1.0000   1.0000   1.0000   1.0000   1.0000
     1.0000   1.0000   1.0000   0.0000   0.0000

          k = 0.0833 0.3368 0.1028 (  2878 PWs)   bands (ev):

   -77.6739 -77.6445 -41.0307 -40.9502 -40.9319 -40.8656 -40.8288 -40.8118
    12.3885  14.2314  14.4786  15.0790  15.6416  16.0043  16.1574  16.8016
    17.1547  17.2678  17.6889  21.7881  27.6893

     occupation numbers 
     1.0000   1.0000   1.0000   1.0000   1.0000   1.0000   1.0000   1.0000
     1.0000   1.0000   1.0000   1.0000   1.0000   1.0000   1.0000   1.0000
     1.0000   1.0000   1.0000   0.0000   0.0000

          k = 0.0833 0.3368 0.2055 (  2882 PWs)   bands (ev):

   -77.6677 -77.6507 -41.0254 -40.9725 -40.9034 -40.8603 -40.8362 -40.8212
    12.8319  13.9896  14.5859  15.1497  15.5573  16.0257  16.2152  16.7914
    17.2218  17.3821  17.6579  19.7149  29.9876

     occupation numbers 
     1.0000   1.0000   1.0000   1.0000   1.0000   1.0000   1.0000   1.0000
     1.0000   1.0000   1.0000   1.0000   1.0000   1.0000   1.0000   1.0000
     1.0000   1.0000   1.0000   0.0000   0.0000

          k = 0.0833 0.3368-0.3083 (  2890 PWs)   bands (ev):

   -77.6592 -77.6592 -41.0043 -41.0043 -40.8703 -40.8703 -40.8350 -40.8350
    13.4232  13.4232  14.9210  14.9210  15.7739  15.7739  16.4796  16.4796
    17.4516  17.4516  18.2383  18.2383  31.1735

     occupation numbers 
     1.0000   1.0000   1.0000   1.0000   1.0000   1.0000   1.0000   1.0000
     1.0000   1.0000   1.0000   1.0000   1.0000   1.0000   1.0000   1.0000
     1.0000   1.0000   1.0000   1.0000   0.0000

          k = 0.0833 0.4330 0.0000 (  2888 PWs)   bands (ev):

   -77.6644 -77.6396 -41.0110 -40.9945 -40.9683 -40.8852 -40.8494 -40.8193
    13.2353  13.9982  14.1899  15.2548  15.6617  15.9848  16.0405  17.2802
    17.4895  17.7015  18.1885  24.6406  25.7637

     occupation numbers 
     1.0000   1.0000   1.0000   1.0000   1.0000   1.0000   1.0000   1.0000
     1.0000   1.0000   1.0000   1.0000   1.0000   1.0000   1.0000   1.0000
     1.0000   1.0000   1.0000   0.0000   0.0000

          k = 0.0833 0.4330 0.1028 (  2886 PWs)   bands (ev):

   -77.6627 -77.6413 -41.0359 -40.9872 -40.9531 -40.8822 -40.8469 -40.8225
    13.2317  14.0201  14.3374  15.0181  15.7390  16.0613  16.3267  17.2294
    17.5248  17.5488  18.1883  22.8627  26.3857

     occupation numbers 
     1.0000   1.0000   1.0000   1.0000   1.0000   1.0000   1.0000   1.0000
     1.0000   1.0000   1.0000   1.0000   1.0000   1.0000   1.0000   1.0000
     1.0000   1.0000   1.0000   0.0000   0.0000

          k = 0.0833 0.4330 0.2055 (  2886 PWs)   bands (ev):

   -77.6582 -77.6458 -41.0488 -41.0154 -40.9106 -40.8717 -40.8507 -40.8305
    13.3176  13.8899  14.5218  14.9882  15.8455  16.2650  16.7072  16.9762
    17.4003  17.7032  18.2543  20.7331  27.0939

     occupation numbers 
     1.0000   1.0000   1.0000   1.0000   1.0000   1.0000   1.0000   1.0000
     1.0000   1.0000   1.0000   1.0000   1.0000   1.0000   1.0000   1.0000
     1.0000   1.0000   1.0000   0.0000   0.0000

          k = 0.0833 0.4330-0.3083 (  2882 PWs)   bands (ev):

   -77.6520 -77.6520 -41.0404 -41.0404 -40.8784 -40.8784 -40.8449 -40.8449
    13.5611  13.5611  14.8060  14.8060  16.2767  16.2767  16.6564  16.6564
    17.6543  17.6543  19.0794  19.0794  28.1299

     occupation numbers 
     1.0000   1.0000   1.0000   1.0000   1.0000   1.0000   1.0000   1.0000
     1.0000   1.0000   1.0000   1.0000   1.0000   1.0000   1.0000   1.0000
     1.0000   1.0000   0.0000   0.0000   0.0000

          k = 0.0833 0.5292 0.0000 (  2900 PWs)   bands (ev):

   -77.6566 -77.6391 -41.0397 -40.9926 -40.9691 -40.8960 -40.8674 -40.8257
    13.6930  13.8365  14.0003  15.6123  15.6182  15.8526  16.1937  17.6422
    17.7111  17.7148  19.4512  22.3661  27.6523

     occupation numbers 
     1.0000   1.0000   1.0000   1.0000   1.0000   1.0000   1.0000   1.0000
     1.0000   1.0000   1.0000   1.0000   1.0000   1.0000   1.0000   1.0000
     1.0000   1.0000   0.0000   0.0000   0.0000

          k = 0.0833 0.5292 0.1028 (  2887 PWs)   bands (ev):

   -77.6554 -77.6403 -41.0545 -41.0090 -40.9455 -40.8900 -40.8625 -40.8288
    13.4830  13.8518  14.4221  14.9621  15.6680  16.2488  16.5866  17.4947
    17.6664  17.7449  19.3877  22.1114  26.3864

     occupation numbers 
     1.0000   1.0000   1.0000   1.0000   1.0000   1.0000   1.0000   1.0000
     1.0000   1.0000   1.0000   1.0000   1.0000   1.0000   1.0000   1.0000
     1.0000   1.0000   0.0000   0.0000   0.0000

          k = 0.0833 0.5292 0.2055 (  2889 PWs)   bands (ev):

   -77.6522 -77.6435 -41.0684 -41.0398 -40.9098 -40.8732 -40.8631 -40.8359
    13.3959  13.8247  14.5497  14.8537  15.8386  16.5656  16.9674  17.2212
    17.6264  17.8150  19.4356  21.2712  25.6579

     occupation numbers 
     1.0000   1.0000   1.0000   1.0000   1.0000   1.0000   1.0000   1.0000
     1.0000   1.0000   1.0000   1.0000   1.0000   1.0000   1.0000   1.0000
     1.0000   1.0000   0.0000   0.0000   0.0000

          k = 0.0833 0.5292-0.3083 (  2884 PWs)   bands (ev):

   -77.6478 -77.6478 -41.0633 -41.0633 -40.8826 -40.8826 -40.8492 -40.8492
    13.5510  13.5510  14.7231  14.7231  16.3752  16.3752  17.0832  17.0832
    17.6946  17.6946  20.1640  20.1640  25.9318

     occupation numbers 
     1.0000   1.0000   1.0000   1.0000   1.0000   1.0000   1.0000   1.0000
     1.0000   1.0000   1.0000   1.0000   1.0000   1.0000   1.0000   1.0000
     1.0000   1.0000   0.0000   0.0000   0.0000

          k = 0.1667 0.2887 0.0000 (  2880 PWs)   bands (ev):

   -77.6779 -77.6427 -41.0327 -40.9391 -40.9302 -40.8579 -40.8261 -40.8162
    12.0790  14.3426  14.6814  14.8139  15.7087  15.8533  16.2744  16.5409
    17.0555  17.4252  17.6407  23.5313  25.3320

     occupation numbers 
     1.0000   1.0000   1.0000   1.0000   1.0000   1.0000   1.0000   1.0000
     1.0000   1.0000   1.0000   1.0000   1.0000   1.0000   1.0000   1.0000
     1.0000   1.0000   1.0000   0.0000   0.0000

          k = 0.1667 0.2887 0.1028 (  2886 PWs)   bands (ev):

   -77.6755 -77.6450 -41.0310 -40.9376 -40.9254 -40.8659 -40.8223 -40.8200
    12.2642  14.4361  14.5412  14.8656  15.6768  15.8633  16.1581  16.6252
    17.1699  17.2582  17.7019  21.6505  27.6813

     occupation numbers 
     1.0000   1.0000   1.0000   1.0000   1.0000   1.0000   1.0000   1.0000
     1.0000   1.0000   1.0000   1.0000   1.0000   1.0000   1.0000   1.0000
     1.0000   1.0000   1.0000   0.0000   0.0000

          k = 0.1667 0.2887 0.2055 (  2884 PWs)   bands (ev):

   -77.6691 -77.6515 -41.0200 -40.9629 -40.8954 -40.8693 -40.8292 -40.8256
    12.7716  14.1076  14.6906  15.0149  15.5024  15.7304  16.1571  16.7303
    17.2304  17.3650  17.7329  19.6380  31.0241

     occupation numbers 
     1.0000   1.0000   1.0000   1.0000   1.0000   1.0000   1.0000   1.0000
     1.0000   1.0000   1.0000   1.0000   1.0000   1.0000   1.0000   1.0000
     1.0000   1.0000   1.0000   0.0000   0.0000

          k = 0.1667 0.2887-0.3083 (  2884 PWs)   bands (ev):

   -77.6603 -77.6603 -40.9953 -40.9953 -40.8714 -40.8714 -40.8346 -40.8346
    13.4561  13.4561  15.0061  15.0061  15.4531  15.4531  16.4298  16.4298
    17.5002  17.5002  18.2183  18.2183  32.8954

     occupation numbers 
     1.0000   1.0000   1.0000   1.0000   1.0000   1.0000   1.0000   1.0000
     1.0000   1.0000   1.0000   1.0000   1.0000   1.0000   1.0000   1.0000
     1.0000   1.0000   1.0000   1.0000   0.0000

          k = 0.1667 0.3849 0.0000 (  2887 PWs)   bands (ev):

   -77.6663 -77.6399 -41.0005 -40.9829 -40.9623 -40.8843 -40.8454 -40.8357
    13.1718  14.3293  14.3303  14.7866  15.5539  15.9931  16.0835  16.8472
    17.4883  17.6354  18.2164  25.3711  25.7263

     occupation numbers 
     1.0000   1.0000   1.0000   1.0000   1.0000   1.0000   1.0000   1.0000
     1.0000   1.0000   1.0000   1.0000   1.0000   1.0000   1.0000   1.0000
     1.0000   1.0000   1.0000   0.0000   0.0000

          k = 0.1667 0.3849 0.1028 (  2891 PWs)   bands (ev):

   -77.6646 -77.6417 -41.0211 -40.9795 -40.9421 -40.8910 -40.8437 -40.8337
    13.2510  14.2620  14.4283  14.8661  15.6052  15.9771  16.0408  16.8811
    17.4274  17.5742  18.3003  22.9357  27.8251

     occupation numbers 
     1.0000   1.0000   1.0000   1.0000   1.0000   1.0000   1.0000   1.0000
     1.0000   1.0000   1.0000   1.0000   1.0000   1.0000   1.0000   1.0000
     1.0000   1.0000   1.0000   0.0000   0.0000

          k = 0.1667 0.3849 0.2055 (  2883 PWs)   bands (ev):

   -77.6597 -77.6465 -41.0320 -41.0004 -40.9074 -40.8896 -40.8499 -40.8319
    13.4659  14.0627  14.6691  15.0919  15.5267  15.8172  16.1757  16.8502
    17.3360  17.7206  18.4800  20.7474  28.7938

     occupation numbers 
     1.0000   1.0000   1.0000   1.0000   1.0000   1.0000   1.0000   1.0000
     1.0000   1.0000   1.0000   1.0000   1.0000   1.0000   1.0000   1.0000
     1.0000   1.0000   0.0000   0.0000   0.0000

          k = 0.1667 0.3849-0.3083 (  2876 PWs)   bands (ev):

   -77.6531 -77.6531 -41.0231 -41.0231 -40.8893 -40.8893 -40.8431 -40.8431
    13.7629  13.7629  15.0024  15.0024  15.6063  15.6063  16.4445  16.4445
    17.7059  17.7059  19.1678  19.1678  29.9374

     occupation numbers 
     1.0000   1.0000   1.0000   1.0000   1.0000   1.0000   1.0000   1.0000
     1.0000   1.0000   1.0000   1.0000   1.0000   1.0000   1.0000   1.0000
     1.0000   1.0000   0.0000   0.0000   0.0000

          k = 0.1667 0.4811 0.0000 (  2893 PWs)   bands (ev):

   -77.6566 -77.6391 -41.0179 -40.9783 -40.9694 -40.9092 -40.8671 -40.8491
    13.8686  14.1127  14.1332  15.0889  15.5128  15.8743  16.1910  17.2536
    17.6307  17.7004  19.3787  24.0163  27.3674

     occupation numbers 
     1.0000   1.0000   1.0000   1.0000   1.0000   1.0000   1.0000   1.0000
     1.0000   1.0000   1.0000   1.0000   1.0000   1.0000   1.0000   1.0000
     1.0000   1.0000   0.0000   0.0000   0.0000

          k = 0.1667 0.4811 0.1028 (  2889 PWs)   bands (ev):

   -77.6554 -77.6403 -41.0331 -40.9974 -40.9446 -40.9055 -40.8653 -40.8449
    13.7170  14.1931  14.3697  14.9076  15.5634  16.0104  16.2622  17.2382
    17.4416  17.7603  19.4605  23.4676  26.1913

     occupation numbers 
     1.0000   1.0000   1.0000   1.0000   1.0000   1.0000   1.0000   1.0000
     1.0000   1.0000   1.0000   1.0000   1.0000   1.0000   1.0000   1.0000
     1.0000   1.0000   0.0000   0.0000   0.0000

          k = 0.1667 0.4811 0.2055 (  2888 PWs)   bands (ev):

   -77.6522 -77.6435 -41.0484 -41.0244 -40.9234 -40.8916 -40.8647 -40.8381
    13.6782  14.1112  14.5665  15.0982  15.4608  16.1361  16.4796  16.9345
    17.4229  17.8340  19.7697  21.9601  26.2711

     occupation numbers 
     1.0000   1.0000   1.0000   1.0000   1.0000   1.0000   1.0000   1.0000
     1.0000   1.0000   1.0000   1.0000   1.0000   1.0000   1.0000   1.0000
     1.0000   1.0000   0.0000   0.0000   0.0000

          k = 0.1667 0.4811-0.3083 (  2886 PWs)   bands (ev):

   -77.6478 -77.6478 -41.0451 -41.0451 -40.9042 -40.9042 -40.8459 -40.8459
    13.8325  13.8325  14.9028  14.9028  15.8633  15.8633  16.6304  16.6304
    17.7108  17.7108  20.5691  20.5691  27.1455

     occupation numbers 
     1.0000   1.0000   1.0000   1.0000   1.0000   1.0000   1.0000   1.0000
     1.0000   1.0000   1.0000   1.0000   1.0000   1.0000   1.0000   1.0000
     1.0000   1.0000   0.0000   0.0000   0.0000

          k = 0.1667 0.5774 0.0000 (  2896 PWs)   bands (ev):

   -77.6523 -77.6396 -41.0306 -40.9831 -40.9536 -40.9195 -40.8793 -40.8538
    14.0373  14.0401  14.0420  15.3060  15.5338  15.7622  16.2757  17.5296
    17.6287  17.6750  20.6360  22.1811  28.5798

     occupation numbers 
     1.0000   1.0000   1.0000   1.0000   1.0000   1.0000   1.0000   1.0000
     1.0000   1.0000   1.0000   1.0000   1.0000   1.0000   1.0000   1.0000
     1.0000   1.0000   0.0000   0.0000   0.0000

          k = 0.1667 0.5774 0.1028 (  2890 PWs)   bands (ev):

   -77.6514 -77.6404 -41.0424 -41.0006 -40.9468 -40.9019 -40.8786 -40.8496
    13.7432  14.1102  14.5330  14.8876  15.4865  16.1303  16.3519  17.4136
    17.5261  17.7254  20.7342  22.1338  27.4860

     occupation numbers 
     1.0000   1.0000   1.0000   1.0000   1.0000   1.0000   1.0000   1.0000
     1.0000   1.0000   1.0000   1.0000   1.0000   1.0000   1.0000   1.0000
     1.0000   1.0000   0.0000   0.0000   0.0000

          k = 0.1667 0.5774 0.2055 (  2900 PWs)   bands (ev):

   -77.6491 -77.6427 -41.0563 -41.0318 -40.9308 -40.8901 -40.8696 -40.8411
    13.6769  14.1244  14.6025  15.0551  15.3788  16.3331  16.6002  17.0035
    17.5415  17.7632  21.0384  21.9423  26.2218

     occupation numbers 
     1.0000   1.0000   1.0000   1.0000   1.0000   1.0000   1.0000   1.0000
     1.0000   1.0000   1.0000   1.0000   1.0000   1.0000   1.0000   1.0000
     1.0000   1.0000   0.0000   0.0000   0.0000

          k = 0.1667 0.5774-0.3083 (  2894 PWs)   bands (ev):

   -77.6459 -77.6459 -41.0534 -41.0534 -40.9100 -40.9100 -40.8463 -40.8463
    13.8362  13.8362  14.8632  14.8632  15.9011  15.9011  16.8326  16.8326
    17.6502  17.6502  21.5243  21.5243  25.7227

     occupation numbers 
     1.0000   1.0000   1.0000   1.0000   1.0000   1.0000   1.0000   1.0000
     1.0000   1.0000   1.0000   1.0000   1.0000   1.0000   1.0000   1.0000
     1.0000   1.0000   0.0000   0.0000   0.0000

          k = 0.2500 0.4330 0.0000 (  2894 PWs)   bands (ev):

   -77.6566 -77.6391 -40.9988 -40.9791 -40.9696 -40.9103 -40.8669 -40.8666
    13.9974  14.1775  14.5239  14.5699  15.4448  15.8932  16.1992  17.0240
    17.5893  17.7048  19.3873  25.7595  26.5320

     occupation numbers 
     1.0000   1.0000   1.0000   1.0000   1.0000   1.0000   1.0000   1.0000
     1.0000   1.0000   1.0000   1.0000   1.0000   1.0000   1.0000   1.0000
     1.0000   1.0000   0.0000   0.0000   0.0000

          k = 0.2500 0.4330 0.1028 (  2895 PWs)   bands (ev):

   -77.6554 -77.6403 -41.0123 -41.0030 -40.9310 -40.9236 -40.8692 -40.8519
    14.0022  14.1300  14.5810  14.7002  15.5943  15.7513  16.1936  17.0596
    17.3891  17.7676  19.5100  24.2363  26.8113

     occupation numbers 
     1.0000   1.0000   1.0000   1.0000   1.0000   1.0000   1.0000   1.0000
     1.0000   1.0000   1.0000   1.0000   1.0000   1.0000   1.0000   1.0000
     1.0000   1.0000   0.0000   0.0000   0.0000

          k = 0.2500 0.4330 0.2055 (  2893 PWs)   bands (ev):

   -77.6522 -77.6435 -41.0334 -41.0186 -40.9280 -40.9074 -40.8644 -40.8391
    14.0044  14.0758  14.7423  15.0762  15.4338  15.7058  16.2274  16.8479
    17.3917  17.8413  19.8820  22.2302  27.5849

     occupation numbers 
     1.0000   1.0000   1.0000   1.0000   1.0000   1.0000   1.0000   1.0000
     1.0000   1.0000   1.0000   1.0000   1.0000   1.0000   1.0000   1.0000
     1.0000   1.0000   0.0000   0.0000   0.0000

          k = 0.2500 0.4330-0.3083 (  2888 PWs)   bands (ev):

   -77.6478 -77.6478 -41.0339 -41.0339 -40.9165 -40.9165 -40.8449 -40.8449
    14.0302  14.0302  15.0539  15.0539  15.4956  15.4956  16.4312  16.4312
    17.7299  17.7299  20.7211  20.7211  28.6001

     occupation numbers 
     1.0000   1.0000   1.0000   1.0000   1.0000   1.0000   1.0000   1.0000
     1.0000   1.0000   1.0000   1.0000   1.0000   1.0000   1.0000   1.0000
     1.0000   1.0000   0.0000   0.0000   0.0000

          k = 0.2500 0.5292 0.0000 (  2904 PWs)   bands (ev):

   -77.6493 -77.6403 -41.0110 -40.9706 -40.9419 -40.9385 -40.8891 -40.8863
    14.1073  14.2907  14.3899  14.8771  15.4624  15.6949  16.3639  17.2976
    17.5621  17.6444  21.0313  23.5702  25.8846

     occupation numbers 
     1.0000   1.0000   1.0000   1.0000   1.0000   1.0000   1.0000   1.0000
     1.0000   1.0000   1.0000   1.0000   1.0000   1.0000   1.0000   1.0000
     1.0000   1.0000   0.0000   0.0000   0.0000

          k = 0.2500 0.5292 0.1028 (  2902 PWs)   bands (ev):

   -77.6487 -77.6409 -41.0178 -40.9933 -40.9572 -40.9110 -40.8915 -40.8665
    14.0503  14.4160  14.5100  14.7743  15.4902  15.6998  16.3710  17.3019
    17.3675  17.6878  21.2160  23.5908  25.9226

     occupation numbers 
     1.0000   1.0000   1.0000   1.0000   1.0000   1.0000   1.0000   1.0000
     1.0000   1.0000   1.0000   1.0000   1.0000   1.0000   1.0000   1.0000
     1.0000   1.0000   0.0000   0.0000   0.0000

          k = 0.2500 0.5292 0.2055 (  2897 PWs)   bands (ev):

   -77.6471 -77.6425 -41.0338 -41.0199 -40.9555 -40.9171 -40.8646 -40.8461
    14.0659  14.4118  14.6684  14.9565  15.3593  15.7219  16.4177  16.8738
    17.4614  17.7283  21.7076  23.3032  25.8403

     occupation numbers 
     1.0000   1.0000   1.0000   1.0000   1.0000   1.0000   1.0000   1.0000
     1.0000   1.0000   1.0000   1.0000   1.0000   1.0000   1.0000   1.0000
     1.0000   1.0000   0.0000   0.0000   0.0000

          k = 0.2500 0.5292-0.3083 (  2890 PWs)   bands (ev):

   -77.6448 -77.6448 -41.0364 -41.0364 -40.9374 -40.9374 -40.8446 -40.8446
    14.1999  14.1999  14.9523  14.9523  15.5015  15.5015  16.5437  16.5437
    17.6420  17.6420  22.4699  22.4699  26.3770

     occupation numbers 
     1.0000   1.0000   1.0000   1.0000   1.0000   1.0000   1.0000   1.0000
     1.0000   1.0000   1.0000   1.0000   1.0000   1.0000   1.0000   1.0000
     1.0000   1.0000   0.0000   0.0000   0.0000

          k = 0.3333 0.5774 0.0000 (  2898 PWs)   bands (ev):

   -77.6437 -77.6437 -41.0020 -40.9569 -40.9569 -40.9145 -40.9145 -40.9095
    14.1169  14.4848  14.4848  14.7634  15.5314  15.5314  16.4610  17.4417
    17.4417  17.5348  22.7667  23.5661  23.5661

     occupation numbers 
     1.0000   1.0000   1.0000   1.0000   1.0000   1.0000   1.0000   1.0000
     1.0000   1.0000   1.0000   1.0000   1.0000   1.0000   1.0000   1.0000
     1.0000   1.0000   0.0000   0.0000   0.0000

          k = 0.3333 0.5774 0.1028 (  2907 PWs)   bands (ev):

   -77.6437 -77.6437 -40.9959 -40.9849 -40.9849 -40.9157 -40.8864 -40.8864
    14.2096  14.5053  14.5053  14.7818  15.5082  15.5082  16.4341  17.3078
    17.4820  17.4820  23.1593  23.6409  23.6409

     occupation numbers 
[...]
    19.6718  19.7307  20.8357  23.3105  28.1682

     occupation numbers 
     1.0000   1.0000   1.0000   1.0000   1.0000   1.0000   1.0000   1.0000
     1.0000   1.0000   1.0000   1.0000   1.0000   1.0000   1.0000   0.0000
     0.0000   0.0000   0.0000   0.0000   0.0000

          k = 0.0833 0.5292 0.1028 (  2887 PWs)   bands (ev):

   -75.5061 -75.4898 -38.9875 -38.9387 -38.8547 -38.8088 -38.7636 -38.7416
    14.4425  15.0674  15.6053  16.1285  17.3564  17.8401  17.8872  19.4626
    19.6185  19.7109  20.7019  22.9789  27.1183

     occupation numbers 
     1.0000   1.0000   1.0000   1.0000   1.0000   1.0000   1.0000   1.0000
     1.0000   1.0000   1.0000   1.0000   1.0000   1.0000   1.0000   0.0000
     0.0000   0.0000   0.0000   0.0000   0.0000

          k = 0.0833 0.5292 0.2055 (  2889 PWs)   bands (ev):

   -75.5026 -75.4932 -39.0011 -38.9706 -38.8206 -38.7865 -38.7716 -38.7445
    14.4280  14.9043  15.9034  16.2123  17.4007  18.1503  18.3422  19.0073
    19.5701  19.7975  20.4907  22.0570  26.5763

     occupation numbers 
     1.0000   1.0000   1.0000   1.0000   1.0000   1.0000   1.0000   1.0000
     1.0000   1.0000   1.0000   1.0000   1.0000   1.0000   1.0000   0.0000
     0.0000   0.0000   0.0000   0.0000   0.0000

          k = 0.0833 0.5292-0.3083 (  2884 PWs)   bands (ev):

   -75.4979 -75.4979 -38.9953 -38.9953 -38.7939 -38.7939 -38.7581 -38.7581
    14.6059  14.6059  16.1652  16.1652  17.8914  17.8914  18.6553  18.6553
    19.6521  19.6521  21.0170  21.0170  26.8308

     occupation numbers 
     1.0000   1.0000   1.0000   1.0000   1.0000   1.0000   1.0000   1.0000
     1.0000   1.0000   1.0000   1.0000   1.0000   1.0000   0.0000   0.0000
     0.0000   0.0000   0.0000   0.0000   0.0000

          k = 0.1667 0.2887 0.0000 (  2880 PWs)   bands (ev):

   -75.5304 -75.4924 -38.9466 -38.8637 -38.8546 -38.7748 -38.7296 -38.7208
    12.1524  15.5614  15.8822  16.2488  17.4115  17.4665  17.9775  18.3449
    18.8984  19.2505  19.6491  24.3239  26.1022

     occupation numbers 
     1.0000   1.0000   1.0000   1.0000   1.0000   1.0000   1.0000   1.0000
     1.0000   1.0000   1.0000   1.0000   1.0000   1.0000   1.0000   1.0000
     0.0000   0.0000   0.0000   0.0000   0.0000

          k = 0.1667 0.2887 0.1028 (  2886 PWs)   bands (ev):

   -75.5278 -75.4949 -38.9475 -38.8614 -38.8461 -38.7809 -38.7337 -38.7208
    12.3642  15.4795  15.7930  16.3140  17.3207  17.4933  17.8700  18.4342
    19.0246  19.1304  19.6561  22.6866  28.2858

     occupation numbers 
     1.0000   1.0000   1.0000   1.0000   1.0000   1.0000   1.0000   1.0000
     1.0000   1.0000   1.0000   1.0000   1.0000   1.0000   1.0000   0.0010
     0.0000   0.0000   0.0000   0.0000   0.0000

          k = 0.1667 0.2887 0.2055 (  2884 PWs)   bands (ev):

   -75.5209 -75.5019 -38.9396 -38.8850 -38.8095 -38.7833 -38.7436 -38.7296
    12.9656  14.7881  16.0427  16.4802  17.0618  17.3306  17.9242  18.5134
    19.1293  19.2477  19.6078  20.9919  31.5128

     occupation numbers 
     1.0000   1.0000   1.0000   1.0000   1.0000   1.0000   1.0000   1.0000
     1.0000   1.0000   1.0000   1.0000   1.0000   1.0000   1.0000   0.0000
     0.0000   0.0000   0.0000   0.0000   0.0000

          k = 0.1667 0.2887-0.3083 (  2884 PWs)   bands (ev):

   -75.5114 -75.5114 -38.9165 -38.9165 -38.7827 -38.7827 -38.7462 -38.7462
    13.8438  13.8438  16.4156  16.4156  17.0207  17.0207  18.2244  18.2244
    19.4356  19.4356  19.8345  19.8345  33.3219

     occupation numbers 
     1.0000   1.0000   1.0000   1.0000   1.0000   1.0000   1.0000   1.0000
     1.0000   1.0000   1.0000   1.0000   1.0000   1.0000   1.0000   1.0000
     0.0000   0.0000   0.0000   0.0000   0.0000

          k = 0.1667 0.3849 0.0000 (  2887 PWs)   bands (ev):

   -75.5179 -75.4894 -38.9120 -38.9113 -38.8893 -38.8037 -38.7509 -38.7418
    13.4014  15.5903  15.6381  16.0573  17.2118  17.5996  17.7453  18.6835
    19.3962  19.6428  19.9623  26.0763  26.3521

     occupation numbers 
     1.0000   1.0000   1.0000   1.0000   1.0000   1.0000   1.0000   1.0000
     1.0000   1.0000   1.0000   1.0000   1.0000   1.0000   1.0000   0.0000
     0.0000   0.0000   0.0000   0.0000   0.0000

          k = 0.1667 0.3849 0.1028 (  2891 PWs)   bands (ev):

   -75.5160 -75.4913 -38.9431 -38.9065 -38.8587 -38.8086 -38.7566 -38.7355
    13.5506  15.4513  15.7402  16.1590  17.1844  17.5698  17.6993  18.7238
    19.3796  19.4970  20.0689  23.7706  28.4485

     occupation numbers 
     1.0000   1.0000   1.0000   1.0000   1.0000   1.0000   1.0000   1.0000
     1.0000   1.0000   1.0000   1.0000   1.0000   1.0000   1.0000   0.0000
     0.0000   0.0000   0.0000   0.0000   0.0000

          k = 0.1667 0.3849 0.2055 (  2883 PWs)   bands (ev):

   -75.5108 -75.4965 -38.9571 -38.9271 -38.8209 -38.8043 -38.7643 -38.7353
    13.9597  15.0670  16.0197  16.3707  17.0464  17.2918  17.8875  18.6910
    19.2358  19.6783  20.1492  21.8020  29.4022

     occupation numbers 
     1.0000   1.0000   1.0000   1.0000   1.0000   1.0000   1.0000   1.0000
     1.0000   1.0000   1.0000   1.0000   1.0000   1.0000   1.0000   0.0000
     0.0000   0.0000   0.0000   0.0000   0.0000

          k = 0.1667 0.3849-0.3083 (  2876 PWs)   bands (ev):

   -75.5036 -75.5036 -38.9494 -38.9494 -38.8037 -38.8037 -38.7513 -38.7513
    14.5181  14.5181  16.3568  16.3568  17.0200  17.0200  18.2481  18.2481
    19.6758  19.6758  20.4957  20.4957  30.5032

     occupation numbers 
     1.0000   1.0000   1.0000   1.0000   1.0000   1.0000   1.0000   1.0000
     1.0000   1.0000   1.0000   1.0000   1.0000   1.0000   1.0000   1.0000
     0.0000   0.0000   0.0000   0.0000   0.0000

          k = 0.1667 0.4811 0.0000 (  2893 PWs)   bands (ev):

   -75.5074 -75.4885 -38.9503 -38.9067 -38.8772 -38.8309 -38.7654 -38.7654
    14.5084  15.4208  15.4209  16.0999  17.1530  17.4843  17.8324  19.1331
    19.6371  19.6505  20.8581  24.7738  27.9656

     occupation numbers 
     1.0000   1.0000   1.0000   1.0000   1.0000   1.0000   1.0000   1.0000
     1.0000   1.0000   1.0000   1.0000   1.0000   1.0000   1.0000   0.0000
     0.0000   0.0000   0.0000   0.0000   0.0000

          k = 0.1667 0.4811 0.1028 (  2889 PWs)   bands (ev):

   -75.5061 -75.4898 -38.9633 -38.9250 -38.8576 -38.8227 -38.7763 -38.7508
    14.5302  15.3682  15.5857  16.1400  17.1648  17.4607  17.8969  19.1252
    19.4044  19.7245  20.9084  24.1678  26.9629

     occupation numbers 
     1.0000   1.0000   1.0000   1.0000   1.0000   1.0000   1.0000   1.0000
     1.0000   1.0000   1.0000   1.0000   1.0000   1.0000   1.0000   0.0000
     0.0000   0.0000   0.0000   0.0000   0.0000

          k = 0.1667 0.4811 0.2055 (  2888 PWs)   bands (ev):

   -75.5027 -75.4932 -38.9781 -38.9531 -38.8407 -38.8051 -38.7763 -38.7420
    14.6411  15.1649  15.9131  16.4106  16.9979  17.4325  18.1091  18.8111
    19.3400  19.8204  21.0569  22.7419  27.0877

     occupation numbers 
     1.0000   1.0000   1.0000   1.0000   1.0000   1.0000   1.0000   1.0000
     1.0000   1.0000   1.0000   1.0000   1.0000   1.0000   1.0000   0.0000
     0.0000   0.0000   0.0000   0.0000   0.0000

          k = 0.1667 0.4811-0.3083 (  2886 PWs)   bands (ev):

   -75.4979 -75.4979 -38.9747 -38.9747 -38.8212 -38.8212 -38.7517 -38.7517
    14.8710  14.8710  16.3179  16.3179  17.1712  17.1712  18.3833  18.3833
    19.6680  19.6680  21.5785  21.5785  27.8905

     occupation numbers 
     1.0000   1.0000   1.0000   1.0000   1.0000   1.0000   1.0000   1.0000
     1.0000   1.0000   1.0000   1.0000   1.0000   1.0000   0.9862   0.9862
     0.0000   0.0000   0.0000   0.0000   0.0000

          k = 0.1667 0.5774 0.0000 (  2896 PWs)   bands (ev):

   -75.5027 -75.4890 -38.9642 -38.9120 -38.8599 -38.8421 -38.7788 -38.7705
    14.9793  15.2845  15.3661  16.1562  17.1983  17.3215  17.9366  19.4494
    19.6285  19.6346  21.7539  23.2170  29.0039

     occupation numbers 
     1.0000   1.0000   1.0000   1.0000   1.0000   1.0000   1.0000   1.0000
     1.0000   1.0000   1.0000   1.0000   1.0000   1.0000   1.0000   0.0000
     0.0000   0.0000   0.0000   0.0000   0.0000

          k = 0.1667 0.5774 0.1028 (  2890 PWs)   bands (ev):

   -75.5018 -75.4899 -38.9746 -38.9291 -38.8616 -38.8161 -38.7879 -38.7579
    14.8375  15.3277  15.7272  15.9862  17.1234  17.4934  18.0100  19.3765
    19.4479  19.6901  21.7834  23.1213  28.0972

     occupation numbers 
     1.0000   1.0000   1.0000   1.0000   1.0000   1.0000   1.0000   1.0000
     1.0000   1.0000   1.0000   1.0000   1.0000   1.0000   1.0000   0.0000
     0.0000   0.0000   0.0000   0.0000   0.0000

          k = 0.1667 0.5774 0.2055 (  2900 PWs)   bands (ev):

   -75.4993 -75.4924 -38.9877 -38.9612 -38.8492 -38.8054 -38.7778 -38.7457
    14.8000  15.2238  15.9792  16.3247  16.9107  17.6043  18.2544  18.8811
    19.4743  19.7364  21.9109  22.8028  27.0103

     occupation numbers 
     1.0000   1.0000   1.0000   1.0000   1.0000   1.0000   1.0000   1.0000
     1.0000   1.0000   1.0000   1.0000   1.0000   1.0000   1.0000   0.0000
     0.0000   0.0000   0.0000   0.0000   0.0000

          k = 0.1667 0.5774-0.3083 (  2894 PWs)   bands (ev):

   -75.4959 -75.4959 -38.9841 -38.9841 -38.8278 -38.8278 -38.7514 -38.7514
    14.9552  14.9552  16.3097  16.3097  17.2236  17.2236  18.5440  18.5440
    19.6042  19.6042  22.3011  22.3011  26.6323

     occupation numbers 
     1.0000   1.0000   1.0000   1.0000   1.0000   1.0000   1.0000   1.0000
     1.0000   1.0000   1.0000   1.0000   1.0000   1.0000   0.0000   0.0000
     0.0000   0.0000   0.0000   0.0000   0.0000

          k = 0.2500 0.4330 0.0000 (  2894 PWs)   bands (ev):

   -75.5074 -75.4885 -38.9294 -38.9074 -38.8774 -38.8322 -38.7844 -38.7652
    14.5134  15.4952  15.7591  15.7842  17.0603  17.5113  17.8363  18.8913
    19.5893  19.6531  20.8974  26.3269  27.1504

     occupation numbers 
     1.0000   1.0000   1.0000   1.0000   1.0000   1.0000   1.0000   1.0000
     1.0000   1.0000   1.0000   1.0000   1.0000   1.0000   1.0000   0.0000
     0.0000   0.0000   0.0000   0.0000   0.0000

          k = 0.2500 0.4330 0.1028 (  2895 PWs)   bands (ev):

   -75.5061 -75.4898 -38.9369 -38.9331 -38.8438 -38.8427 -38.7867 -38.7528
    14.5953  15.4117  15.8267  15.9681  17.1011  17.3348  17.8409  18.9317
    19.3474  19.7327  20.9995  24.8959  27.4353

     occupation numbers 
     1.0000   1.0000   1.0000   1.0000   1.0000   1.0000   1.0000   1.0000
     1.0000   1.0000   1.0000   1.0000   1.0000   1.0000   1.0000   0.0000
     0.0000   0.0000   0.0000   0.0000   0.0000

          k = 0.2500 0.4330 0.2055 (  2893 PWs)   bands (ev):

   -75.5027 -75.4932 -38.9600 -38.9472 -38.8484 -38.8231 -38.7754 -38.7416
    14.8048  15.2677  16.0445  16.3198  16.9537  17.0721  17.9239  18.7142
    19.2999  19.8290  21.2317  23.0543  28.2084

     occupation numbers 
     1.0000   1.0000   1.0000   1.0000   1.0000   1.0000   1.0000   1.0000
     1.0000   1.0000   1.0000   1.0000   1.0000   1.0000   1.0000   0.0000
     0.0000   0.0000   0.0000   0.0000   0.0000

          k = 0.2500 0.4330-0.3083 (  2888 PWs)   bands (ev):

   -75.4979 -75.4979 -38.9618 -38.9618 -38.8361 -38.8361 -38.7499 -38.7499
    15.0570  15.0570  16.3779  16.3779  16.8469  16.8469  18.2196  18.2196
    19.6915  19.6915  21.7901  21.7901  29.2105

     occupation numbers 
     1.0000   1.0000   1.0000   1.0000   1.0000   1.0000   1.0000   1.0000
     1.0000   1.0000   1.0000   1.0000   1.0000   1.0000   1.0000   1.0000
     0.0000   0.0000   0.0000   0.0000   0.0000

          k = 0.2500 0.5292 0.0000 (  2904 PWs)   bands (ev):

   -75.4995 -75.4898 -38.9426 -38.8982 -38.8631 -38.8471 -38.8059 -38.7894
    15.2373  15.4665  15.6006  15.8619  17.0610  17.2693  18.0339  19.1961
    19.5578  19.5907  22.1637  24.3841  26.4683

     occupation numbers 
     1.0000   1.0000   1.0000   1.0000   1.0000   1.0000   1.0000   1.0000
     1.0000   1.0000   1.0000   1.0000   1.0000   1.0000   1.0000   0.0000
     0.0000   0.0000   0.0000   0.0000   0.0000

          k = 0.2500 0.5292 0.1028 (  2902 PWs)   bands (ev):

   -75.4989 -75.4904 -38.9478 -38.9195 -38.8793 -38.8240 -38.8057 -38.7700
    15.2055  15.5741  15.6839  15.9311  17.0361  17.1698  18.0441  19.2162
    19.3118  19.6452  22.3231  24.3619  26.5349

     occupation numbers 
     1.0000   1.0000   1.0000   1.0000   1.0000   1.0000   1.0000   1.0000
     1.0000   1.0000   1.0000   1.0000   1.0000   1.0000   1.0000   0.0000
     0.0000   0.0000   0.0000   0.0000   0.0000

          k = 0.2500 0.5292 0.2055 (  2897 PWs)   bands (ev):

   -75.4971 -75.4922 -38.9620 -38.9473 -38.8791 -38.8376 -38.7707 -38.7491
    15.2457  15.5327  15.9583  16.2746  16.7857  17.0279  18.1130  18.7487
    19.3880  19.6952  22.7007  24.0067  26.6011

     occupation numbers 
     1.0000   1.0000   1.0000   1.0000   1.0000   1.0000   1.0000   1.0000
     1.0000   1.0000   1.0000   1.0000   1.0000   1.0000   1.0000   0.0000
     0.0000   0.0000   0.0000   0.0000   0.0000

          k = 0.2500 0.5292-0.3083 (  2890 PWs)   bands (ev):

   -75.4947 -75.4947 -38.9644 -38.9644 -38.8601 -38.8601 -38.7483 -38.7483
    15.3778  15.3778  16.3500  16.3500  16.7454  16.7454  18.3193  18.3193
    19.5931  19.5931  23.2859  23.2859  27.1385

     occupation numbers 
     1.0000   1.0000   1.0000   1.0000   1.0000   1.0000   1.0000   1.0000
     1.0000   1.0000   1.0000   1.0000   1.0000   1.0000   1.0000   1.0000
     0.0000   0.0000   0.0000   0.0000   0.0000

          k = 0.3333 0.5774 0.0000 (  2898 PWs)   bands (ev):

   -75.4935 -75.4935 -38.9327 -38.8834 -38.8834 -38.8312 -38.8171 -38.8171
    15.5017  15.5912  15.5912  15.7896  17.0997  17.0997  18.1406  19.3632
    19.3632  19.5263  23.6026  24.3760  24.3760

     occupation numbers 
     1.0000   1.0000   1.0000   1.0000   1.0000   1.0000   1.0000   1.0000
     1.0000   1.0000   1.0000   1.0000   1.0000   1.0000   1.0000   0.0000
     0.0000   0.0000   0.0000   0.0000   0.0000

          k = 0.3333 0.5774 0.1028 (  2907 PWs)   bands (ev):

   -75.4935 -75.4935 -38.9259 -38.9091 -38.9091 -38.8380 -38.7913 -38.7913
    15.5735  15.6652  15.6652  15.8218  17.0139  17.0139  18.1203  19.2565
    19.4116  19.4116  24.0116  24.4256  24.4256

     occupation numbers 
     1.0000   1.0000   1.0000   1.0000   1.0000   1.0000   1.0000   1.0000
     1.0000   1.0000   1.0000   1.0000   1.0000   1.0000   1.0000   0.0000
     0.0000   0.0000   0.0000   0.0000   0.0000

          k = 0.3333 0.5774 0.2055 (  2889 PWs)   bands (ev):

   -75.4935 -75.4935 -38.9407 -38.9407 -38.9074 -38.8567 -38.7594 -38.7594
    15.7408  15.8421  15.8421  15.8818  16.8213  16.8213  18.1192  18.7193
    19.5002  19.5002  24.5486  24.5486  25.0074

     occupation numbers 
     1.0000   1.0000   1.0000   1.0000   1.0000   1.0000   1.0000   1.0000
     1.0000   1.0000   1.0000   1.0000   1.0000   1.0000   1.0000   0.0000
     0.0000   0.0000   0.0000   0.0000   0.0000

          k = 0.3333 0.5774-0.3083 (  2910 PWs)   bands (ev):

   -75.4935 -75.4935 -38.9529 -38.9529 -38.8821 -38.8821 -38.7470 -38.7470
    15.8742  15.8742  15.9581  15.9581  16.7010  16.7010  18.2891  18.2891
    19.5409  19.5409  24.6269  24.6269  26.3235

     occupation numbers 
     1.0000   1.0000   1.0000   1.0000   1.0000   1.0000   1.0000   1.0000
     1.0000   1.0000   1.0000   1.0000   1.0000   1.0000   1.0000   1.0000
     0.0000   0.0000   0.0000   0.0000   0.0000

     the Fermi energy is    18.4045 ev

!    total energy              =    -753.45498669 Ry
     total all-electron energy =     -5573.811678 Ry
     estimated scf accuracy    <       0.00000024 Ry
     smearing contrib. (-TS)   =      -0.00001866 Ry
     internal energy E=F+TS    =    -753.45496803 Ry

     The total energy is F=E-TS. E is the sum of the following terms:
     one-electron contribution =    -285.35936309 Ry
     hartree contribution      =     165.98303822 Ry
     xc contribution           =     -61.38598188 Ry
     ewald contribution        =    -397.51798103 Ry
     one-center paw contrib.   =    -175.17468026 Ry
      -> PAW hartree energy AE =     221.91217387 Ry
      -> PAW hartree energy PS =    -220.85706548 Ry
      -> PAW xc energy AE      =    -117.66695385 Ry
      -> PAW xc energy PS      =      29.02450534 Ry
      -> total E_H with PAW    =     167.03814661 Ry
      -> total E_XC with PAW   =    -150.02843040 Ry

     total magnetization       =     3.36 Bohr mag/cell
     absolute magnetization    =     3.69 Bohr mag/cell

     convergence has been achieved in  16 iterations

     Writing all to output data dir ./out/Co.save/
 
     init_run     :      0.39s CPU      0.51s WALL (       1 calls)
     electrons    :     35.64s CPU     37.48s WALL (       1 calls)

     Called by init_run:
     wfcinit      :      0.26s CPU      0.35s WALL (       1 calls)
     potinit      :      0.09s CPU      0.11s WALL (       1 calls)
     hinit0       :      0.03s CPU      0.03s WALL (       1 calls)

     Called by electrons:
     c_bands      :     31.29s CPU     32.71s WALL (      16 calls)
     sum_band     :      2.94s CPU      3.09s WALL (      16 calls)
     v_of_rho     :      0.05s CPU      0.05s WALL (      17 calls)
     v_h          :      0.00s CPU      0.00s WALL (      17 calls)
     v_xc         :      0.04s CPU      0.05s WALL (      17 calls)
     newd         :      0.06s CPU      0.08s WALL (      17 calls)
     PAW_pot      :      1.36s CPU      1.61s WALL (      17 calls)
     mix_rho      :      0.01s CPU      0.01s WALL (      16 calls)

     Called by c_bands:
     init_us_2    :      0.18s CPU      0.18s WALL (    4864 calls)
     init_us_2:cp :      0.18s CPU      0.17s WALL (    4864 calls)
     cegterg      :     30.23s CPU     31.57s WALL (    2566 calls)

     Called by sum_band:
     sum_band:wei :      0.02s CPU      0.02s WALL (      16 calls)
     sum_band:loo :      2.79s CPU      2.93s WALL (      16 calls)
     sum_band:buf :      0.01s CPU      0.02s WALL (    2432 calls)
     sum_band:ini :      0.10s CPU      0.09s WALL (    2432 calls)
     sum_band:cal :      0.24s CPU      0.24s WALL (    2432 calls)
     sum_band:bec :      0.01s CPU      0.02s WALL (    2432 calls)
     addusdens    :      0.11s CPU      0.11s WALL (      16 calls)
                                        0.00s GPU  (      16 calls)
     addusd:skk   :      0.00s CPU      0.00s WALL (      16 calls)
                                        0.00s GPU  (      16 calls)

     Called by *egterg:
     cdiaghg      :      7.20s CPU      7.40s WALL (   14797 calls)
     cegterg:over :      0.98s CPU      0.95s WALL (   12517 calls)
     cegterg:upda :      0.13s CPU      0.24s WALL (   12517 calls)
     cegterg:last :      0.44s CPU      0.48s WALL (    9192 calls)
     h_psi        :     20.20s CPU     21.22s WALL (   15083 calls)
     s_psi        :      0.39s CPU      0.33s WALL (   15083 calls)
     g_psi        :      0.07s CPU      0.08s WALL (   12517 calls)

     Called by h_psi:
     h_psi:calbec :      1.06s CPU      1.05s WALL (   15083 calls)
     vloc_psi     :     18.85s CPU     19.72s WALL (   15083 calls)
     add_vuspsi   :      0.23s CPU      0.35s WALL (   15083 calls)

     General routines
     calbec       :      1.29s CPU      1.26s WALL (   17515 calls)
     fft          :      0.03s CPU      0.03s WALL (     419 calls)
     ffts         :      0.00s CPU      0.00s WALL (      66 calls)
     fftw         :     20.17s CPU     20.72s WALL (  471456 calls)
     interpolate  :      0.01s CPU      0.01s WALL (      34 calls)
 
     Parallel routines

     PAW routines
     PAW_pot      :      1.36s CPU      1.61s WALL (      17 calls)
     PAW_symme    :      0.02s CPU      0.02s WALL (      32 calls)
 
     PWSCF        :     36.37s CPU     38.78s WALL

 
   This run was terminated on:   8:23:40  22Mar2024            

=------------------------------------------------------------------------------=
   JOB DONE.
=------------------------------------------------------------------------------=
