
     Program PWSCF v.7.2 starts on 22Mar2024 at  8:44: 5 

     This program is part of the open-source Quantum ESPRESSO suite
     for quantum simulation of materials; please cite
         "P. Giannozzi et al., J. Phys.:Condens. Matter 21 395502 (2009);
         "P. Giannozzi et al., J. Phys.:Condens. Matter 29 465901 (2017);
         "P. Giannozzi et al., J. Chem. Phys. 152 154105 (2020);
          URL http://www.quantum-espresso.org", 
     in publications or presentations arising from this work. More details at
     http://www.quantum-espresso.org/quote

     Parallel version (MPI), running on    20 processors

     MPI processes distributed on     1 nodes
     241464 MiB available memory on the printing compute node when the environment starts
 
     Waiting for input...
     Reading input from standard input

     Current dimensions of program PWSCF are:
     Max number of different atomic species (ntypx) = 10
     Max number of k-points (npk) = 120000
     Max angular momentum in pseudopotentials (lmaxx) =  4
     file Co.pbe-spn-kjpaw_psl.0.3.1.UPF: wavefunction(s)  3P 3D renormalized
 
     R & G space division:  proc/nbgrp/npool/nimage =      20
     Subspace diagonalization in iterative solution of the eigenvalue problem:
     a serial algorithm will be used

 
     Parallelization info
     --------------------
     sticks:   dense  smooth     PW     G-vecs:    dense   smooth      PW
     Min          33      32      9                 1151     1108     179
     Max          35      33     10                 1157     1117     186
     Sum         673     649    199                23079    22227    3669
 
     Using Slab Decomposition
 


     bravais-lattice index     =            4
     lattice parameter (alat)  =       4.6487  a.u.
     unit-cell volume          =     142.7056 (a.u.)^3
     number of atoms/cell      =            2
     number of atomic types    =            1
     number of electrons       =        34.00
     number of Kohn-Sham states=           21
     kinetic-energy cutoff     =     110.0000  Ry
     charge density cutoff     =     450.0000  Ry
     scf convergence threshold =      1.0E-06
     mixing beta               =       0.7000
     number of iterations used =            8  plain     mixing
     Exchange-correlation= SLA  PW   PBX  PBC
                           (   1   4   3   4   0   0   0)

     celldm(1)=   4.648726  celldm(2)=   0.000000  celldm(3)=   1.640244
     celldm(4)=   0.000000  celldm(5)=   0.000000  celldm(6)=   0.000000

     crystal axes: (cart. coord. in units of alat)
               a(1) = (   1.000000   0.000000   0.000000 )  
               a(2) = (  -0.500000   0.866025   0.000000 )  
               a(3) = (   0.000000   0.000000   1.640244 )  

     reciprocal axes: (cart. coord. in units 2 pi/alat)
               b(1) = (  1.000000  0.577350  0.000000 )  
               b(2) = (  0.000000  1.154701  0.000000 )  
               b(3) = (  0.000000  0.000000  0.609665 )  


     PseudoPot. # 1 for Co read from file:
     /truba/home/amuhaymin/ZnS/pseudo/QE/Co.pbe-spn-kjpaw_psl.0.3.1.UPF
     MD5 check sum: b0a1ad65bf214e88c1f3d33b20c7d919
     Pseudo is Projector augmented-wave + core cor, Zval = 17.0
     Generated using &quot;atomic&quot; code by A. Dal Corso  v.6.2.2
     Shape of augmentation charge: PSQ
     Using radial grid of 1193 points,  6 beta functions with: 
                l(1) =   0
                l(2) =   0
                l(3) =   1
                l(4) =   1
                l(5) =   2
                l(6) =   2
     Q(r) pseudized with 0 coefficients 


     atomic species   valence    mass     pseudopotential
        Co            17.00    58.93300     Co( 1.00)

     Starting magnetic structure 
     atomic species   magnetization
        Co           0.294

     24 Sym. Ops., with inversion, found (12 have fractional translation)


                                    s                        frac. trans.

      isym =  1     identity                                     

 cryst.   s( 1) = (     1          0          0      )
                  (     0          1          0      )
                  (     0          0          1      )

 cart.    s( 1) = (  1.0000000  0.0000000  0.0000000 )
                  (  0.0000000  1.0000000  0.0000000 )
                  (  0.0000000  0.0000000  1.0000000 )


      isym =  2     180 deg rotation - cart. axis [0,0,1]        

 cryst.   s( 2) = (    -1          0          0      )    f =(  0.0000000 )
                  (     0         -1          0      )       ( -0.0000000 )
                  (     0          0          1      )       ( -0.5000000 )

 cart.    s( 2) = ( -1.0000000  0.0000000  0.0000000 )    f =(  0.0000000 )
                  (  0.0000000 -1.0000000  0.0000000 )       ( -0.0000000 )
                  (  0.0000000  0.0000000  1.0000000 )       ( -0.8201220 )


      isym =  3     180 deg rotation - cart. axis [0,1,0]        

 cryst.   s( 3) = (    -1          0          0      )    f =(  0.0000000 )
                  (     1          1          0      )       (  0.0000000 )
                  (     0          0         -1      )       (  0.5000000 )

 cart.    s( 3) = ( -1.0000000  0.0000000  0.0000000 )    f =(  0.0000000 )
                  (  0.0000000  1.0000000  0.0000000 )       (  0.0000000 )
                  (  0.0000000  0.0000000 -1.0000000 )       (  0.8201220 )


      isym =  4     180 deg rotation - cart. axis [1,0,0]        

 cryst.   s( 4) = (     1          0          0      )
                  (    -1         -1          0      )
                  (     0          0         -1      )

 cart.    s( 4) = (  1.0000000  0.0000000  0.0000000 )
                  (  0.0000000 -1.0000000  0.0000000 )
                  (  0.0000000  0.0000000 -1.0000000 )


      isym =  5      60 deg rotation - cryst. axis [0,0,1]       

 cryst.   s( 5) = (     1          1          0      )    f =(  0.0000000 )
                  (    -1          0          0      )       ( -0.0000000 )
                  (     0          0          1      )       ( -0.5000000 )

 cart.    s( 5) = (  0.5000000 -0.8660254  0.0000000 )    f =(  0.0000000 )
                  (  0.8660254  0.5000000  0.0000000 )       ( -0.0000000 )
                  (  0.0000000  0.0000000  1.0000000 )       ( -0.8201220 )


      isym =  6      60 deg rotation - cryst. axis [0,0,-1]      

 cryst.   s( 6) = (     0         -1          0      )    f =(  0.0000000 )
                  (     1          1          0      )       ( -0.0000000 )
                  (     0          0          1      )       ( -0.5000000 )

 cart.    s( 6) = (  0.5000000  0.8660254  0.0000000 )    f =(  0.0000000 )
                  ( -0.8660254  0.5000000  0.0000000 )       ( -0.0000000 )
                  (  0.0000000  0.0000000  1.0000000 )       ( -0.8201220 )


      isym =  7     120 deg rotation - cryst. axis [0,0,1]       

 cryst.   s( 7) = (     0          1          0      )
                  (    -1         -1          0      )
                  (     0          0          1      )

 cart.    s( 7) = ( -0.5000000 -0.8660254  0.0000000 )
                  (  0.8660254 -0.5000000  0.0000000 )
                  (  0.0000000  0.0000000  1.0000000 )


      isym =  8     120 deg rotation - cryst. axis [0,0,-1]      

 cryst.   s( 8) = (    -1         -1          0      )
                  (     1          0          0      )
                  (     0          0          1      )

 cart.    s( 8) = ( -0.5000000  0.8660254  0.0000000 )
                  ( -0.8660254 -0.5000000  0.0000000 )
                  (  0.0000000  0.0000000  1.0000000 )


      isym =  9     180 deg rotation - cryst. axis [1,-1,0]      

 cryst.   s( 9) = (     0         -1          0      )    f =( -0.0000000 )
                  (    -1          0          0      )       ( -0.0000000 )
                  (     0          0         -1      )       (  0.5000000 )

 cart.    s( 9) = (  0.5000000 -0.8660254  0.0000000 )    f =( -0.0000000 )
                  ( -0.8660254 -0.5000000  0.0000000 )       ( -0.0000000 )
                  (  0.0000000  0.0000000 -1.0000000 )       (  0.8201220 )


      isym = 10     180 deg rotation - cryst. axis [2,1,0]       

 cryst.   s(10) = (     1          1          0      )    f =(  0.0000000 )
                  (     0         -1          0      )       ( -0.0000000 )
                  (     0          0         -1      )       (  0.5000000 )

 cart.    s(10) = (  0.5000000  0.8660254  0.0000000 )    f =(  0.0000000 )
                  (  0.8660254 -0.5000000  0.0000000 )       ( -0.0000000 )
                  (  0.0000000  0.0000000 -1.0000000 )       (  0.8201220 )


      isym = 11     180 deg rotation - cryst. axis [0,1,0]       

 cryst.   s(11) = (    -1         -1          0      )
                  (     0          1          0      )
                  (     0          0         -1      )

 cart.    s(11) = ( -0.5000000 -0.8660254  0.0000000 )
                  ( -0.8660254  0.5000000  0.0000000 )
                  (  0.0000000  0.0000000 -1.0000000 )


      isym = 12     180 deg rotation - cryst. axis [1,1,0]       

 cryst.   s(12) = (     0          1          0      )
                  (     1          0          0      )
                  (     0          0         -1      )

 cart.    s(12) = ( -0.5000000  0.8660254  0.0000000 )
                  (  0.8660254  0.5000000  0.0000000 )
                  (  0.0000000  0.0000000 -1.0000000 )


      isym = 13     inversion                                    

 cryst.   s(13) = (    -1          0          0      )
                  (     0         -1          0      )
                  (     0          0         -1      )

 cart.    s(13) = ( -1.0000000  0.0000000  0.0000000 )
                  (  0.0000000 -1.0000000  0.0000000 )
                  (  0.0000000  0.0000000 -1.0000000 )


      isym = 14     inv. 180 deg rotation - cart. axis [0,0,1]   

 cryst.   s(14) = (     1          0          0      )    f =(  0.0000000 )
                  (     0          1          0      )       (  0.0000000 )
                  (     0          0         -1      )       (  0.5000000 )

 cart.    s(14) = (  1.0000000  0.0000000  0.0000000 )    f =(  0.0000000 )
                  (  0.0000000  1.0000000  0.0000000 )       (  0.0000000 )
                  (  0.0000000  0.0000000 -1.0000000 )       (  0.8201220 )


      isym = 15     inv. 180 deg rotation - cart. axis [0,1,0]   

 cryst.   s(15) = (     1          0          0      )    f =(  0.0000000 )
                  (    -1         -1          0      )       ( -0.0000000 )
                  (     0          0          1      )       ( -0.5000000 )

 cart.    s(15) = (  1.0000000  0.0000000  0.0000000 )    f =(  0.0000000 )
                  (  0.0000000 -1.0000000  0.0000000 )       ( -0.0000000 )
                  (  0.0000000  0.0000000  1.0000000 )       ( -0.8201220 )


      isym = 16     inv. 180 deg rotation - cart. axis [1,0,0]   

 cryst.   s(16) = (    -1          0          0      )
                  (     1          1          0      )
                  (     0          0          1      )

 cart.    s(16) = ( -1.0000000  0.0000000  0.0000000 )
                  (  0.0000000  1.0000000  0.0000000 )
                  (  0.0000000  0.0000000  1.0000000 )


      isym = 17     inv.  60 deg rotation - cryst. axis [0,0,1]  

 cryst.   s(17) = (    -1         -1          0      )    f =(  0.0000000 )
                  (     1          0          0      )       ( -0.0000000 )
                  (     0          0         -1      )       (  0.5000000 )

 cart.    s(17) = ( -0.5000000  0.8660254  0.0000000 )    f =(  0.0000000 )
                  ( -0.8660254 -0.5000000  0.0000000 )       ( -0.0000000 )
                  (  0.0000000  0.0000000 -1.0000000 )       (  0.8201220 )


      isym = 18     inv.  60 deg rotation - cryst. axis [0,0,-1] 

 cryst.   s(18) = (     0          1          0      )    f =( -0.0000000 )
                  (    -1         -1          0      )       ( -0.0000000 )
                  (     0          0         -1      )       (  0.5000000 )

 cart.    s(18) = ( -0.5000000 -0.8660254  0.0000000 )    f =(  0.0000000 )
                  (  0.8660254 -0.5000000  0.0000000 )       ( -0.0000000 )
                  (  0.0000000  0.0000000 -1.0000000 )       (  0.8201220 )


      isym = 19     inv. 120 deg rotation - cryst. axis [0,0,1]  

 cryst.   s(19) = (     0         -1          0      )
                  (     1          1          0      )
                  (     0          0         -1      )

 cart.    s(19) = (  0.5000000  0.8660254  0.0000000 )
                  ( -0.8660254  0.5000000  0.0000000 )
                  (  0.0000000  0.0000000 -1.0000000 )


      isym = 20     inv. 120 deg rotation - cryst. axis [0,0,-1] 

 cryst.   s(20) = (     1          1          0      )
                  (    -1          0          0      )
                  (     0          0         -1      )

 cart.    s(20) = (  0.5000000 -0.8660254  0.0000000 )
                  (  0.8660254  0.5000000  0.0000000 )
                  (  0.0000000  0.0000000 -1.0000000 )


      isym = 21     inv. 180 deg rotation - cryst. axis [1,-1,0] 

 cryst.   s(21) = (     0          1          0      )    f =(  0.0000000 )
                  (     1          0          0      )       ( -0.0000000 )
                  (     0          0          1      )       ( -0.5000000 )

 cart.    s(21) = ( -0.5000000  0.8660254  0.0000000 )    f =(  0.0000000 )
                  (  0.8660254  0.5000000  0.0000000 )       ( -0.0000000 )
                  (  0.0000000  0.0000000  1.0000000 )       ( -0.8201220 )


      isym = 22     inv. 180 deg rotation - cryst. axis [2,1,0]  

 cryst.   s(22) = (    -1         -1          0      )    f =(  0.0000000 )
                  (     0          1          0      )       ( -0.0000000 )
                  (     0          0          1      )       ( -0.5000000 )

 cart.    s(22) = ( -0.5000000 -0.8660254  0.0000000 )    f =(  0.0000000 )
                  ( -0.8660254  0.5000000  0.0000000 )       ( -0.0000000 )
                  (  0.0000000  0.0000000  1.0000000 )       ( -0.8201220 )


      isym = 23     inv. 180 deg rotation - cryst. axis [0,1,0]  

 cryst.   s(23) = (     1          1          0      )
                  (     0         -1          0      )
                  (     0          0          1      )

 cart.    s(23) = (  0.5000000  0.8660254  0.0000000 )
                  (  0.8660254 -0.5000000  0.0000000 )
                  (  0.0000000  0.0000000  1.0000000 )


      isym = 24     inv. 180 deg rotation - cryst. axis [1,1,0]  

 cryst.   s(24) = (     0         -1          0      )
                  (    -1          0          0      )
                  (     0          0          1      )

 cart.    s(24) = (  0.5000000 -0.8660254  0.0000000 )
                  ( -0.8660254 -0.5000000  0.0000000 )
                  (  0.0000000  0.0000000  1.0000000 )


     point group D_6h(6/mmm)
     there are 12 classes
     the character table:

       E     2C6   2C3   C2    3C2'  3C2'' i     2S3   2S6   s_h   3s_d  3s_v 
A_1g   1.00  1.00  1.00  1.00  1.00  1.00  1.00  1.00  1.00  1.00  1.00  1.00
A_2g   1.00  1.00  1.00  1.00 -1.00 -1.00  1.00  1.00  1.00  1.00 -1.00 -1.00
B_1g   1.00 -1.00  1.00 -1.00  1.00 -1.00  1.00 -1.00  1.00 -1.00  1.00 -1.00
B_2g   1.00 -1.00  1.00 -1.00 -1.00  1.00  1.00 -1.00  1.00 -1.00 -1.00  1.00
E_1g   2.00  1.00 -1.00 -2.00  0.00  0.00  2.00  1.00 -1.00 -2.00  0.00  0.00
E_2g   2.00 -1.00 -1.00  2.00  0.00  0.00  2.00 -1.00 -1.00  2.00  0.00  0.00
A_1u   1.00  1.00  1.00  1.00  1.00  1.00 -1.00 -1.00 -1.00 -1.00 -1.00 -1.00
A_2u   1.00  1.00  1.00  1.00 -1.00 -1.00 -1.00 -1.00 -1.00 -1.00  1.00  1.00
B_1u   1.00 -1.00  1.00 -1.00  1.00 -1.00 -1.00  1.00 -1.00  1.00 -1.00  1.00
B_2u   1.00 -1.00  1.00 -1.00 -1.00  1.00 -1.00  1.00 -1.00  1.00  1.00 -1.00
E_1u   2.00  1.00 -1.00 -2.00  0.00  0.00 -2.00 -1.00  1.00  2.00  0.00  0.00
E_2u   2.00 -1.00 -1.00  2.00  0.00  0.00 -2.00  1.00  1.00 -2.00  0.00  0.00

     the symmetry operations in each class and the name of the first element:

     E        1
          identity                                               
     2C6      5    6
           60 deg rotation - cryst. axis [0,0,1]                 
     2C3      7    8
          120 deg rotation - cryst. axis [0,0,1]                 
     C2       2
          180 deg rotation - cart. axis [0,0,1]                  
     3C2'     4   12   11
          180 deg rotation - cart. axis [1,0,0]                  
     3C2''    3    9   10
          180 deg rotation - cart. axis [0,1,0]                  
     i       13
          inversion                                              
     2S3     17   18
          inv.  60 deg rotation - cryst. axis [0,0,1]            
     2S6     19   20
          inv. 120 deg rotation - cryst. axis [0,0,1]            
     s_h     14
          inv. 180 deg rotation - cart. axis [0,0,1]             
     3s_d    16   24   23
          inv. 180 deg rotation - cart. axis [1,0,0]             
     3s_v    15   21   22
          inv. 180 deg rotation - cart. axis [0,1,0]             

   Cartesian axes

     site n.     atom                  positions (alat units)
         1           Co  tau(   1) = (  -0.0000000   0.5773503   0.4100610  )
         2           Co  tau(   2) = (   0.5000000   0.2886751   1.2301829  )

   Crystallographic axes

     site n.     atom                  positions (cryst. coord.)
         1           Co  tau(   1) = (  0.3333333  0.6666667  0.2500000  )
         2           Co  tau(   2) = (  0.6666667  0.3333333  0.7500000  )

     number of k points=    76  Gaussian smearing, width (Ry)=  0.0010
                       cart. coord. in units 2pi/alat
        k(    1) = (   0.0000000   0.0000000   0.0000000), wk =   0.0011574
        k(    2) = (   0.0000000   0.0000000   0.1016109), wk =   0.0023148
        k(    3) = (   0.0000000   0.0000000   0.2032218), wk =   0.0023148
        k(    4) = (   0.0000000   0.0000000  -0.3048327), wk =   0.0011574
        k(    5) = (   0.0000000   0.0962250   0.0000000), wk =   0.0069444
        k(    6) = (   0.0000000   0.0962250   0.1016109), wk =   0.0138889
        k(    7) = (   0.0000000   0.0962250   0.2032218), wk =   0.0138889
        k(    8) = (   0.0000000   0.0962250  -0.3048327), wk =   0.0069444
        k(    9) = (   0.0000000   0.1924501   0.0000000), wk =   0.0069444
        k(   10) = (   0.0000000   0.1924501   0.1016109), wk =   0.0138889
        k(   11) = (   0.0000000   0.1924501   0.2032218), wk =   0.0138889
        k(   12) = (   0.0000000   0.1924501  -0.3048327), wk =   0.0069444
        k(   13) = (   0.0000000   0.2886751   0.0000000), wk =   0.0069444
        k(   14) = (   0.0000000   0.2886751   0.1016109), wk =   0.0138889
        k(   15) = (   0.0000000   0.2886751   0.2032218), wk =   0.0138889
        k(   16) = (   0.0000000   0.2886751  -0.3048327), wk =   0.0069444
        k(   17) = (   0.0000000   0.3849002   0.0000000), wk =   0.0069444
        k(   18) = (   0.0000000   0.3849002   0.1016109), wk =   0.0138889
        k(   19) = (   0.0000000   0.3849002   0.2032218), wk =   0.0138889
        k(   20) = (   0.0000000   0.3849002  -0.3048327), wk =   0.0069444
        k(   21) = (   0.0000000   0.4811252   0.0000000), wk =   0.0069444
        k(   22) = (   0.0000000   0.4811252   0.1016109), wk =   0.0138889
        k(   23) = (   0.0000000   0.4811252   0.2032218), wk =   0.0138889
        k(   24) = (   0.0000000   0.4811252  -0.3048327), wk =   0.0069444
        k(   25) = (   0.0000000  -0.5773503   0.0000000), wk =   0.0034722
        k(   26) = (   0.0000000  -0.5773503   0.1016109), wk =   0.0069444
        k(   27) = (   0.0000000  -0.5773503   0.2032218), wk =   0.0069444
        k(   28) = (   0.0000000  -0.5773503  -0.3048327), wk =   0.0034722
        k(   29) = (   0.0833333   0.1443376   0.0000000), wk =   0.0069444
        k(   30) = (   0.0833333   0.1443376   0.1016109), wk =   0.0138889
        k(   31) = (   0.0833333   0.1443376   0.2032218), wk =   0.0138889
        k(   32) = (   0.0833333   0.1443376  -0.3048327), wk =   0.0069444
        k(   33) = (   0.0833333   0.2405626   0.0000000), wk =   0.0138889
        k(   34) = (   0.0833333   0.2405626   0.1016109), wk =   0.0277778
        k(   35) = (   0.0833333   0.2405626   0.2032218), wk =   0.0277778
        k(   36) = (   0.0833333   0.2405626  -0.3048327), wk =   0.0138889
        k(   37) = (   0.0833333   0.3367877   0.0000000), wk =   0.0138889
        k(   38) = (   0.0833333   0.3367877   0.1016109), wk =   0.0277778
        k(   39) = (   0.0833333   0.3367877   0.2032218), wk =   0.0277778
        k(   40) = (   0.0833333   0.3367877  -0.3048327), wk =   0.0138889
        k(   41) = (   0.0833333   0.4330127   0.0000000), wk =   0.0138889
        k(   42) = (   0.0833333   0.4330127   0.1016109), wk =   0.0277778
        k(   43) = (   0.0833333   0.4330127   0.2032218), wk =   0.0277778
        k(   44) = (   0.0833333   0.4330127  -0.3048327), wk =   0.0138889
        k(   45) = (   0.0833333   0.5292377   0.0000000), wk =   0.0138889
        k(   46) = (   0.0833333   0.5292377   0.1016109), wk =   0.0277778
        k(   47) = (   0.0833333   0.5292377   0.2032218), wk =   0.0277778
        k(   48) = (   0.0833333   0.5292377  -0.3048327), wk =   0.0138889
        k(   49) = (   0.1666667   0.2886751   0.0000000), wk =   0.0069444
        k(   50) = (   0.1666667   0.2886751   0.1016109), wk =   0.0138889
        k(   51) = (   0.1666667   0.2886751   0.2032218), wk =   0.0138889
        k(   52) = (   0.1666667   0.2886751  -0.3048327), wk =   0.0069444
        k(   53) = (   0.1666667   0.3849002   0.0000000), wk =   0.0138889
        k(   54) = (   0.1666667   0.3849002   0.1016109), wk =   0.0277778
        k(   55) = (   0.1666667   0.3849002   0.2032218), wk =   0.0277778
        k(   56) = (   0.1666667   0.3849002  -0.3048327), wk =   0.0138889
        k(   57) = (   0.1666667   0.4811252   0.0000000), wk =   0.0138889
        k(   58) = (   0.1666667   0.4811252   0.1016109), wk =   0.0277778
        k(   59) = (   0.1666667   0.4811252   0.2032218), wk =   0.0277778
        k(   60) = (   0.1666667   0.4811252  -0.3048327), wk =   0.0138889
        k(   61) = (   0.1666667   0.5773503   0.0000000), wk =   0.0069444
        k(   62) = (   0.1666667   0.5773503   0.1016109), wk =   0.0138889
        k(   63) = (   0.1666667   0.5773503   0.2032218), wk =   0.0138889
        k(   64) = (   0.1666667   0.5773503  -0.3048327), wk =   0.0069444
        k(   65) = (   0.2500000   0.4330127   0.0000000), wk =   0.0069444
        k(   66) = (   0.2500000   0.4330127   0.1016109), wk =   0.0138889
        k(   67) = (   0.2500000   0.4330127   0.2032218), wk =   0.0138889
        k(   68) = (   0.2500000   0.4330127  -0.3048327), wk =   0.0069444
        k(   69) = (   0.2500000   0.5292377   0.0000000), wk =   0.0138889
        k(   70) = (   0.2500000   0.5292377   0.1016109), wk =   0.0277778
        k(   71) = (   0.2500000   0.5292377   0.2032218), wk =   0.0277778
        k(   72) = (   0.2500000   0.5292377  -0.3048327), wk =   0.0138889
        k(   73) = (   0.3333333   0.5773503   0.0000000), wk =   0.0023148
        k(   74) = (   0.3333333   0.5773503   0.1016109), wk =   0.0046296
        k(   75) = (   0.3333333   0.5773503   0.2032218), wk =   0.0046296
        k(   76) = (   0.3333333   0.5773503  -0.3048327), wk =   0.0023148

                       cryst. coord.
        k(    1) = (   0.0000000   0.0000000   0.0000000), wk =   0.0011574
        k(    2) = (   0.0000000   0.0000000   0.1666667), wk =   0.0023148
        k(    3) = (   0.0000000   0.0000000   0.3333333), wk =   0.0023148
        k(    4) = (   0.0000000   0.0000000  -0.5000000), wk =   0.0011574
        k(    5) = (   0.0000000   0.0833333   0.0000000), wk =   0.0069444
        k(    6) = (   0.0000000   0.0833333   0.1666667), wk =   0.0138889
        k(    7) = (   0.0000000   0.0833333   0.3333333), wk =   0.0138889
        k(    8) = (   0.0000000   0.0833333  -0.5000000), wk =   0.0069444
        k(    9) = (   0.0000000   0.1666667   0.0000000), wk =   0.0069444
        k(   10) = (   0.0000000   0.1666667   0.1666667), wk =   0.0138889
        k(   11) = (   0.0000000   0.1666667   0.3333333), wk =   0.0138889
        k(   12) = (   0.0000000   0.1666667  -0.5000000), wk =   0.0069444
        k(   13) = (   0.0000000   0.2500000   0.0000000), wk =   0.0069444
        k(   14) = (   0.0000000   0.2500000   0.1666667), wk =   0.0138889
        k(   15) = (   0.0000000   0.2500000   0.3333333), wk =   0.0138889
        k(   16) = (   0.0000000   0.2500000  -0.5000000), wk =   0.0069444
        k(   17) = (   0.0000000   0.3333333   0.0000000), wk =   0.0069444
        k(   18) = (   0.0000000   0.3333333   0.1666667), wk =   0.0138889
        k(   19) = (   0.0000000   0.3333333   0.3333333), wk =   0.0138889
        k(   20) = (   0.0000000   0.3333333  -0.5000000), wk =   0.0069444
        k(   21) = (   0.0000000   0.4166667   0.0000000), wk =   0.0069444
        k(   22) = (   0.0000000   0.4166667   0.1666667), wk =   0.0138889
        k(   23) = (   0.0000000   0.4166667   0.3333333), wk =   0.0138889
        k(   24) = (   0.0000000   0.4166667  -0.5000000), wk =   0.0069444
        k(   25) = (   0.0000000  -0.5000000   0.0000000), wk =   0.0034722
        k(   26) = (   0.0000000  -0.5000000   0.1666667), wk =   0.0069444
        k(   27) = (   0.0000000  -0.5000000   0.3333333), wk =   0.0069444
        k(   28) = (   0.0000000  -0.5000000  -0.5000000), wk =   0.0034722
        k(   29) = (   0.0833333   0.0833333   0.0000000), wk =   0.0069444
        k(   30) = (   0.0833333   0.0833333   0.1666667), wk =   0.0138889
        k(   31) = (   0.0833333   0.0833333   0.3333333), wk =   0.0138889
        k(   32) = (   0.0833333   0.0833333  -0.5000000), wk =   0.0069444
        k(   33) = (   0.0833333   0.1666667   0.0000000), wk =   0.0138889
        k(   34) = (   0.0833333   0.1666667   0.1666667), wk =   0.0277778
        k(   35) = (   0.0833333   0.1666667   0.3333333), wk =   0.0277778
        k(   36) = (   0.0833333   0.1666667  -0.5000000), wk =   0.0138889
        k(   37) = (   0.0833333   0.2500000   0.0000000), wk =   0.0138889
        k(   38) = (   0.0833333   0.2500000   0.1666667), wk =   0.0277778
        k(   39) = (   0.0833333   0.2500000   0.3333333), wk =   0.0277778
        k(   40) = (   0.0833333   0.2500000  -0.5000000), wk =   0.0138889
        k(   41) = (   0.0833333   0.3333333   0.0000000), wk =   0.0138889
        k(   42) = (   0.0833333   0.3333333   0.1666667), wk =   0.0277778
        k(   43) = (   0.0833333   0.3333333   0.3333333), wk =   0.0277778
        k(   44) = (   0.0833333   0.3333333  -0.5000000), wk =   0.0138889
        k(   45) = (   0.0833333   0.4166667   0.0000000), wk =   0.0138889
        k(   46) = (   0.0833333   0.4166667   0.1666667), wk =   0.0277778
        k(   47) = (   0.0833333   0.4166667   0.3333333), wk =   0.0277778
        k(   48) = (   0.0833333   0.4166667  -0.5000000), wk =   0.0138889
        k(   49) = (   0.1666667   0.1666667   0.0000000), wk =   0.0069444
        k(   50) = (   0.1666667   0.1666667   0.1666667), wk =   0.0138889
        k(   51) = (   0.1666667   0.1666667   0.3333333), wk =   0.0138889
        k(   52) = (   0.1666667   0.1666667  -0.5000000), wk =   0.0069444
        k(   53) = (   0.1666667   0.2500000   0.0000000), wk =   0.0138889
        k(   54) = (   0.1666667   0.2500000   0.1666667), wk =   0.0277778
        k(   55) = (   0.1666667   0.2500000   0.3333333), wk =   0.0277778
        k(   56) = (   0.1666667   0.2500000  -0.5000000), wk =   0.0138889
        k(   57) = (   0.1666667   0.3333333   0.0000000), wk =   0.0138889
        k(   58) = (   0.1666667   0.3333333   0.1666667), wk =   0.0277778
        k(   59) = (   0.1666667   0.3333333   0.3333333), wk =   0.0277778
        k(   60) = (   0.1666667   0.3333333  -0.5000000), wk =   0.0138889
        k(   61) = (   0.1666667   0.4166667   0.0000000), wk =   0.0069444
        k(   62) = (   0.1666667   0.4166667   0.1666667), wk =   0.0138889
        k(   63) = (   0.1666667   0.4166667   0.3333333), wk =   0.0138889
        k(   64) = (   0.1666667   0.4166667  -0.5000000), wk =   0.0069444
        k(   65) = (   0.2500000   0.2500000   0.0000000), wk =   0.0069444
        k(   66) = (   0.2500000   0.2500000   0.1666667), wk =   0.0138889
        k(   67) = (   0.2500000   0.2500000   0.3333333), wk =   0.0138889
        k(   68) = (   0.2500000   0.2500000  -0.5000000), wk =   0.0069444
        k(   69) = (   0.2500000   0.3333333   0.0000000), wk =   0.0138889
        k(   70) = (   0.2500000   0.3333333   0.1666667), wk =   0.0277778
        k(   71) = (   0.2500000   0.3333333   0.3333333), wk =   0.0277778
        k(   72) = (   0.2500000   0.3333333  -0.5000000), wk =   0.0138889
        k(   73) = (   0.3333333   0.3333333   0.0000000), wk =   0.0023148
        k(   74) = (   0.3333333   0.3333333   0.1666667), wk =   0.0046296
        k(   75) = (   0.3333333   0.3333333   0.3333333), wk =   0.0046296
        k(   76) = (   0.3333333   0.3333333  -0.5000000), wk =   0.0023148

     Dense  grid:    23079 G-vectors     FFT dimensions: (  32,  32,  54)

     Smooth grid:    22227 G-vectors     FFT dimensions: (  32,  32,  54)

     Dynamical RAM for                 wfc:       0.04 MB

     Dynamical RAM for     wfc (w. buffer):       6.81 MB

     Dynamical RAM for           str. fact:       0.02 MB

     Dynamical RAM for           local pot:       0.00 MB

     Dynamical RAM for          nlocal pot:       0.08 MB

     Dynamical RAM for                qrad:       1.70 MB

     Dynamical RAM for          rho,v,vnew:       0.25 MB

     Dynamical RAM for               rhoin:       0.08 MB

     Dynamical RAM for            rho*nmix:       0.56 MB

     Dynamical RAM for           G-vectors:       0.07 MB

     Dynamical RAM for          h,s,v(r/c):       0.08 MB

     Dynamical RAM for          <psi|beta>:       0.01 MB

     Dynamical RAM for                 psi:       0.09 MB

     Dynamical RAM for                hpsi:       0.09 MB

     Dynamical RAM for                spsi:       0.09 MB

     Dynamical RAM for      wfcinit/wfcrot:       0.10 MB

     Dynamical RAM for           addusdens:       3.34 MB

     Estimated static dynamical RAM per process >       9.19 MB

     Estimated max dynamical RAM per process >      13.09 MB

     Estimated total dynamical RAM >     261.84 MB

     Check: negative core charge=   -0.000042
     Generating pointlists ...
     new r_m :   0.4125 (alat units)  1.9176 (a.u.) for type    1

     The initial density is read from file :
     ./out/Co.save/charge-density


     starting charge      34.0422, renormalised to      34.0000
     Starting wfcs from file
     Checking if some PAW data can be deallocated... 

     total cpu time spent up to now is        0.6 secs

     Self-consistent Calculation

     iteration #  1     ecut=   110.00 Ry     beta= 0.70
     Davidson diagonalization with overlap

---- Real-time Memory Report at c_bands before calling an iterative solver
            56 MiB given to the printing process from OS
             0 MiB allocation reported by mallinfo(arena+hblkhd)
        240893 MiB available memory on the node where the printing process lives
------------------
     ethr =  1.00E-05,  avg # of iterations =  2.5

     total cpu time spent up to now is        2.5 secs

     total energy              =    -753.45380619 Ry
     estimated scf accuracy    <       0.00067562 Ry

     total magnetization       =     3.22 Bohr mag/cell
     absolute magnetization    =     3.53 Bohr mag/cell

     iteration #  2     ecut=   110.00 Ry     beta= 0.70
     Davidson diagonalization with overlap

---- Real-time Memory Report at c_bands before calling an iterative solver
            74 MiB given to the printing process from OS
             0 MiB allocation reported by mallinfo(arena+hblkhd)
        240682 MiB available memory on the node where the printing process lives
------------------
     ethr =  1.99E-06,  avg # of iterations =  4.3

     total cpu time spent up to now is        4.7 secs

     total energy              =    -753.45402621 Ry
     estimated scf accuracy    <       0.00140577 Ry

     total magnetization       =     3.23 Bohr mag/cell
     absolute magnetization    =     3.54 Bohr mag/cell

     iteration #  3     ecut=   110.00 Ry     beta= 0.70
     Davidson diagonalization with overlap

---- Real-time Memory Report at c_bands before calling an iterative solver
            76 MiB given to the printing process from OS
             0 MiB allocation reported by mallinfo(arena+hblkhd)
        240670 MiB available memory on the node where the printing process lives
------------------
     ethr =  1.99E-06,  avg # of iterations =  3.9

     total cpu time spent up to now is        6.5 secs

     total energy              =    -753.45435655 Ry
     estimated scf accuracy    <       0.00000378 Ry

     total magnetization       =     3.22 Bohr mag/cell
     absolute magnetization    =     3.53 Bohr mag/cell

     iteration #  4     ecut=   110.00 Ry     beta= 0.70
     Davidson diagonalization with overlap

---- Real-time Memory Report at c_bands before calling an iterative solver
            78 MiB given to the printing process from OS
             0 MiB allocation reported by mallinfo(arena+hblkhd)
        240659 MiB available memory on the node where the printing process lives
------------------
     ethr =  1.11E-08,  avg # of iterations =  7.6

     total cpu time spent up to now is        9.7 secs

     total energy              =    -753.45437108 Ry
     estimated scf accuracy    <       0.00000700 Ry

     total magnetization       =     3.22 Bohr mag/cell
     absolute magnetization    =     3.53 Bohr mag/cell

     iteration #  5     ecut=   110.00 Ry     beta= 0.70
     Davidson diagonalization with overlap

---- Real-time Memory Report at c_bands before calling an iterative solver
            79 MiB given to the printing process from OS
             0 MiB allocation reported by mallinfo(arena+hblkhd)
        240649 MiB available memory on the node where the printing process lives
------------------
     ethr =  1.11E-08,  avg # of iterations =  3.6
 
     Magnetic moment per site  (integrated on atomic sphere of radius R)
     atom   1 (R=0.413)  charge= 15.5795  magn=  1.6830
     atom   2 (R=0.413)  charge= 15.5795  magn=  1.6830

     total cpu time spent up to now is       11.4 secs

     End of self-consistent calculation

 ------ SPIN UP ------------


          k = 0.0000 0.0000 0.0000 (  2779 PWs)   bands (ev):

   -76.8507 -76.7911 -40.2617 -39.9406 -39.9406 -39.9155 -39.8927 -39.8927
    10.1209  13.9524  16.5308  16.6371  16.6371  16.9489  16.9489  17.3584
    17.3584  18.4560  18.4560  18.8587  25.6029

     occupation numbers 
     1.0000   1.0000   1.0000   1.0000   1.0000   1.0000   1.0000   1.0000
     1.0000   1.0000   1.0000   1.0000   1.0000   1.0000   1.0000   1.0000
     1.0000   1.0000   1.0000   1.0000   0.0000

          k = 0.0000 0.0000 0.1016 (  2773 PWs)   bands (ev):

   -76.8467 -76.7951 -40.2388 -39.9390 -39.9374 -39.9374 -39.8959 -39.8959
    10.3980  13.8758  16.4604  16.5792  16.5792  16.8782  16.8782  17.5142
    17.5142  17.9374  18.4369  18.4369  27.0930

     occupation numbers 
     1.0000   1.0000   1.0000   1.0000   1.0000   1.0000   1.0000   1.0000
     1.0000   1.0000   1.0000   1.0000   1.0000   1.0000   1.0000   1.0000
     1.0000   1.0000   1.0000   1.0000   0.0000

          k = 0.0000 0.0000 0.2032 (  2816 PWs)   bands (ev):

   -76.8358 -76.8060 -40.1761 -40.0030 -39.9286 -39.9286 -39.9047 -39.9047
    11.1921  13.4194  16.2980  16.5293  16.5293  16.6586  16.7214  16.7214
    17.8296  17.8296  18.3443  18.3443  30.2740

     occupation numbers 
     1.0000   1.0000   1.0000   1.0000   1.0000   1.0000   1.0000   1.0000
     1.0000   1.0000   1.0000   1.0000   1.0000   1.0000   1.0000   1.0000
     1.0000   1.0000   1.0000   1.0000   0.0000

          k = 0.0000 0.0000-0.3048 (  2810 PWs)   bands (ev):

   -76.8209 -76.8209 -40.0899 -40.0899 -39.9167 -39.9167 -39.9167 -39.9167
    12.3483  12.3483  16.2203  16.2203  16.5808  16.5808  16.5808  16.5808
    18.1354  18.1354  18.1354  18.1354  34.0842

     occupation numbers 
     1.0000   1.0000   1.0000   1.0000   1.0000   1.0000   1.0000   1.0000
     1.0000   1.0000   1.0000   1.0000   1.0000   1.0000   1.0000   1.0000
     1.0000   1.0000   1.0000   1.0000   0.0000

          k = 0.0000 0.0962 0.0000 (  2785 PWs)   bands (ev):

   -76.8470 -76.7892 -40.2540 -39.9585 -39.9463 -39.9184 -39.9112 -39.8958
    10.3699  14.1067  16.3652  16.7572  16.7666  16.8943  17.0561  17.1706
    17.2844  17.5670  18.4859  20.0970  25.6409

     occupation numbers 
     1.0000   1.0000   1.0000   1.0000   1.0000   1.0000   1.0000   1.0000
     1.0000   1.0000   1.0000   1.0000   1.0000   1.0000   1.0000   1.0000
     1.0000   1.0000   1.0000   0.0000   0.0000

          k = 0.0000 0.0962 0.1016 (  2786 PWs)   bands (ev):

   -76.8432 -76.7931 -40.2323 -39.9550 -39.9460 -39.9429 -39.9095 -39.8992
    10.6426  14.0446  16.3646  16.6000  16.6841  16.7036  16.9797  17.2291
    17.4656  17.5228  18.4594  19.3733  27.2015

     occupation numbers 
     1.0000   1.0000   1.0000   1.0000   1.0000   1.0000   1.0000   1.0000
     1.0000   1.0000   1.0000   1.0000   1.0000   1.0000   1.0000   1.0000
     1.0000   1.0000   1.0000   0.0000   0.0000

          k = 0.0000 0.0962 0.2032 (  2795 PWs)   bands (ev):

   -76.8326 -76.8037 -40.1730 -40.0087 -39.9446 -39.9337 -39.9176 -39.9084
    11.4238  13.6153  16.2378  16.2855  16.4427  16.6264  16.8212  16.8484
    17.8013  17.8443  18.3498  18.6427  30.4303

     occupation numbers 
     1.0000   1.0000   1.0000   1.0000   1.0000   1.0000   1.0000   1.0000
     1.0000   1.0000   1.0000   1.0000   1.0000   1.0000   1.0000   1.0000
     1.0000   1.0000   1.0000   1.0000   0.0000

          k = 0.0000 0.0962-0.3048 (  2790 PWs)   bands (ev):

   -76.8182 -76.8182 -40.0913 -40.0913 -39.9309 -39.9309 -39.9211 -39.9211
    12.5614  12.5614  16.0869  16.0869  16.5768  16.5768  16.6789  16.6789
    18.1230  18.1230  18.2267  18.2267  34.2578

     occupation numbers 
     1.0000   1.0000   1.0000   1.0000   1.0000   1.0000   1.0000   1.0000
     1.0000   1.0000   1.0000   1.0000   1.0000   1.0000   1.0000   1.0000
     1.0000   1.0000   1.0000   1.0000   0.0000

          k = 0.0000 0.1925 0.0000 (  2773 PWs)   bands (ev):

   -76.8369 -76.7844 -40.2320 -40.0078 -39.9616 -39.9614 -39.9273 -39.9045
    11.0890  14.4888  16.0957  16.3499  16.6952  17.0803  17.0965  17.1022
    17.2521  17.3569  18.5484  21.7294  25.7764

     occupation numbers 
     1.0000   1.0000   1.0000   1.0000   1.0000   1.0000   1.0000   1.0000
     1.0000   1.0000   1.0000   1.0000   1.0000   1.0000   1.0000   1.0000
     1.0000   1.0000   1.0000   0.0000   0.0000

          k = 0.0000 0.1925 0.1016 (  2776 PWs)   bands (ev):

   -76.8334 -76.7879 -40.2145 -40.0027 -39.9808 -39.9578 -39.9310 -39.9084
    11.3452  14.4713  16.0721  16.1383  16.5728  16.9174  16.9623  17.2437
    17.4335  17.5066  18.5057  20.6238  27.5563

     occupation numbers 
     1.0000   1.0000   1.0000   1.0000   1.0000   1.0000   1.0000   1.0000
     1.0000   1.0000   1.0000   1.0000   1.0000   1.0000   1.0000   1.0000
     1.0000   1.0000   1.0000   0.0000   0.0000

          k = 0.0000 0.1925 0.2032 (  2784 PWs)   bands (ev):

   -76.8238 -76.7975 -40.1665 -40.0334 -39.9856 -39.9474 -39.9444 -39.9188
    12.0758  14.1213  15.7340  16.2016  16.2810  16.7855  16.8655  17.0970
    17.7692  17.9232  18.3610  19.2917  30.8988

     occupation numbers 
     1.0000   1.0000   1.0000   1.0000   1.0000   1.0000   1.0000   1.0000
     1.0000   1.0000   1.0000   1.0000   1.0000   1.0000   1.0000   1.0000
     1.0000   1.0000   1.0000   0.0000   0.0000

          k = 0.0000 0.1925-0.3048 (  2780 PWs)   bands (ev):

   -76.8107 -76.8107 -40.1004 -40.1004 -39.9648 -39.9648 -39.9331 -39.9331
    13.1341  13.1341  15.8608  15.8608  16.5035  16.5035  16.9402  16.9402
    18.1042  18.1042  18.4733  18.4733  34.7383

     occupation numbers 
     1.0000   1.0000   1.0000   1.0000   1.0000   1.0000   1.0000   1.0000
     1.0000   1.0000   1.0000   1.0000   1.0000   1.0000   1.0000   1.0000
     1.0000   1.0000   1.0000   1.0000   0.0000

          k = 0.0000 0.2887 0.0000 (  2775 PWs)   bands (ev):

   -76.8225 -76.7782 -40.1990 -40.0757 -40.0289 -39.9819 -39.9422 -39.9170
    12.1739  14.7930  15.6008  15.9333  16.5813  16.8831  17.0350  17.5347
    17.5893  17.7894  18.6057  23.5562  26.0439

     occupation numbers 
     1.0000   1.0000   1.0000   1.0000   1.0000   1.0000   1.0000   1.0000
     1.0000   1.0000   1.0000   1.0000   1.0000   1.0000   1.0000   1.0000
     1.0000   1.0000   1.0000   0.0000   0.0000

          k = 0.0000 0.2887 0.1016 (  2776 PWs)   bands (ev):

   -76.8196 -76.7812 -40.1912 -40.0657 -40.0427 -39.9776 -39.9466 -39.9214
    12.3855  14.8290  15.4575  15.9879  16.4307  16.9230  17.0281  17.6306
    17.6699  17.7474  18.5492  21.9228  28.1992

     occupation numbers 
     1.0000   1.0000   1.0000   1.0000   1.0000   1.0000   1.0000   1.0000
     1.0000   1.0000   1.0000   1.0000   1.0000   1.0000   1.0000   1.0000
     1.0000   1.0000   1.0000   0.0000   0.0000

          k = 0.0000 0.2887 0.2032 (  2775 PWs)   bands (ev):

   -76.8115 -76.7893 -40.1673 -40.0858 -40.0300 -39.9658 -39.9635 -39.9333
    12.9750  14.5654  15.3966  16.0049  16.3128  16.8639  17.0477  17.4844
    17.8969  18.0795  18.3869  20.0704  31.5701

     occupation numbers 
     1.0000   1.0000   1.0000   1.0000   1.0000   1.0000   1.0000   1.0000
     1.0000   1.0000   1.0000   1.0000   1.0000   1.0000   1.0000   1.0000
     1.0000   1.0000   1.0000   0.0000   0.0000

          k = 0.0000 0.2887-0.3048 (  2772 PWs)   bands (ev):

   -76.8004 -76.8004 -40.1295 -40.1295 -39.9939 -39.9939 -39.9495 -39.9495
    13.7935  13.7935  15.6996  15.6996  16.5661  16.5661  17.2500  17.2500
    18.1495  18.1495  18.8203  18.8203  33.9827

     occupation numbers 
     1.0000   1.0000   1.0000   1.0000   1.0000   1.0000   1.0000   1.0000
     1.0000   1.0000   1.0000   1.0000   1.0000   1.0000   1.0000   1.0000
     1.0000   1.0000   1.0000   1.0000   0.0000

          k = 0.0000 0.3849 0.0000 (  2786 PWs)   bands (ev):

   -76.8072 -76.7730 -40.1606 -40.1441 -40.0952 -40.0018 -39.9626 -39.9299
    13.3504  14.7167  15.0645  16.0491  16.6858  16.7103  16.8333  18.1164
    18.2577  18.2645  18.6432  25.5422  26.1406

     occupation numbers 
     1.0000   1.0000   1.0000   1.0000   1.0000   1.0000   1.0000   1.0000
     1.0000   1.0000   1.0000   1.0000   1.0000   1.0000   1.0000   1.0000
     1.0000   1.0000   1.0000   0.0000   0.0000

          k = 0.0000 0.3849 0.1016 (  2776 PWs)   bands (ev):

   -76.8049 -76.7753 -40.1839 -40.1184 -40.0964 -39.9970 -39.9638 -39.9347
    13.4440  14.7375  15.1082  15.8881  16.6455  16.7799  17.1913  18.1287
    18.1668  18.2004  18.5943  23.1780  28.4275

     occupation numbers 
     1.0000   1.0000   1.0000   1.0000   1.0000   1.0000   1.0000   1.0000
     1.0000   1.0000   1.0000   1.0000   1.0000   1.0000   1.0000   1.0000
     1.0000   1.0000   1.0000   0.0000   0.0000

          k = 0.0000 0.3849 0.2032 (  2774 PWs)   bands (ev):

   -76.7987 -76.7815 -40.1918 -40.1465 -40.0493 -39.9839 -39.9750 -39.9479
    13.7118  14.5433  15.2636  15.7781  16.7687  17.0453  17.5166  17.8361
    18.2375  18.3166  18.4852  20.9629  29.6495

     occupation numbers 
     1.0000   1.0000   1.0000   1.0000   1.0000   1.0000   1.0000   1.0000
     1.0000   1.0000   1.0000   1.0000   1.0000   1.0000   1.0000   1.0000
     1.0000   1.0000   1.0000   0.0000   0.0000

          k = 0.0000 0.3849-0.3048 (  2772 PWs)   bands (ev):

   -76.7901 -76.7901 -40.1770 -40.1770 -40.0043 -40.0043 -39.9659 -39.9659
    14.1125  14.1125  15.5558  15.5558  17.1956  17.1956  17.4285  17.4285
    18.3574  18.3574  19.3038  19.3038  30.7615

     occupation numbers 
     1.0000   1.0000   1.0000   1.0000   1.0000   1.0000   1.0000   1.0000
     1.0000   1.0000   1.0000   1.0000   1.0000   1.0000   1.0000   1.0000
     1.0000   1.0000   0.0000   0.0000   0.0000

          k = 0.0000 0.4811 0.0000 (  2778 PWs)   bands (ev):

   -76.7947 -76.7704 -40.1945 -40.1430 -40.1252 -40.0162 -39.9848 -39.9395
    14.1133  14.5187  14.7454  16.4183  16.5510  16.6897  16.9304  18.5128
    18.6442  18.6622  19.4280  24.4177  27.5896

     occupation numbers 
     1.0000   1.0000   1.0000   1.0000   1.0000   1.0000   1.0000   1.0000
     1.0000   1.0000   1.0000   1.0000   1.0000   1.0000   1.0000   1.0000
     1.0000   1.0000   0.0000   0.0000   0.0000

          k = 0.0000 0.4811 0.1016 (  2773 PWs)   bands (ev):

   -76.7931 -76.7720 -40.2115 -40.1599 -40.0940 -40.0110 -39.9819 -39.9446
    13.9955  14.5038  15.0726  15.7731  16.6654  16.9401  17.5626  18.4174
    18.5399  18.7000  19.2598  23.5656  27.0470

     occupation numbers 
     1.0000   1.0000   1.0000   1.0000   1.0000   1.0000   1.0000   1.0000
     1.0000   1.0000   1.0000   1.0000   1.0000   1.0000   1.0000   1.0000
     1.0000   1.0000   0.0227   0.0000   0.0000

          k = 0.0000 0.4811 0.2032 (  2785 PWs)   bands (ev):

   -76.7886 -76.7765 -40.2257 -40.1920 -40.0450 -39.9970 -39.9844 -39.9587
    13.9543  14.4277  15.2472  15.5658  16.9900  17.2140  17.9903  18.5743
    18.5807  18.6753  18.8960  21.8077  27.2382

     occupation numbers 
     1.0000   1.0000   1.0000   1.0000   1.0000   1.0000   1.0000   1.0000
     1.0000   1.0000   1.0000   1.0000   1.0000   1.0000   1.0000   1.0000
     1.0000   1.0000   1.0000   0.0000   0.0000

          k = 0.0000 0.4811-0.3048 (  2786 PWs)   bands (ev):

   -76.7825 -76.7825 -40.2183 -40.2183 -40.0052 -40.0052 -39.9779 -39.9779
    14.1362  14.1362  15.4237  15.4237  17.4662  17.4662  17.9495  17.9495
    18.6261  18.6261  20.1374  20.1374  28.0124

     occupation numbers 
     1.0000   1.0000   1.0000   1.0000   1.0000   1.0000   1.0000   1.0000
     1.0000   1.0000   1.0000   1.0000   1.0000   1.0000   1.0000   1.0000
     1.0000   1.0000   0.0000   0.0000   0.0000

          k = 0.0000-0.5774 0.0000 (  2766 PWs)   bands (ev):

   -76.7895 -76.7700 -40.2129 -40.1603 -40.1087 -40.0214 -39.9965 -39.9430
    14.3568  14.3861  14.6397  16.5033  16.6378  16.6795  17.0069  18.6564
    18.6678  18.8007  20.6112  22.6943  28.9172

     occupation numbers 
     1.0000   1.0000   1.0000   1.0000   1.0000   1.0000   1.0000   1.0000
     1.0000   1.0000   1.0000   1.0000   1.0000   1.0000   1.0000   1.0000
     1.0000   1.0000   0.0000   0.0000   0.0000

          k = 0.0000-0.5774 0.1016 (  2780 PWs)   bands (ev):

   -76.7882 -76.7713 -40.2266 -40.1764 -40.0840 -40.0161 -39.9913 -39.9483
    14.0913  14.4048  15.1047  15.7439  16.6236  17.0283  17.7760  18.4676
    18.6905  18.7931  20.3818  22.4972  28.1107

     occupation numbers 
     1.0000   1.0000   1.0000   1.0000   1.0000   1.0000   1.0000   1.0000
     1.0000   1.0000   1.0000   1.0000   1.0000   1.0000   1.0000   1.0000
     1.0000   1.0000   0.0000   0.0000   0.0000

          k = 0.0000-0.5774 0.2032 (  2772 PWs)   bands (ev):

   -76.7847 -76.7749 -40.2402 -40.2087 -40.0400 -40.0018 -39.9890 -39.9627
    13.9711  14.3818  15.2766  15.4663  16.9651  17.3601  18.0202  18.7046
    18.7136  18.7721  20.0000  21.8477  27.1031

     occupation numbers 
     1.0000   1.0000   1.0000   1.0000   1.0000   1.0000   1.0000   1.0000
     1.0000   1.0000   1.0000   1.0000   1.0000   1.0000   1.0000   1.0000
     1.0000   1.0000   0.0000   0.0000   0.0000

          k = 0.0000-0.5774-0.3048 (  2780 PWs)   bands (ev):

   -76.7798 -76.7798 -40.2341 -40.2341 -40.0047 -40.0047 -39.9823 -39.9823
    14.1180  14.1180  15.3727  15.3727  17.4670  17.4670  18.1997  18.1997
    18.7431  18.7431  20.7936  20.7936  26.7427

     occupation numbers 
     1.0000   1.0000   1.0000   1.0000   1.0000   1.0000   1.0000   1.0000
     1.0000   1.0000   1.0000   1.0000   1.0000   1.0000   1.0000   1.0000
     1.0000   1.0000   0.0000   0.0000   0.0000

          k = 0.0833 0.1443 0.0000 (  2779 PWs)   bands (ev):

   -76.8401 -76.7859 -40.2391 -39.9892 -39.9653 -39.9378 -39.9243 -39.9040
    10.8549  14.3812  16.1533  16.6063  16.7795  16.9179  17.0024  17.0611
    17.2906  17.3901  18.5206  21.2741  25.7297

     occupation numbers 
     1.0000   1.0000   1.0000   1.0000   1.0000   1.0000   1.0000   1.0000
     1.0000   1.0000   1.0000   1.0000   1.0000   1.0000   1.0000   1.0000
     1.0000   1.0000   1.0000   0.0000   0.0000

          k = 0.0833 0.1443 0.1016 (  2778 PWs)   bands (ev):

   -76.8365 -76.7895 -40.2201 -39.9843 -39.9722 -39.9522 -39.9237 -39.9076
    11.1173  14.3492  16.1835  16.2660  16.6223  16.8569  16.9437  17.1551
    17.4451  17.5126  18.4858  20.2846  27.4353

     occupation numbers 
     1.0000   1.0000   1.0000   1.0000   1.0000   1.0000   1.0000   1.0000
     1.0000   1.0000   1.0000   1.0000   1.0000   1.0000   1.0000   1.0000
     1.0000   1.0000   1.0000   0.0000   0.0000

          k = 0.0833 0.1443 0.2032 (  2782 PWs)   bands (ev):

   -76.8266 -76.7995 -40.1681 -40.0238 -39.9713 -39.9489 -39.9317 -39.9175
    11.8676  13.9732  15.8600  16.2468  16.2964  16.7684  16.8250  17.0127
    17.7999  17.8714  18.3597  19.1038  30.7455

     occupation numbers 
     1.0000   1.0000   1.0000   1.0000   1.0000   1.0000   1.0000   1.0000
     1.0000   1.0000   1.0000   1.0000   1.0000   1.0000   1.0000   1.0000
     1.0000   1.0000   1.0000   1.0000   0.0000

          k = 0.0833 0.1443-0.3048 (  2794 PWs)   bands (ev):

   -76.8130 -76.8130 -40.0964 -40.0964 -39.9545 -39.9545 -39.9299 -39.9299
    12.9582  12.9582  15.9196  15.9196  16.5065  16.5065  16.8710  16.8710
    18.1099  18.1099  18.3966  18.3966  34.5934

     occupation numbers 
     1.0000   1.0000   1.0000   1.0000   1.0000   1.0000   1.0000   1.0000
     1.0000   1.0000   1.0000   1.0000   1.0000   1.0000   1.0000   1.0000
     1.0000   1.0000   1.0000   1.0000   0.0000

          k = 0.0833 0.2406 0.0000 (  2771 PWs)   bands (ev):

   -76.8279 -76.7804 -40.2116 -40.0436 -40.0133 -39.9672 -39.9363 -39.9181
    11.7660  14.7737  15.8737  15.8764  16.6368  16.8187  17.1900  17.2376
    17.4499  17.7315  18.5617  22.8988  25.9531

     occupation numbers 
     1.0000   1.0000   1.0000   1.0000   1.0000   1.0000   1.0000   1.0000
     1.0000   1.0000   1.0000   1.0000   1.0000   1.0000   1.0000   1.0000
     1.0000   1.0000   1.0000   0.0000   0.0000

          k = 0.0833 0.2406 0.1016 (  2775 PWs)   bands (ev):

   -76.8247 -76.7836 -40.1990 -40.0366 -40.0230 -39.9713 -39.9384 -39.9219
    12.0001  14.8013  15.6604  15.9291  16.5227  16.8027  17.0547  17.3559
    17.6423  17.7079  18.5220  21.4773  27.9561

     occupation numbers 
     1.0000   1.0000   1.0000   1.0000   1.0000   1.0000   1.0000   1.0000
     1.0000   1.0000   1.0000   1.0000   1.0000   1.0000   1.0000   1.0000
     1.0000   1.0000   1.0000   0.0000   0.0000

          k = 0.0833 0.2406 0.2032 (  2769 PWs)   bands (ev):

   -76.8160 -76.7923 -40.1642 -40.0634 -40.0120 -39.9715 -39.9476 -39.9323
    12.6613  14.5071  15.4829  16.0420  16.2399  16.6779  17.0207  17.3496
    17.8906  17.9968  18.3968  19.8015  31.3643

     occupation numbers 
     1.0000   1.0000   1.0000   1.0000   1.0000   1.0000   1.0000   1.0000
     1.0000   1.0000   1.0000   1.0000   1.0000   1.0000   1.0000   1.0000
     1.0000   1.0000   1.0000   0.0000   0.0000

          k = 0.0833 0.2406-0.3048 (  2790 PWs)   bands (ev):

   -76.8042 -76.8042 -40.1148 -40.1148 -39.9855 -39.9855 -39.9453 -39.9453
    13.6048  13.6048  15.7632  15.7632  16.3917  16.3917  17.1680  17.1680
    18.1550  18.1550  18.6967  18.6967  35.0635

     occupation numbers 
     1.0000   1.0000   1.0000   1.0000   1.0000   1.0000   1.0000   1.0000
     1.0000   1.0000   1.0000   1.0000   1.0000   1.0000   1.0000   1.0000
     1.0000   1.0000   1.0000   1.0000   0.0000

          k = 0.0833 0.3368 0.0000 (  2773 PWs)   bands (ev):

   -76.8130 -76.7747 -40.1756 -40.1100 -40.0716 -39.9950 -39.9542 -39.9333
    12.9360  14.8968  15.2866  15.8123  16.6180  16.6349  17.0217  17.6278
    17.9811  18.3282  18.5952  24.7665  26.3022

     occupation numbers 
     1.0000   1.0000   1.0000   1.0000   1.0000   1.0000   1.0000   1.0000
     1.0000   1.0000   1.0000   1.0000   1.0000   1.0000   1.0000   1.0000
     1.0000   1.0000   1.0000   0.0000   0.0000

          k = 0.0833 0.3368 0.1016 (  2777 PWs)   bands (ev):

   -76.8104 -76.7773 -40.1797 -40.0968 -40.0763 -39.9947 -39.9557 -39.9368
    13.0965  14.9537  15.1983  15.8598  16.4299  16.8522  16.9861  17.6645
    18.0679  18.1816  18.6102  22.7582  28.7163

     occupation numbers 
     1.0000   1.0000   1.0000   1.0000   1.0000   1.0000   1.0000   1.0000
     1.0000   1.0000   1.0000   1.0000   1.0000   1.0000   1.0000   1.0000
     1.0000   1.0000   1.0000   0.0000   0.0000

          k = 0.0833 0.3368 0.2032 (  2773 PWs)   bands (ev):

   -76.8034 -76.7843 -40.1754 -40.1201 -40.0429 -39.9901 -39.9647 -39.9471
    13.5321  14.6874  15.3272  15.9170  16.3491  16.8468  17.0806  17.6869
    18.1229  18.2948  18.5796  20.6646  31.2767

     occupation numbers 
     1.0000   1.0000   1.0000   1.0000   1.0000   1.0000   1.0000   1.0000
     1.0000   1.0000   1.0000   1.0000   1.0000   1.0000   1.0000   1.0000
     1.0000   1.0000   1.0000   0.0000   0.0000

          k = 0.0833 0.3368-0.3048 (  2780 PWs)   bands (ev):

   -76.7939 -76.7939 -40.1534 -40.1534 -40.0047 -40.0047 -39.9620 -39.9620
    14.1179  14.1179  15.6711  15.6711  16.5806  16.5806  17.3647  17.3647
    18.3730  18.3730  19.1610  19.1610  32.4946

     occupation numbers 
     1.0000   1.0000   1.0000   1.0000   1.0000   1.0000   1.0000   1.0000
     1.0000   1.0000   1.0000   1.0000   1.0000   1.0000   1.0000   1.0000
     1.0000   1.0000   1.0000   1.0000   0.0000

          k = 0.0833 0.4330 0.0000 (  2774 PWs)   bands (ev):

   -76.7989 -76.7710 -40.1688 -40.1377 -40.1220 -40.0174 -39.9766 -39.9464
    13.9566  14.7091  14.8917  16.0515  16.4941  16.8005  16.8395  18.1824
    18.4331  18.6147  19.1559  25.7279  26.7920

     occupation numbers 
     1.0000   1.0000   1.0000   1.0000   1.0000   1.0000   1.0000   1.0000
     1.0000   1.0000   1.0000   1.0000   1.0000   1.0000   1.0000   1.0000
     1.0000   1.0000   1.0000   0.0000   0.0000

          k = 0.0833 0.4330 0.1016 (  2781 PWs)   bands (ev):

   -76.7970 -76.7729 -40.1918 -40.1410 -40.0970 -40.0141 -39.9754 -39.9496
    13.9407  14.7202  15.0587  15.7879  16.5709  16.8949  17.1490  18.1324
    18.4313  18.4933  19.1529  23.8595  27.6159

     occupation numbers 
     1.0000   1.0000   1.0000   1.0000   1.0000   1.0000   1.0000   1.0000
     1.0000   1.0000   1.0000   1.0000   1.0000   1.0000   1.0000   1.0000
     1.0000   1.0000   1.0000   0.0000   0.0000

          k = 0.0833 0.4330 0.2032 (  2782 PWs)   bands (ev):

   -76.7919 -76.7780 -40.2058 -40.1708 -40.0495 -40.0034 -39.9810 -39.9583
    14.0117  14.5833  15.2549  15.7307  16.6779  17.1254  17.5605  17.8759
    18.3093  18.6467  19.2078  21.6976  28.3636

     occupation numbers 
     1.0000   1.0000   1.0000   1.0000   1.0000   1.0000   1.0000   1.0000
     1.0000   1.0000   1.0000   1.0000   1.0000   1.0000   1.0000   1.0000
     1.0000   1.0000   0.9997   0.0000   0.0000

          k = 0.0833 0.4330-0.3048 (  2788 PWs)   bands (ev):

   -76.7849 -76.7849 -40.1972 -40.1972 -40.0130 -40.0130 -39.9742 -39.9742
    14.2513  14.2513  15.5404  15.5404  17.1253  17.1253  17.5369  17.5369
    18.5930  18.5930  20.0232  20.0232  29.3969

     occupation numbers 
     1.0000   1.0000   1.0000   1.0000   1.0000   1.0000   1.0000   1.0000
     1.0000   1.0000   1.0000   1.0000   1.0000   1.0000   1.0000   1.0000
     1.0000   1.0000   0.0000   0.0000   0.0000

          k = 0.0833 0.5292 0.0000 (  2778 PWs)   bands (ev):

   -76.7896 -76.7700 -40.2029 -40.1511 -40.1089 -40.0299 -39.9963 -39.9541
    14.4015  14.5415  14.6949  16.4315  16.4586  16.6421  17.0046  18.5874
    18.6226  18.6693  20.4565  23.4747  28.7245

     occupation numbers 
     1.0000   1.0000   1.0000   1.0000   1.0000   1.0000   1.0000   1.0000
     1.0000   1.0000   1.0000   1.0000   1.0000   1.0000   1.0000   1.0000
     1.0000   1.0000   0.0000   0.0000   0.0000

          k = 0.0833 0.5292 0.1016 (  2786 PWs)   bands (ev):

   -76.7883 -76.7713 -40.2167 -40.1677 -40.0854 -40.0234 -39.9926 -39.9573
    14.1772  14.5425  15.1445  15.7281  16.5045  17.0802  17.4318  18.4078
    18.6020  18.6990  20.3786  23.1816  27.5419

     occupation numbers 
     1.0000   1.0000   1.0000   1.0000   1.0000   1.0000   1.0000   1.0000
     1.0000   1.0000   1.0000   1.0000   1.0000   1.0000   1.0000   1.0000
     1.0000   1.0000   0.0000   0.0000   0.0000

          k = 0.0833 0.5292 0.2032 (  2789 PWs)   bands (ev):

   -76.7847 -76.7749 -40.2305 -40.1998 -40.0472 -40.0056 -39.9950 -39.9647
    14.0797  14.5142  15.2859  15.5812  16.6781  17.4341  17.8465  18.1306
    18.5612  18.7627  20.3941  22.2712  26.8790

     occupation numbers 
     1.0000   1.0000   1.0000   1.0000   1.0000   1.0000   1.0000   1.0000
     1.0000   1.0000   1.0000   1.0000   1.0000   1.0000   1.0000   1.0000
     1.0000   1.0000   0.0000   0.0000   0.0000

          k = 0.0833 0.5292-0.3048 (  2772 PWs)   bands (ev):

   -76.7798 -76.7798 -40.2248 -40.2248 -40.0171 -40.0171 -39.9794 -39.9794
    14.2362  14.2362  15.4501  15.4501  17.2357  17.2357  17.9826  17.9826
    18.6357  18.6357  21.1238  21.1238  27.1626

     occupation numbers 
     1.0000   1.0000   1.0000   1.0000   1.0000   1.0000   1.0000   1.0000
     1.0000   1.0000   1.0000   1.0000   1.0000   1.0000   1.0000   1.0000
     1.0000   1.0000   0.0000   0.0000   0.0000

          k = 0.1667 0.2887 0.0000 (  2772 PWs)   bands (ev):

   -76.8150 -76.7754 -40.1808 -40.0836 -40.0742 -39.9876 -39.9514 -39.9423
    12.7902  15.0936  15.4046  15.5692  16.5370  16.6413  17.1309  17.3641
    17.9667  18.3541  18.5517  24.5052  26.3419

     occupation numbers 
     1.0000   1.0000   1.0000   1.0000   1.0000   1.0000   1.0000   1.0000
     1.0000   1.0000   1.0000   1.0000   1.0000   1.0000   1.0000   1.0000
     1.0000   1.0000   1.0000   0.0000   0.0000

          k = 0.1667 0.2887 0.1016 (  2776 PWs)   bands (ev):

   -76.8124 -76.7781 -40.1795 -40.0822 -40.0680 -39.9955 -39.9485 -39.9463
    12.9735  15.1885  15.2565  15.6241  16.4877  16.6510  17.0186  17.4719
    18.0838  18.1701  18.6237  22.6208  28.6967

     occupation numbers 
     1.0000   1.0000   1.0000   1.0000   1.0000   1.0000   1.0000   1.0000
     1.0000   1.0000   1.0000   1.0000   1.0000   1.0000   1.0000   1.0000
     1.0000   1.0000   1.0000   0.0000   0.0000

          k = 0.1667 0.2887 0.2032 (  2781 PWs)   bands (ev):

   -76.8051 -76.7853 -40.1684 -40.1085 -40.0341 -40.0002 -39.9561 -39.9531
    13.4761  14.8114  15.4481  15.7808  16.2865  16.5139  17.0258  17.6209
    18.1244  18.2854  18.6576  20.5901  32.0782

     occupation numbers 
     1.0000   1.0000   1.0000   1.0000   1.0000   1.0000   1.0000   1.0000
     1.0000   1.0000   1.0000   1.0000   1.0000   1.0000   1.0000   1.0000
     1.0000   1.0000   1.0000   0.0000   0.0000

          k = 0.1667 0.2887-0.3048 (  2774 PWs)   bands (ev):

   -76.7952 -76.7952 -40.1425 -40.1425 -40.0056 -40.0056 -39.9621 -39.9621
    14.1566  14.1566  15.7723  15.7723  16.2303  16.2303  17.3099  17.3099
    18.4242  18.4242  19.1433  19.1433  34.2211

     occupation numbers 
     1.0000   1.0000   1.0000   1.0000   1.0000   1.0000   1.0000   1.0000
     1.0000   1.0000   1.0000   1.0000   1.0000   1.0000   1.0000   1.0000
     1.0000   1.0000   1.0000   1.0000   0.0000

          k = 0.1667 0.3849 0.0000 (  2781 PWs)   bands (ev):

   -76.8012 -76.7714 -40.1444 -40.1357 -40.1129 -40.0185 -39.9723 -39.9657
    13.9092  15.0418  15.0684  15.5513  16.3665  16.7877  16.9195  17.6988
    18.4274  18.5391  19.1975  26.3943  26.7659

     occupation numbers 
     1.0000   1.0000   1.0000   1.0000   1.0000   1.0000   1.0000   1.0000
     1.0000   1.0000   1.0000   1.0000   1.0000   1.0000   1.0000   1.0000
     1.0000   1.0000   1.0000   0.0000   0.0000

          k = 0.1667 0.3849 0.1016 (  2779 PWs)   bands (ev):

   -76.7992 -76.7734 -40.1715 -40.1312 -40.0866 -40.0247 -39.9736 -39.9618
    13.9807  14.9742  15.1652  15.6336  16.4067  16.7856  16.8752  17.7444
    18.3274  18.5163  19.2779  23.9357  29.0415

     occupation numbers 
     1.0000   1.0000   1.0000   1.0000   1.0000   1.0000   1.0000   1.0000
     1.0000   1.0000   1.0000   1.0000   1.0000   1.0000   1.0000   1.0000
     1.0000   1.0000   0.0001   0.0000   0.0000

          k = 0.1667 0.3849 0.2032 (  2781 PWs)   bands (ev):

   -76.7938 -76.7789 -40.1846 -40.1528 -40.0464 -40.0244 -39.9806 -39.9605
    14.1802  14.7673  15.4140  15.8598  16.3150  16.6270  17.0236  17.7362
    18.2349  18.6676  19.4525  21.7247  30.0908

     occupation numbers 
     1.0000   1.0000   1.0000   1.0000   1.0000   1.0000   1.0000   1.0000
     1.0000   1.0000   1.0000   1.0000   1.0000   1.0000   1.0000   1.0000
     1.0000   1.0000   0.0000   0.0000   0.0000

          k = 0.1667 0.3849-0.3048 (  2784 PWs)   bands (ev):

   -76.7863 -76.7863 -40.1761 -40.1761 -40.0253 -40.0253 -39.9733 -39.9733
    14.4672  14.4672  15.7565  15.7565  16.4046  16.4046  17.3133  17.3133
    18.6444  18.6444  20.1307  20.1307  31.2311

     occupation numbers 
     1.0000   1.0000   1.0000   1.0000   1.0000   1.0000   1.0000   1.0000
     1.0000   1.0000   1.0000   1.0000   1.0000   1.0000   1.0000   1.0000
     1.0000   1.0000   0.0000   0.0000   0.0000

          k = 0.1667 0.4811 0.0000 (  2784 PWs)   bands (ev):

   -76.7896 -76.7700 -40.1768 -40.1332 -40.1094 -40.0469 -39.9959 -39.9818
    14.6079  14.8198  14.8548  15.8780  16.3243  16.6839  16.9999  18.1451
    18.5295  18.6473  20.4081  25.1625  28.4396

     occupation numbers 
     1.0000   1.0000   1.0000   1.0000   1.0000   1.0000   1.0000   1.0000
     1.0000   1.0000   1.0000   1.0000   1.0000   1.0000   1.0000   1.0000
     1.0000   1.0000   0.0000   0.0000   0.0000

          k = 0.1667 0.4811 0.1016 (  2789 PWs)   bands (ev):

   -76.7883 -76.7713 -40.1909 -40.1522 -40.0857 -40.0422 -39.9977 -39.9751
    14.4311  14.9075  15.1083  15.6766  16.3741  16.8271  17.0908  18.1335
    18.3350  18.7089  20.4855  24.5388  27.3829

     occupation numbers 
     1.0000   1.0000   1.0000   1.0000   1.0000   1.0000   1.0000   1.0000
     1.0000   1.0000   1.0000   1.0000   1.0000   1.0000   1.0000   1.0000
     1.0000   1.0000   0.0000   0.0000   0.0000

          k = 0.1667 0.4811 0.2032 (  2783 PWs)   bands (ev):

   -76.7847 -76.7749 -40.2062 -40.1808 -40.0628 -40.0282 -39.9978 -39.9677
    14.3807  14.8220  15.3073  15.8510  16.2665  16.9651  17.3351  17.8193
    18.3322  18.7843  20.7834  22.9745  27.5136

     occupation numbers 
     1.0000   1.0000   1.0000   1.0000   1.0000   1.0000   1.0000   1.0000
     1.0000   1.0000   1.0000   1.0000   1.0000   1.0000   1.0000   1.0000
     1.0000   1.0000   0.0000   0.0000   0.0000

          k = 0.1667 0.4811-0.3048 (  2784 PWs)   bands (ev):

   -76.7798 -76.7798 -40.2027 -40.2027 -40.0422 -40.0422 -39.9768 -39.9768
    14.5353  14.5353  15.6471  15.6471  16.6813  16.6813  17.5028  17.5028
    18.6484  18.6484  21.5737  21.5737  28.3868

     occupation numbers 
     1.0000   1.0000   1.0000   1.0000   1.0000   1.0000   1.0000   1.0000
     1.0000   1.0000   1.0000   1.0000   1.0000   1.0000   1.0000   1.0000
     1.0000   1.0000   0.0000   0.0000   0.0000

          k = 0.1667 0.5774 0.0000 (  2794 PWs)   bands (ev):

   -76.7846 -76.7703 -40.1917 -40.1397 -40.0917 -40.0585 -40.0094 -39.9875
    14.7457  14.7486  14.7818  16.1094  16.3575  16.5494  17.0910  18.4499
    18.5258  18.6125  21.6835  23.3207  29.8660

     occupation numbers 
     1.0000   1.0000   1.0000   1.0000   1.0000   1.0000   1.0000   1.0000
     1.0000   1.0000   1.0000   1.0000   1.0000   1.0000   1.0000   1.0000
     1.0000   1.0000   0.0000   0.0000   0.0000

          k = 0.1667 0.5774 0.1016 (  2784 PWs)   bands (ev):

   -76.7836 -76.7712 -40.2028 -40.1571 -40.0866 -40.0386 -40.0122 -39.9809
    14.4485  14.8210  15.2777  15.6560  16.2930  16.9527  17.1883  18.3074
    18.4471  18.6622  21.7705  23.2560  28.6463

     occupation numbers 
     1.0000   1.0000   1.0000   1.0000   1.0000   1.0000   1.0000   1.0000
     1.0000   1.0000   1.0000   1.0000   1.0000   1.0000   1.0000   1.0000
     1.0000   1.0000   0.0000   0.0000   0.0000

          k = 0.1667 0.5774 0.2032 (  2788 PWs)   bands (ev):

   -76.7810 -76.7738 -40.2163 -40.1895 -40.0709 -40.0269 -40.0031 -39.9712
    14.3749  14.8329  15.3480  15.8020  16.1818  17.1685  17.4688  17.8904
    18.4661  18.7023  22.0528  23.0139  27.4069

     occupation numbers 
     1.0000   1.0000   1.0000   1.0000   1.0000   1.0000   1.0000   1.0000
     1.0000   1.0000   1.0000   1.0000   1.0000   1.0000   1.0000   1.0000
     1.0000   1.0000   0.0000   0.0000   0.0000

          k = 0.1667 0.5774-0.3048 (  2768 PWs)   bands (ev):

   -76.7774 -76.7774 -40.2127 -40.2127 -40.0488 -40.0488 -39.9773 -39.9773
    14.5377  14.5377  15.6052  15.6052  16.7209  16.7209  17.7164  17.7164
    18.5836  18.5836  22.5445  22.5445  26.9432

     occupation numbers 
     1.0000   1.0000   1.0000   1.0000   1.0000   1.0000   1.0000   1.0000
     1.0000   1.0000   1.0000   1.0000   1.0000   1.0000   1.0000   1.0000
     1.0000   1.0000   0.0000   0.0000   0.0000

          k = 0.2500 0.4330 0.0000 (  2792 PWs)   bands (ev):

   -76.7897 -76.7699 -40.1541 -40.1324 -40.1096 -40.0501 -40.0025 -39.9956
    14.7578  14.8925  15.2859  15.3088  16.2424  16.7112  17.0078  17.8888
    18.4814  18.6491  20.4260  26.9046  27.7736

     occupation numbers 
     1.0000   1.0000   1.0000   1.0000   1.0000   1.0000   1.0000   1.0000
     1.0000   1.0000   1.0000   1.0000   1.0000   1.0000   1.0000   1.0000
     1.0000   1.0000   0.0000   0.0000   0.0000

          k = 0.2500 0.4330 0.1016 (  2781 PWs)   bands (ev):

   -76.7883 -76.7712 -40.1641 -40.1585 -40.0724 -40.0629 -40.0049 -39.9814
    14.7539  14.8434  15.3198  15.4659  16.3949  16.5570  17.0124  17.9357
    18.2759  18.7154  20.5464  25.2879  28.0529

     occupation numbers 
     1.0000   1.0000   1.0000   1.0000   1.0000   1.0000   1.0000   1.0000
     1.0000   1.0000   1.0000   1.0000   1.0000   1.0000   1.0000   1.0000
     1.0000   1.0000   0.0000   0.0000   0.0000

          k = 0.2500 0.4330 0.2032 (  2777 PWs)   bands (ev):

   -76.7847 -76.7749 -40.1873 -40.1738 -40.0682 -40.0476 -39.9981 -39.9688
    14.7351  14.7858  15.4895  15.8510  16.2199  16.5036  17.0637  17.7223
    18.2977  18.7927  20.9118  23.2561  28.8246

     occupation numbers 
     1.0000   1.0000   1.0000   1.0000   1.0000   1.0000   1.0000   1.0000
     1.0000   1.0000   1.0000   1.0000   1.0000   1.0000   1.0000   1.0000
     1.0000   1.0000   0.0000   0.0000   0.0000

          k = 0.2500 0.4330-0.3048 (  2778 PWs)   bands (ev):

   -76.7798 -76.7798 -40.1889 -40.1889 -40.0570 -40.0570 -39.9760 -39.9760
    14.7450  14.7450  15.8144  15.8144  16.2868  16.2868  17.2866  17.2866
    18.6690  18.6690  21.7423  21.7423  29.8383

     occupation numbers 
     1.0000   1.0000   1.0000   1.0000   1.0000   1.0000   1.0000   1.0000
     1.0000   1.0000   1.0000   1.0000   1.0000   1.0000   1.0000   1.0000
     1.0000   1.0000   0.0000   0.0000   0.0000

          k = 0.2500 0.5292 0.0000 (  2799 PWs)   bands (ev):

   -76.7811 -76.7709 -40.1677 -40.1233 -40.0832 -40.0786 -40.0262 -40.0200
    14.8264  15.0481  15.1357  15.6498  16.2595  16.4916  17.1828  18.1881
    18.4476  18.5722  22.1168  24.7418  27.1091

     occupation numbers 
     1.0000   1.0000   1.0000   1.0000   1.0000   1.0000   1.0000   1.0000
     1.0000   1.0000   1.0000   1.0000   1.0000   1.0000   1.0000   1.0000
     1.0000   1.0000   0.0000   0.0000   0.0000

          k = 0.2500 0.5292 0.1016 (  2783 PWs)   bands (ev):

   -76.7804 -76.7716 -40.1739 -40.1455 -40.1014 -40.0502 -40.0295 -39.9982
    14.7712  15.1675  15.2589  15.5388  16.2829  16.4976  17.1986  18.1918
    18.2557  18.6198  22.2999  24.7408  27.1174

     occupation numbers 
     1.0000   1.0000   1.0000   1.0000   1.0000   1.0000   1.0000   1.0000
     1.0000   1.0000   1.0000   1.0000   1.0000   1.0000   1.0000   1.0000
     1.0000   1.0000   0.0000   0.0000   0.0000

          k = 0.2500 0.5292 0.2032 (  2775 PWs)   bands (ev):

   -76.7786 -76.7735 -40.1890 -40.1740 -40.1007 -40.0600 -39.9979 -39.9768
    14.7848  15.1495  15.4148  15.7336  16.1315  16.5218  17.2605  17.7424
    18.3779  18.6672  22.7854  24.3931  27.0288

     occupation numbers 
     1.0000   1.0000   1.0000   1.0000   1.0000   1.0000   1.0000   1.0000
     1.0000   1.0000   1.0000   1.0000   1.0000   1.0000   1.0000   1.0000
     1.0000   1.0000   0.0000   0.0000   0.0000

          k = 0.2500 0.5292-0.3048 (  2768 PWs)   bands (ev):

   -76.7760 -76.7760 -40.1914 -40.1914 -40.0819 -40.0819 -39.9757 -39.9757
    14.9231  14.9231  15.7115  15.7115  16.2899  16.2899  17.3990  17.3990
    18.5770  18.5770  23.5409  23.5409  27.5769

     occupation numbers 
     1.0000   1.0000   1.0000   1.0000   1.0000   1.0000   1.0000   1.0000
     1.0000   1.0000   1.0000   1.0000   1.0000   1.0000   1.0000   1.0000
     1.0000   1.0000   0.0000   0.0000   0.0000

          k = 0.3333 0.5774 0.0000 (  2802 PWs)   bands (ev):

   -76.7747 -76.7747 -40.1555 -40.1064 -40.1064 -40.0547 -40.0481 -40.0481
    14.8429  15.2531  15.2531  15.5147  16.3221  16.3221  17.2849  18.3452
    18.3452  18.4149  23.8726  24.7562  24.7562

     occupation numbers 
     1.0000   1.0000   1.0000   1.0000   1.0000   1.0000   1.0000   1.0000
     1.0000   1.0000   1.0000   1.0000   1.0000   1.0000   1.0000   1.0000
     1.0000   1.0000   0.0000   0.0000   0.0000

          k = 0.3333 0.5774 0.1016 (  2802 PWs)   bands (ev):

   -76.7746 -76.7746 -40.1488 -40.1340 -40.1340 -40.0614 -40.0203 -40.0203
    14.9383  15.2695  15.2695  15.5320  16.2973  16.2973  17.2595  18.1827
    18.3930  18.3930  24.2694  24.8197  24.8197

     occupation numbers 
     1.0000   1.0000   1.0000   1.0000   1.0000   1.0000   1.0000   1.0000
     1.0000   1.0000   1.0000   1.0000   1.0000   1.0000   1.0000   1.0000
     1.0000   1.0000   0.0000   0.0000   0.0000

          k = 0.3333 0.5774 0.2032 (  2781 PWs)   bands (ev):

   -76.7746 -76.7746 -40.1665 -40.1665 -40.1304 -40.0800 -39.9876 -39.9876
    15.1816  15.3001  15.3001  15.5414  16.2545  16.2545  17.2302  17.7039
    18.4850  18.4850  24.9763  24.9763  25.2889

     occupation numbers 
     1.0000   1.0000   1.0000   1.0000   1.0000   1.0000   1.0000   1.0000
     1.0000   1.0000   1.0000   1.0000   1.0000   1.0000   1.0000   1.0000
     1.0000   1.0000   0.0000   0.0000   0.0000

          k = 0.3333 0.5774-0.3048 (  2778 PWs)   bands (ev):

   -76.7746 -76.7746 -40.1789 -40.1789 -40.1052 -40.1052 -39.9750 -39.9750
    15.3141  15.3141  15.4338  15.4338  16.2365  16.2365  17.3375  17.3375
    18.5294  18.5294  25.0760  25.0760  26.6940

     occupation numbers 
     1.0000   1.0000   1.0000   1.0000   1.0000   1.0000   1.0000   1.0000
     1.0000   1.0000   1.0000   1.0000   1.0000   1.0000   1.0000   1.0000
     1.0000   1.0000   0.0000   0.0000   0.0000

 ------ SPIN DOWN ----------


          k = 0.0000 0.0000 0.0000 (  2779 PWs)   bands (ev):

   -74.7875 -74.7234 -38.2633 -37.9331 -37.9331 -37.8864 -37.8817 -37.8817
    10.1235  14.8760  18.1530  18.2794  18.2794  18.6443  18.6443  18.8067
    19.1625  19.1625  20.3796  20.3796  26.6517

     occupation numbers 
     1.0000   1.0000   1.0000   1.0000   1.0000   1.0000   1.0000   1.0000
     1.0000   1.0000   1.0000   1.0000   1.0000   1.0000   1.0000   1.0000
     1.0000   1.0000   0.0000   0.0000   0.0000

          k = 0.0000 0.0000 0.1016 (  2773 PWs)   bands (ev):

   -74.7832 -74.7277 -38.2385 -37.9297 -37.9297 -37.9121 -37.8852 -37.8851
    10.4021  14.6410  18.0610  18.2212  18.2212  18.2406  18.5645  18.5645
    19.3315  19.3315  20.3601  20.3601  27.9453

     occupation numbers 
     1.0000   1.0000   1.0000   1.0000   1.0000   1.0000   1.0000   1.0000
     1.0000   1.0000   1.0000   1.0000   1.0000   1.0000   1.0000   1.0000
     0.0000   0.0000   0.0000   0.0000   0.0000

          k = 0.0000 0.0000 0.2032 (  2816 PWs)   bands (ev):

   -74.7716 -74.7395 -38.1703 -37.9818 -37.9203 -37.9203 -37.8946 -37.8946
    11.2069  13.7568  17.6181  17.8282  18.1709  18.1709  18.3880  18.3880
    19.6818  19.6818  20.2590  20.2590  30.8928

     occupation numbers 
     1.0000   1.0000   1.0000   1.0000   1.0000   1.0000   1.0000   1.0000
     1.0000   1.0000   1.0000   1.0000   1.0000   1.0000   1.0000   1.0000
     0.0000   0.0000   0.0000   0.0000   0.0000

          k = 0.0000 0.0000-0.3048 (  2810 PWs)   bands (ev):

   -74.7555 -74.7555 -38.0764 -38.0764 -37.9075 -37.9075 -37.9075 -37.9075
    12.4238  12.4238  17.5905  17.5905  18.2302  18.2302  18.2302  18.2302
    20.0253  20.0253  20.0253  20.0253  34.5229

     occupation numbers 
     1.0000   1.0000   1.0000   1.0000   1.0000   1.0000   1.0000   1.0000
     1.0000   1.0000   1.0000   1.0000   1.0000   1.0000   1.0000   1.0000
     0.0000   0.0000   0.0000   0.0000   0.0000

          k = 0.0000 0.0962 0.0000 (  2785 PWs)   bands (ev):

   -74.7836 -74.7215 -38.2549 -37.9527 -37.9393 -37.9019 -37.8896 -37.8850
    10.3737  15.0508  17.9546  18.2187  18.4112  18.4219  18.5716  18.7621
    19.0759  19.0768  20.4153  21.1977  26.6666

     occupation numbers 
     1.0000   1.0000   1.0000   1.0000   1.0000   1.0000   1.0000   1.0000
     1.0000   1.0000   1.0000   1.0000   1.0000   1.0000   1.0000   1.0000
     1.0000   1.0000   0.0000   0.0000   0.0000

          k = 0.0000 0.0962 0.1016 (  2786 PWs)   bands (ev):

   -74.7795 -74.7256 -38.2314 -37.9487 -37.9357 -37.9242 -37.8954 -37.8887
    10.6484  14.8282  17.8015  17.9515  18.2362  18.3382  18.5792  18.6752
    19.2718  19.2802  20.3867  20.8661  28.0279

     occupation numbers 
     1.0000   1.0000   1.0000   1.0000   1.0000   1.0000   1.0000   1.0000
     1.0000   1.0000   1.0000   1.0000   1.0000   1.0000   1.0000   1.0000
     0.0006   0.0000   0.0000   0.0000   0.0000

          k = 0.0000 0.0962 0.2032 (  2795 PWs)   bands (ev):

   -74.7681 -74.7370 -38.1670 -37.9895 -37.9375 -37.9258 -37.9071 -37.8986
    11.4420  13.9591  17.4043  17.8240  18.0555  18.2788  18.3974  18.4966
    19.6463  19.6791  20.2649  20.4559  31.0331

     occupation numbers 
     1.0000   1.0000   1.0000   1.0000   1.0000   1.0000   1.0000   1.0000
     1.0000   1.0000   1.0000   1.0000   1.0000   1.0000   1.0000   1.0000
     0.0000   0.0000   0.0000   0.0000   0.0000

          k = 0.0000 0.0962-0.3048 (  2790 PWs)   bands (ev):

   -74.7526 -74.7526 -38.0786 -38.0786 -37.9224 -37.9224 -37.9122 -37.9122
    12.6421  12.6421  17.5047  17.5047  18.1803  18.1803  18.3377  18.3377
    20.0091  20.0091  20.0879  20.0879  34.6901

     occupation numbers 
     1.0000   1.0000   1.0000   1.0000   1.0000   1.0000   1.0000   1.0000
     1.0000   1.0000   1.0000   1.0000   1.0000   1.0000   1.0000   1.0000
     0.0000   0.0000   0.0000   0.0000   0.0000

          k = 0.0000 0.1925 0.0000 (  2773 PWs)   bands (ev):

   -74.7727 -74.7162 -38.2308 -38.0064 -37.9566 -37.9559 -37.8991 -37.8944
    11.1007  15.5002  17.3868  17.6064  18.3179  18.7598  18.7857  18.8640
    18.8850  19.0934  20.4891  22.6689  26.7294

     occupation numbers 
     1.0000   1.0000   1.0000   1.0000   1.0000   1.0000   1.0000   1.0000
     1.0000   1.0000   1.0000   1.0000   1.0000   1.0000   1.0000   1.0000
     1.0000   1.0000   0.0000   0.0000   0.0000

          k = 0.0000 0.1925 0.1016 (  2776 PWs)   bands (ev):

   -74.7689 -74.7200 -38.2120 -38.0004 -37.9726 -37.9518 -37.9083 -37.8985
    11.3618  15.3189  17.1392  17.6504  18.1997  18.5129  18.6133  18.9619
    19.2125  19.2486  20.4404  21.8895  28.3077

     occupation numbers 
     1.0000   1.0000   1.0000   1.0000   1.0000   1.0000   1.0000   1.0000
     1.0000   1.0000   1.0000   1.0000   1.0000   1.0000   1.0000   1.0000
     0.9982   0.1988   0.0000   0.0000   0.0000

          k = 0.0000 0.1925 0.2032 (  2784 PWs)   bands (ev):

   -74.7586 -74.7304 -38.1609 -38.0226 -37.9808 -37.9406 -37.9301 -37.9098
    12.1149  14.5008  17.0225  17.7489  17.8173  18.3218  18.5494  18.7974
    19.5978  19.7210  20.2751  20.9328  31.4571

     occupation numbers 
     1.0000   1.0000   1.0000   1.0000   1.0000   1.0000   1.0000   1.0000
     1.0000   1.0000   1.0000   1.0000   1.0000   1.0000   1.0000   1.0000
     0.0000   0.0000   0.0000   0.0000   0.0000

          k = 0.0000 0.1925-0.3048 (  2780 PWs)   bands (ev):

   -74.7445 -74.7445 -38.0911 -38.0911 -37.9564 -37.9564 -37.9252 -37.9252
    13.2506  13.2506  17.3168  17.3168  18.0421  18.0421  18.6267  18.6267
    19.9810  19.9810  20.2644  20.2644  35.1555

     occupation numbers 
     1.0000   1.0000   1.0000   1.0000   1.0000   1.0000   1.0000   1.0000
     1.0000   1.0000   1.0000   1.0000   1.0000   1.0000   1.0000   1.0000
     0.0000   0.0000   0.0000   0.0000   0.0000

          k = 0.0000 0.2887 0.0000 (  2775 PWs)   bands (ev):

   -74.7573 -74.7096 -38.1947 -38.0804 -38.0299 -37.9780 -37.9152 -37.9078
    12.2235  15.9383  16.7120  17.2963  18.1396  18.6113  18.6312  19.2281
    19.3359  19.5721  20.5558  24.3820  26.8679

     occupation numbers 
     1.0000   1.0000   1.0000   1.0000   1.0000   1.0000   1.0000   1.0000
     1.0000   1.0000   1.0000   1.0000   1.0000   1.0000   1.0000   0.9013
     0.0000   0.0000   0.0000   0.0000   0.0000

          k = 0.0000 0.2887 0.1016 (  2776 PWs)   bands (ev):

   -74.7541 -74.7128 -38.1879 -38.0679 -38.0425 -37.9733 -37.9221 -37.9125
    12.4532  15.8221  16.5976  17.3615  18.0028  18.5394  18.6473  19.3800
    19.4192  19.5371  20.4885  23.0195  28.8421

     occupation numbers 
     1.0000   1.0000   1.0000   1.0000   1.0000   1.0000   1.0000   1.0000
     1.0000   1.0000   1.0000   1.0000   1.0000   1.0000   1.0000   0.0000
     0.0000   0.0000   0.0000   0.0000   0.0000

          k = 0.0000 0.2887 0.2032 (  2775 PWs)   bands (ev):

   -74.7454 -74.7216 -38.1656 -38.0854 -38.0252 -37.9605 -37.9447 -37.9254
    13.1086  15.1226  16.7314  17.4431  17.7789  18.3094  18.7687  19.2262
    19.7175  19.8539  20.2964  21.5155  32.0751

     occupation numbers 
     1.0000   1.0000   1.0000   1.0000   1.0000   1.0000   1.0000   1.0000
     1.0000   1.0000   1.0000   1.0000   1.0000   1.0000   1.0000   0.9309
     0.0000   0.0000   0.0000   0.0000   0.0000

          k = 0.0000 0.2887-0.3048 (  2772 PWs)   bands (ev):

   -74.7335 -74.7335 -38.1287 -38.1287 -37.9819 -37.9819 -37.9429 -37.9429
    14.0764  14.0764  17.1181  17.1181  17.9825  17.9825  18.9775  18.9775
    20.0161  20.0161  20.5119  20.5119  34.4399

     occupation numbers 
     1.0000   1.0000   1.0000   1.0000   1.0000   1.0000   1.0000   1.0000
     1.0000   1.0000   1.0000   1.0000   1.0000   1.0000   1.0000   1.0000
     0.0000   0.0000   0.0000   0.0000   0.0000

          k = 0.0000 0.3849 0.0000 (  2786 PWs)   bands (ev):

   -74.7408 -74.7040 -38.1550 -38.1527 -38.1017 -37.9995 -37.9372 -37.9216
    13.5577  15.9644  16.2358  17.1898  18.2350  18.3823  18.3848  19.9294
    19.9350  20.0938  20.5988  26.2556  26.8048

     occupation numbers 
[...]
    20.5548  20.5740  21.7852  24.3769  29.2354

     occupation numbers 
     1.0000   1.0000   1.0000   1.0000   1.0000   1.0000   1.0000   1.0000
     1.0000   1.0000   1.0000   1.0000   1.0000   1.0000   1.0000   0.0000
     0.0000   0.0000   0.0000   0.0000   0.0000

          k = 0.0833 0.5292 0.1016 (  2786 PWs)   bands (ev):

   -74.7204 -74.7022 -38.2317 -38.1789 -38.0738 -38.0220 -37.9729 -37.9495
    15.1103  15.7032  16.2756  16.8553  18.1240  18.6156  18.6495  20.3116
    20.4765  20.5922  21.6433  24.0130  28.2621

     occupation numbers 
     1.0000   1.0000   1.0000   1.0000   1.0000   1.0000   1.0000   1.0000
     1.0000   1.0000   1.0000   1.0000   1.0000   1.0000   1.0000   0.0000
     0.0000   0.0000   0.0000   0.0000   0.0000

          k = 0.0833 0.5292 0.2032 (  2789 PWs)   bands (ev):

   -74.7166 -74.7061 -38.2450 -38.2122 -38.0370 -37.9987 -37.9828 -37.9527
    15.0720  15.5492  16.5794  16.8895  18.1686  18.9586  19.1590  19.8451
    20.4296  20.6715  21.4232  23.0371  27.7709

     occupation numbers 
     1.0000   1.0000   1.0000   1.0000   1.0000   1.0000   1.0000   1.0000
     1.0000   1.0000   1.0000   1.0000   1.0000   1.0000   1.0000   0.0000
     0.0000   0.0000   0.0000   0.0000   0.0000

          k = 0.0833 0.5292-0.3048 (  2772 PWs)   bands (ev):

   -74.7113 -74.7113 -38.2386 -38.2386 -38.0075 -38.0075 -37.9680 -37.9680
    15.2462  15.2462  16.8300  16.8300  18.6917  18.6917  19.4906  19.4906
    20.5188  20.5188  21.9600  21.9600  28.0360

     occupation numbers 
     1.0000   1.0000   1.0000   1.0000   1.0000   1.0000   1.0000   1.0000
     1.0000   1.0000   1.0000   1.0000   1.0000   1.0000   0.0000   0.0000
     0.0000   0.0000   0.0000   0.0000   0.0000

          k = 0.1667 0.2887 0.0000 (  2772 PWs)   bands (ev):

   -74.7492 -74.7066 -38.1748 -38.0887 -38.0792 -37.9842 -37.9353 -37.9251
    12.8637  16.2543  16.5390  16.9414  18.1781  18.1820  18.7788  19.0881
    19.7391  20.1070  20.4924  25.2958  27.0962

     occupation numbers 
     1.0000   1.0000   1.0000   1.0000   1.0000   1.0000   1.0000   1.0000
     1.0000   1.0000   1.0000   1.0000   1.0000   1.0000   1.0000   1.0000
     0.0000   0.0000   0.0000   0.0000   0.0000

          k = 0.1667 0.2887 0.1016 (  2776 PWs)   bands (ev):

   -74.7464 -74.7095 -38.1763 -38.0867 -38.0688 -37.9901 -37.9396 -37.9259
    13.0737  16.1583  16.4674  17.0093  18.0662  18.2063  18.6747  19.2072
    19.8684  19.9736  20.5053  23.6375  29.2952

     occupation numbers 
     1.0000   1.0000   1.0000   1.0000   1.0000   1.0000   1.0000   1.0000
     1.0000   1.0000   1.0000   1.0000   1.0000   1.0000   1.0000   0.9997
     0.0000   0.0000   0.0000   0.0000   0.0000

          k = 0.1667 0.2887 0.2032 (  2781 PWs)   bands (ev):

   -74.7386 -74.7173 -38.1686 -38.1115 -38.0278 -37.9933 -37.9500 -37.9365
    13.6688  15.4658  16.7332  17.1829  17.7764  18.0438  18.7304  19.3390
    19.9511  20.0976  20.4620  21.9025  32.5604

     occupation numbers 
     1.0000   1.0000   1.0000   1.0000   1.0000   1.0000   1.0000   1.0000
     1.0000   1.0000   1.0000   1.0000   1.0000   1.0000   1.0000   0.0000
     0.0000   0.0000   0.0000   0.0000   0.0000

          k = 0.1667 0.2887-0.3048 (  2774 PWs)   bands (ev):

   -74.7279 -74.7279 -38.1444 -38.1444 -37.9960 -37.9960 -37.9536 -37.9536
    14.5354  14.5354  17.1171  17.1171  17.7274  17.7274  19.0422  19.0422
    20.2885  20.2885  20.6973  20.6973  34.6401

     occupation numbers 
     1.0000   1.0000   1.0000   1.0000   1.0000   1.0000   1.0000   1.0000
     1.0000   1.0000   1.0000   1.0000   1.0000   1.0000   1.0000   1.0000
     0.0000   0.0000   0.0000   0.0000   0.0000

          k = 0.1667 0.3849 0.0000 (  2781 PWs)   bands (ev):

   -74.7344 -74.7024 -38.1458 -38.1350 -38.1207 -38.0177 -37.9606 -37.9477
    14.1372  16.2393  16.3191  16.7634  17.9614  18.3192  18.5245  19.4552
    20.2634  20.4779  20.8734  27.0961  27.3794

     occupation numbers 
     1.0000   1.0000   1.0000   1.0000   1.0000   1.0000   1.0000   1.0000
     1.0000   1.0000   1.0000   1.0000   1.0000   1.0000   1.0000   0.0000
     0.0000   0.0000   0.0000   0.0000   0.0000

          k = 0.1667 0.3849 0.1016 (  2779 PWs)   bands (ev):

   -74.7322 -74.7045 -38.1752 -38.1391 -38.0824 -38.0222 -37.9666 -37.9420
    14.2789  16.1018  16.4219  16.8681  17.9201  18.3021  18.4783  19.5112
    20.2138  20.3675  20.9737  24.7560  29.6483

     occupation numbers 
     1.0000   1.0000   1.0000   1.0000   1.0000   1.0000   1.0000   1.0000
     1.0000   1.0000   1.0000   1.0000   1.0000   1.0000   1.0000   0.0000
     0.0000   0.0000   0.0000   0.0000   0.0000

          k = 0.1667 0.3849 0.2032 (  2781 PWs)   bands (ev):

   -74.7264 -74.7104 -38.1910 -38.1607 -38.0389 -38.0190 -37.9747 -37.9431
    14.6675  15.7266  16.7055  17.0840  17.7648  18.0303  18.6736  19.5128
    20.0591  20.5542  21.0569  22.7495  30.6852

     occupation numbers 
     1.0000   1.0000   1.0000   1.0000   1.0000   1.0000   1.0000   1.0000
     1.0000   1.0000   1.0000   1.0000   1.0000   1.0000   1.0000   0.0000
     0.0000   0.0000   0.0000   0.0000   0.0000

          k = 0.1667 0.3849-0.3048 (  2784 PWs)   bands (ev):

   -74.7184 -74.7184 -38.1837 -38.1837 -38.0190 -38.0190 -37.9610 -37.9610
    15.1994  15.1994  17.0540  17.0540  17.7482  17.7482  19.0523  19.0523
    20.5405  20.5405  21.4107  21.4107  31.7847

     occupation numbers 
     1.0000   1.0000   1.0000   1.0000   1.0000   1.0000   1.0000   1.0000
     1.0000   1.0000   1.0000   1.0000   1.0000   1.0000   1.0000   1.0000
     0.0000   0.0000   0.0000   0.0000   0.0000

          k = 0.1667 0.4811 0.0000 (  2784 PWs)   bands (ev):

   -74.7219 -74.7008 -38.1905 -38.1427 -38.0967 -38.0486 -37.9779 -37.9732
    15.2376  16.0666  16.0816  16.8411  17.8981  18.2378  18.5641  19.9454
    20.4667  20.5235  21.8290  25.8933  29.0337

     occupation numbers 
     1.0000   1.0000   1.0000   1.0000   1.0000   1.0000   1.0000   1.0000
     1.0000   1.0000   1.0000   1.0000   1.0000   1.0000   1.0000   0.0000
     0.0000   0.0000   0.0000   0.0000   0.0000

          k = 0.1667 0.4811 0.1016 (  2789 PWs)   bands (ev):

   -74.7205 -74.7022 -38.2029 -38.1612 -38.0779 -38.0393 -37.9892 -37.9591
    15.2369  16.0253  16.2586  16.8611  17.9085  18.2116  18.6547  19.9441
    20.2291  20.5993  21.8772  25.2217  28.1387

     occupation numbers 
     1.0000   1.0000   1.0000   1.0000   1.0000   1.0000   1.0000   1.0000
     1.0000   1.0000   1.0000   1.0000   1.0000   1.0000   1.0000   0.0000
     0.0000   0.0000   0.0000   0.0000   0.0000

          k = 0.1667 0.4811 0.2032 (  2783 PWs)   bands (ev):

   -74.7166 -74.7061 -38.2176 -38.1910 -38.0597 -38.0215 -37.9889 -37.9506
    15.3163  15.8266  16.5927  17.1182  17.7292  18.1990  18.8995  19.6284
    20.1737  20.6972  22.0255  23.7417  28.3069

     occupation numbers 
     1.0000   1.0000   1.0000   1.0000   1.0000   1.0000   1.0000   1.0000
     1.0000   1.0000   1.0000   1.0000   1.0000   1.0000   1.0000   0.0000
     0.0000   0.0000   0.0000   0.0000   0.0000

          k = 0.1667 0.4811-0.3048 (  2784 PWs)   bands (ev):

   -74.7113 -74.7113 -38.2139 -38.2139 -38.0388 -38.0388 -37.9619 -37.9619
    15.5319  15.5319  17.0018  17.0018  17.9318  17.9318  19.1877  19.1877
    20.5315  20.5315  22.5553  22.5553  29.1138

     occupation numbers 
     1.0000   1.0000   1.0000   1.0000   1.0000   1.0000   1.0000   1.0000
     1.0000   1.0000   1.0000   1.0000   1.0000   1.0000   1.0000   1.0000
     0.0000   0.0000   0.0000   0.0000   0.0000

          k = 0.1667 0.5774 0.0000 (  2794 PWs)   bands (ev):

   -74.7165 -74.7011 -38.2067 -38.1498 -38.0774 -38.0612 -37.9879 -37.9841
    15.6877  15.9376  16.0111  16.9265  17.9621  18.0449  18.6733  20.2918
    20.4622  20.4903  22.7640  24.3144  30.2830

     occupation numbers 
     1.0000   1.0000   1.0000   1.0000   1.0000   1.0000   1.0000   1.0000
     1.0000   1.0000   1.0000   1.0000   1.0000   1.0000   1.0000   0.0000
     0.0000   0.0000   0.0000   0.0000   0.0000

          k = 0.1667 0.5774 0.1016 (  2784 PWs)   bands (ev):

   -74.7154 -74.7021 -38.2167 -38.1671 -38.0814 -38.0321 -38.0020 -37.9675
    15.5063  15.9837  16.4157  16.7191  17.8657  18.2475  18.7727  20.2028
    20.2917  20.5510  22.7874  24.2045  29.2479

     occupation numbers 
     1.0000   1.0000   1.0000   1.0000   1.0000   1.0000   1.0000   1.0000
     1.0000   1.0000   1.0000   1.0000   1.0000   1.0000   1.0000   0.0000
     0.0000   0.0000   0.0000   0.0000   0.0000

          k = 0.1667 0.5774 0.2032 (  2788 PWs)   bands (ev):

   -74.7126 -74.7049 -38.2294 -38.2006 -38.0692 -38.0221 -37.9905 -37.9547
    15.4512  15.8874  16.6654  17.0301  17.6391  18.3814  19.0537  19.6981
    20.3238  20.6012  22.9064  23.8477  28.1890

     occupation numbers 
     1.0000   1.0000   1.0000   1.0000   1.0000   1.0000   1.0000   1.0000
     1.0000   1.0000   1.0000   1.0000   1.0000   1.0000   1.0000   0.0000
     0.0000   0.0000   0.0000   0.0000   0.0000

          k = 0.1667 0.5774-0.3048 (  2768 PWs)   bands (ev):

   -74.7088 -74.7088 -38.2251 -38.2251 -38.0465 -38.0465 -37.9615 -37.9615
    15.6081  15.6081  16.9891  16.9891  17.9903  17.9903  19.3578  19.3578
    20.4644  20.4644  23.3082  23.3082  27.8262

     occupation numbers 
     1.0000   1.0000   1.0000   1.0000   1.0000   1.0000   1.0000   1.0000
     1.0000   1.0000   1.0000   1.0000   1.0000   1.0000   0.0000   0.0000
     0.0000   0.0000   0.0000   0.0000   0.0000

          k = 0.2500 0.4330 0.0000 (  2792 PWs)   bands (ev):

   -74.7219 -74.7007 -38.1659 -38.1417 -38.0970 -38.0522 -38.0004 -37.9730
    15.2621  16.1478  16.4425  16.4915  17.7960  18.2693  18.5689  19.6768
    20.4118  20.5227  21.8763  27.4586  28.3775

     occupation numbers 
     1.0000   1.0000   1.0000   1.0000   1.0000   1.0000   1.0000   1.0000
     1.0000   1.0000   1.0000   1.0000   1.0000   1.0000   1.0000   0.0000
     0.0000   0.0000   0.0000   0.0000   0.0000

          k = 0.2500 0.4330 0.1016 (  2781 PWs)   bands (ev):

   -74.7205 -74.7022 -38.1704 -38.1697 -38.0634 -38.0631 -38.0024 -37.9610
    15.3326  16.0649  16.5104  16.6781  17.8386  18.0796  18.5861  19.7314
    20.1652  20.6063  21.9774  25.9398  28.6624

     occupation numbers 
     1.0000   1.0000   1.0000   1.0000   1.0000   1.0000   1.0000   1.0000
     1.0000   1.0000   1.0000   1.0000   1.0000   1.0000   1.0000   0.0000
     0.0000   0.0000   0.0000   0.0000   0.0000

          k = 0.2500 0.4330 0.2032 (  2777 PWs)   bands (ev):

   -74.7166 -74.7060 -38.1954 -38.1839 -38.0687 -38.0431 -37.9884 -37.9502
    15.5128  15.9241  16.7339  17.0386  17.6788  17.8078  18.6895  19.5217
    20.1301  20.7070  22.2127  24.0628  29.4348

     occupation numbers 
     1.0000   1.0000   1.0000   1.0000   1.0000   1.0000   1.0000   1.0000
     1.0000   1.0000   1.0000   1.0000   1.0000   1.0000   1.0000   0.0000
     0.0000   0.0000   0.0000   0.0000   0.0000

          k = 0.2500 0.4330-0.3048 (  2778 PWs)   bands (ev):

   -74.7113 -74.7113 -38.1981 -38.1981 -38.0565 -38.0565 -37.9601 -37.9601
    15.7328  15.7328  17.0817  17.0817  17.5764  17.5764  19.0060  19.0060
    20.5567  20.5567  22.7793  22.7794  30.4369

     occupation numbers 
     1.0000   1.0000   1.0000   1.0000   1.0000   1.0000   1.0000   1.0000
     1.0000   1.0000   1.0000   1.0000   1.0000   1.0000   1.0000   1.0000
     0.0000   0.0000   0.0000   0.0000   0.0000

          k = 0.2500 0.5292 0.0000 (  2799 PWs)   bands (ev):

   -74.7128 -74.7018 -38.1805 -38.1319 -38.0882 -38.0632 -38.0262 -37.9995
    15.9676  16.1244  16.2846  16.5930  17.7955  18.0047  18.7756  20.0077
    20.3730  20.4412  23.2094  25.5305  27.6786

     occupation numbers 
     1.0000   1.0000   1.0000   1.0000   1.0000   1.0000   1.0000   1.0000
     1.0000   1.0000   1.0000   1.0000   1.0000   1.0000   1.0000   0.0000
     0.0000   0.0000   0.0000   0.0000   0.0000

          k = 0.2500 0.5292 0.1016 (  2783 PWs)   bands (ev):

   -74.7120 -74.7026 -38.1854 -38.1531 -38.1041 -38.0441 -38.0222 -37.9803
    15.8989  16.2700  16.3674  16.6505  17.7675  17.9034  18.7960  20.0357
    20.1241  20.5009  23.3690  25.4891  27.7186

     occupation numbers 
     1.0000   1.0000   1.0000   1.0000   1.0000   1.0000   1.0000   1.0000
     1.0000   1.0000   1.0000   1.0000   1.0000   1.0000   1.0000   0.0000
     0.0000   0.0000   0.0000   0.0000   0.0000

          k = 0.2500 0.5292 0.2032 (  2775 PWs)   bands (ev):

   -74.7100 -74.7046 -38.1989 -38.1827 -38.1046 -38.0607 -37.9831 -37.9588
    15.9197  16.2191  16.6512  16.9961  17.4984  17.7683  18.8826  19.5479
    20.2300  20.5602  23.7487  25.0836  27.7713

     occupation numbers 
     1.0000   1.0000   1.0000   1.0000   1.0000   1.0000   1.0000   1.0000
     1.0000   1.0000   1.0000   1.0000   1.0000   1.0000   1.0000   0.0000
     0.0000   0.0000   0.0000   0.0000   0.0000

          k = 0.2500 0.5292-0.3048 (  2768 PWs)   bands (ev):

   -74.7073 -74.7073 -38.2008 -38.2008 -38.0849 -38.0849 -37.9584 -37.9584
    16.0505  16.0505  17.0497  17.0497  17.4808  17.4808  19.1029  19.1029
    20.4554  20.4554  24.3389  24.3389  28.3200

     occupation numbers 
     1.0000   1.0000   1.0000   1.0000   1.0000   1.0000   1.0000   1.0000
     1.0000   1.0000   1.0000   1.0000   1.0000   1.0000   1.0000   1.0000
     0.0000   0.0000   0.0000   0.0000   0.0000

          k = 0.3333 0.5774 0.0000 (  2802 PWs)   bands (ev):

   -74.7058 -74.7058 -38.1671 -38.1137 -38.1137 -38.0570 -38.0300 -38.0300
    16.1671  16.3142  16.3142  16.4950  17.8280  17.8280  18.8873  20.1880
    20.1880  20.3358  24.6877  25.5400  25.5400

     occupation numbers 
     1.0000   1.0000   1.0000   1.0000   1.0000   1.0000   1.0000   1.0000
     1.0000   1.0000   1.0000   1.0000   1.0000   1.0000   1.0000   0.0000
     0.0000   0.0000   0.0000   0.0000   0.0000

          k = 0.3333 0.5774 0.1016 (  2802 PWs)   bands (ev):

   -74.7058 -74.7058 -38.1597 -38.1394 -38.1394 -38.0644 -38.0040 -38.0040
    16.2424  16.3831  16.3831  16.5253  17.7401  17.7401  18.8696  20.0620
    20.2456  20.2456  25.1002  25.5801  25.5801

     occupation numbers 
     1.0000   1.0000   1.0000   1.0000   1.0000   1.0000   1.0000   1.0000
     1.0000   1.0000   1.0000   1.0000   1.0000   1.0000   1.0000   0.0000
     0.0000   0.0000   0.0000   0.0000   0.0000

          k = 0.3333 0.5774 0.2032 (  2781 PWs)   bands (ev):

   -74.7058 -74.7058 -38.1728 -38.1728 -38.1397 -38.0846 -37.9703 -37.9703
    16.4188  16.5467  16.5467  16.5797  17.5471  17.5471  18.8769  19.5105
    20.3527  20.3527  25.6789  25.6789  26.1095

     occupation numbers 
     1.0000   1.0000   1.0000   1.0000   1.0000   1.0000   1.0000   1.0000
     1.0000   1.0000   1.0000   1.0000   1.0000   1.0000   1.0000   0.0000
     0.0000   0.0000   0.0000   0.0000   0.0000

          k = 0.3333 0.5774-0.3048 (  2778 PWs)   bands (ev):

   -74.7058 -74.7058 -38.1858 -38.1858 -38.1122 -38.1122 -37.9571 -37.9571
    16.5630  16.5630  16.6524  16.6524  17.4303  17.4303  19.0617  19.0617
    20.4028  20.4028  25.7411  25.7411  27.4446

     occupation numbers 
     1.0000   1.0000   1.0000   1.0000   1.0000   1.0000   1.0000   1.0000
     1.0000   1.0000   1.0000   1.0000   1.0000   1.0000   1.0000   1.0000
     0.0000   0.0000   0.0000   0.0000   0.0000

     the Fermi energy is    19.2405 ev

!    total energy              =    -753.45437253 Ry
     total all-electron energy =     -5573.811064 Ry
     estimated scf accuracy    <       0.00000014 Ry
     smearing contrib. (-TS)   =      -0.00001667 Ry
     internal energy E=F+TS    =    -753.45435587 Ry

     The total energy is F=E-TS. E is the sum of the following terms:
     one-electron contribution =    -277.41035215 Ry
     hartree contribution      =     163.04782631 Ry
     xc contribution           =     -61.43367887 Ry
     ewald contribution        =    -402.48180671 Ry
     one-center paw contrib.   =    -175.17634446 Ry
      -> PAW hartree energy AE =     222.20320509 Ry
      -> PAW hartree energy PS =    -221.14698243 Ry
      -> PAW xc energy AE      =    -117.67986126 Ry
      -> PAW xc energy PS      =      29.03546638 Ry
      -> total E_H with PAW    =     164.10404897 Ry
      -> total E_XC with PAW   =    -150.07807375 Ry

     total magnetization       =     3.22 Bohr mag/cell
     absolute magnetization    =     3.53 Bohr mag/cell

     convergence has been achieved in   5 iterations

     Writing all to output data dir ./out/Co.save/
 
     init_run     :      0.39s CPU      0.51s WALL (       1 calls)
     electrons    :     10.22s CPU     10.84s WALL (       1 calls)

     Called by init_run:
     wfcinit      :      0.22s CPU      0.31s WALL (       1 calls)
     potinit      :      0.11s CPU      0.13s WALL (       1 calls)
     hinit0       :      0.04s CPU      0.05s WALL (       1 calls)

     Called by electrons:
     c_bands      :      8.70s CPU      9.12s WALL (       5 calls)
     sum_band     :      0.95s CPU      1.02s WALL (       5 calls)
     v_of_rho     :      0.02s CPU      0.02s WALL (       6 calls)
     v_h          :      0.00s CPU      0.00s WALL (       6 calls)
     v_xc         :      0.02s CPU      0.02s WALL (       6 calls)
     newd         :      0.02s CPU      0.03s WALL (       6 calls)
     PAW_pot      :      0.62s CPU      0.75s WALL (       6 calls)
     mix_rho      :      0.00s CPU      0.00s WALL (       5 calls)

     Called by c_bands:
     init_us_2    :      0.06s CPU      0.06s WALL (    1520 calls)
     init_us_2:cp :      0.06s CPU      0.06s WALL (    1520 calls)
     cegterg      :      8.34s CPU      8.71s WALL (     760 calls)

     Called by sum_band:
     sum_band:wei :      0.01s CPU      0.01s WALL (       5 calls)
     sum_band:loo :      0.90s CPU      0.96s WALL (       5 calls)
     sum_band:buf :      0.00s CPU      0.01s WALL (     760 calls)
     sum_band:ini :      0.04s CPU      0.03s WALL (     760 calls)
     sum_band:cal :      0.07s CPU      0.07s WALL (     760 calls)
     sum_band:bec :      0.00s CPU      0.01s WALL (     760 calls)
     addusdens    :      0.04s CPU      0.04s WALL (       5 calls)
                                        0.00s GPU  (       5 calls)
     addusd:skk   :      0.00s CPU      0.00s WALL (       5 calls)
                                        0.00s GPU  (       5 calls)

     Called by *egterg:
     cdiaghg      :      2.22s CPU      2.27s WALL (    3942 calls)
     cegterg:over :      0.29s CPU      0.27s WALL (    3334 calls)
     cegterg:upda :      0.03s CPU      0.07s WALL (    3334 calls)
     cegterg:last :      0.10s CPU      0.12s WALL (    2186 calls)
     h_psi        :      5.33s CPU      5.61s WALL (    4094 calls)
     s_psi        :      0.11s CPU      0.10s WALL (    4094 calls)
     g_psi        :      0.02s CPU      0.02s WALL (    3334 calls)

     Called by h_psi:
     h_psi:calbec :      0.27s CPU      0.25s WALL (    4094 calls)
     vloc_psi     :      4.97s CPU      5.22s WALL (    4094 calls)
     add_vuspsi   :      0.07s CPU      0.11s WALL (    4094 calls)

     General routines
     calbec       :      0.34s CPU      0.31s WALL (    4854 calls)
     fft          :      0.01s CPU      0.01s WALL (     144 calls)
     ffts         :      0.00s CPU      0.00s WALL (      22 calls)
     fftw         :      5.34s CPU      5.58s WALL (  122698 calls)
     interpolate  :      0.00s CPU      0.00s WALL (      12 calls)
 
     Parallel routines

     PAW routines
     PAW_pot      :      0.62s CPU      0.75s WALL (       6 calls)
     PAW_symme    :      0.00s CPU      0.01s WALL (      10 calls)
 
     PWSCF        :     10.91s CPU     12.11s WALL

 
   This run was terminated on:   8:44:17  22Mar2024            

=------------------------------------------------------------------------------=
   JOB DONE.
=------------------------------------------------------------------------------=
