
     Program PWSCF v.7.2 starts on 22Mar2024 at  7:13:58 

     This program is part of the open-source Quantum ESPRESSO suite
     for quantum simulation of materials; please cite
         "P. Giannozzi et al., J. Phys.:Condens. Matter 21 395502 (2009);
         "P. Giannozzi et al., J. Phys.:Condens. Matter 29 465901 (2017);
         "P. Giannozzi et al., J. Chem. Phys. 152 154105 (2020);
          URL http://www.quantum-espresso.org", 
     in publications or presentations arising from this work. More details at
     http://www.quantum-espresso.org/quote

     Parallel version (MPI), running on    20 processors

     MPI processes distributed on     1 nodes
     352136 MiB available memory on the printing compute node when the environment starts
 
     Waiting for input...
     Reading input from standard input

     Current dimensions of program PWSCF are:
     Max number of different atomic species (ntypx) = 10
     Max number of k-points (npk) = 120000
     Max angular momentum in pseudopotentials (lmaxx) =  4
     file Co.pbe-spn-kjpaw_psl.0.3.1.UPF: wavefunction(s)  3P 3D renormalized
 
     R & G space division:  proc/nbgrp/npool/nimage =      20
     Subspace diagonalization in iterative solution of the eigenvalue problem:
     a serial algorithm will be used

 
     Parallelization info
     --------------------
     sticks:   dense  smooth     PW     G-vecs:    dense   smooth      PW
     Min          33      33      9                 1186     1147     185
     Max          36      34     10                 1194     1154     192
     Sum         685     673    199                23775    23019    3791
 
     Using Slab Decomposition
 


     bravais-lattice index     =            4
     lattice parameter (alat)  =       4.7149  a.u.
     unit-cell volume          =     147.7047 (a.u.)^3
     number of atoms/cell      =            2
     number of atomic types    =            1
     number of electrons       =        34.00
     number of Kohn-Sham states=           21
     kinetic-energy cutoff     =     110.0000  Ry
     charge density cutoff     =     450.0000  Ry
     scf convergence threshold =      1.0E-06
     mixing beta               =       0.7000
     number of iterations used =            8  plain     mixing
     Exchange-correlation= SLA  PW   PBX  PBC
                           (   1   4   3   4   0   0   0)

     celldm(1)=   4.714867  celldm(2)=   0.000000  celldm(3)=   1.627255
     celldm(4)=   0.000000  celldm(5)=   0.000000  celldm(6)=   0.000000

     crystal axes: (cart. coord. in units of alat)
               a(1) = (   1.000000   0.000000   0.000000 )  
               a(2) = (  -0.500000   0.866025   0.000000 )  
               a(3) = (   0.000000   0.000000   1.627255 )  

     reciprocal axes: (cart. coord. in units 2 pi/alat)
               b(1) = (  1.000000  0.577350  0.000000 )  
               b(2) = (  0.000000  1.154701  0.000000 )  
               b(3) = (  0.000000  0.000000  0.614532 )  


     PseudoPot. # 1 for Co read from file:
     /truba/home/amuhaymin/ZnS/pseudo/QE/Co.pbe-spn-kjpaw_psl.0.3.1.UPF
     MD5 check sum: b0a1ad65bf214e88c1f3d33b20c7d919
     Pseudo is Projector augmented-wave + core cor, Zval = 17.0
     Generated using &quot;atomic&quot; code by A. Dal Corso  v.6.2.2
     Shape of augmentation charge: PSQ
     Using radial grid of 1193 points,  6 beta functions with: 
                l(1) =   0
                l(2) =   0
                l(3) =   1
                l(4) =   1
                l(5) =   2
                l(6) =   2
     Q(r) pseudized with 0 coefficients 


     atomic species   valence    mass     pseudopotential
        Co            17.00    58.93300     Co( 1.00)

     Starting magnetic structure 
     atomic species   magnetization
        Co           0.294

     24 Sym. Ops., with inversion, found (12 have fractional translation)


                                    s                        frac. trans.

      isym =  1     identity                                     

 cryst.   s( 1) = (     1          0          0      )
                  (     0          1          0      )
                  (     0          0          1      )

 cart.    s( 1) = (  1.0000000  0.0000000  0.0000000 )
                  (  0.0000000  1.0000000  0.0000000 )
                  (  0.0000000  0.0000000  1.0000000 )


      isym =  2     180 deg rotation - cart. axis [0,0,1]        

 cryst.   s( 2) = (    -1          0          0      )    f =(  0.0000000 )
                  (     0         -1          0      )       ( -0.0000000 )
                  (     0          0          1      )       ( -0.5000000 )

 cart.    s( 2) = ( -1.0000000  0.0000000  0.0000000 )    f =(  0.0000000 )
                  (  0.0000000 -1.0000000  0.0000000 )       ( -0.0000000 )
                  (  0.0000000  0.0000000  1.0000000 )       ( -0.8136273 )


      isym =  3     180 deg rotation - cart. axis [0,1,0]        

 cryst.   s( 3) = (    -1          0          0      )    f =(  0.0000000 )
                  (     1          1          0      )       (  0.0000000 )
                  (     0          0         -1      )       ( -0.5000000 )

 cart.    s( 3) = ( -1.0000000  0.0000000  0.0000000 )    f =(  0.0000000 )
                  (  0.0000000  1.0000000  0.0000000 )       (  0.0000000 )
                  (  0.0000000  0.0000000 -1.0000000 )       ( -0.8136273 )


      isym =  4     180 deg rotation - cart. axis [1,0,0]        

 cryst.   s( 4) = (     1          0          0      )
                  (    -1         -1          0      )
                  (     0          0         -1      )

 cart.    s( 4) = (  1.0000000  0.0000000  0.0000000 )
                  (  0.0000000 -1.0000000  0.0000000 )
                  (  0.0000000  0.0000000 -1.0000000 )


      isym =  5      60 deg rotation - cryst. axis [0,0,1]       

 cryst.   s( 5) = (     1          1          0      )    f =(  0.0000000 )
                  (    -1          0          0      )       ( -0.0000000 )
                  (     0          0          1      )       ( -0.5000000 )

 cart.    s( 5) = (  0.5000000 -0.8660254  0.0000000 )    f =(  0.0000000 )
                  (  0.8660254  0.5000000  0.0000000 )       ( -0.0000000 )
                  (  0.0000000  0.0000000  1.0000000 )       ( -0.8136273 )


      isym =  6      60 deg rotation - cryst. axis [0,0,-1]      

 cryst.   s( 6) = (     0         -1          0      )    f =(  0.0000000 )
                  (     1          1          0      )       ( -0.0000000 )
                  (     0          0          1      )       ( -0.5000000 )

 cart.    s( 6) = (  0.5000000  0.8660254  0.0000000 )    f =(  0.0000000 )
                  ( -0.8660254  0.5000000  0.0000000 )       ( -0.0000000 )
                  (  0.0000000  0.0000000  1.0000000 )       ( -0.8136273 )


      isym =  7     120 deg rotation - cryst. axis [0,0,1]       

 cryst.   s( 7) = (     0          1          0      )
                  (    -1         -1          0      )
                  (     0          0          1      )

 cart.    s( 7) = ( -0.5000000 -0.8660254  0.0000000 )
                  (  0.8660254 -0.5000000  0.0000000 )
                  (  0.0000000  0.0000000  1.0000000 )


      isym =  8     120 deg rotation - cryst. axis [0,0,-1]      

 cryst.   s( 8) = (    -1         -1          0      )
                  (     1          0          0      )
                  (     0          0          1      )

 cart.    s( 8) = ( -0.5000000  0.8660254  0.0000000 )
                  ( -0.8660254 -0.5000000  0.0000000 )
                  (  0.0000000  0.0000000  1.0000000 )


      isym =  9     180 deg rotation - cryst. axis [1,-1,0]      

 cryst.   s( 9) = (     0         -1          0      )    f =( -0.0000000 )
                  (    -1          0          0      )       ( -0.0000000 )
                  (     0          0         -1      )       ( -0.5000000 )

 cart.    s( 9) = (  0.5000000 -0.8660254  0.0000000 )    f =( -0.0000000 )
                  ( -0.8660254 -0.5000000  0.0000000 )       ( -0.0000000 )
                  (  0.0000000  0.0000000 -1.0000000 )       ( -0.8136273 )


      isym = 10     180 deg rotation - cryst. axis [2,1,0]       

 cryst.   s(10) = (     1          1          0      )    f =(  0.0000000 )
                  (     0         -1          0      )       ( -0.0000000 )
                  (     0          0         -1      )       ( -0.5000000 )

 cart.    s(10) = (  0.5000000  0.8660254  0.0000000 )    f =(  0.0000000 )
                  (  0.8660254 -0.5000000  0.0000000 )       ( -0.0000000 )
                  (  0.0000000  0.0000000 -1.0000000 )       ( -0.8136273 )


      isym = 11     180 deg rotation - cryst. axis [0,1,0]       

 cryst.   s(11) = (    -1         -1          0      )
                  (     0          1          0      )
                  (     0          0         -1      )

 cart.    s(11) = ( -0.5000000 -0.8660254  0.0000000 )
                  ( -0.8660254  0.5000000  0.0000000 )
                  (  0.0000000  0.0000000 -1.0000000 )


      isym = 12     180 deg rotation - cryst. axis [1,1,0]       

 cryst.   s(12) = (     0          1          0      )
                  (     1          0          0      )
                  (     0          0         -1      )

 cart.    s(12) = ( -0.5000000  0.8660254  0.0000000 )
                  (  0.8660254  0.5000000  0.0000000 )
                  (  0.0000000  0.0000000 -1.0000000 )


      isym = 13     inversion                                    

 cryst.   s(13) = (    -1          0          0      )
                  (     0         -1          0      )
                  (     0          0         -1      )

 cart.    s(13) = ( -1.0000000  0.0000000  0.0000000 )
                  (  0.0000000 -1.0000000  0.0000000 )
                  (  0.0000000  0.0000000 -1.0000000 )


      isym = 14     inv. 180 deg rotation - cart. axis [0,0,1]   

 cryst.   s(14) = (     1          0          0      )    f =(  0.0000000 )
                  (     0          1          0      )       (  0.0000000 )
                  (     0          0         -1      )       ( -0.5000000 )

 cart.    s(14) = (  1.0000000  0.0000000  0.0000000 )    f =(  0.0000000 )
                  (  0.0000000  1.0000000  0.0000000 )       (  0.0000000 )
                  (  0.0000000  0.0000000 -1.0000000 )       ( -0.8136273 )


      isym = 15     inv. 180 deg rotation - cart. axis [0,1,0]   

 cryst.   s(15) = (     1          0          0      )    f =(  0.0000000 )
                  (    -1         -1          0      )       ( -0.0000000 )
                  (     0          0          1      )       ( -0.5000000 )

 cart.    s(15) = (  1.0000000  0.0000000  0.0000000 )    f =(  0.0000000 )
                  (  0.0000000 -1.0000000  0.0000000 )       ( -0.0000000 )
                  (  0.0000000  0.0000000  1.0000000 )       ( -0.8136273 )


      isym = 16     inv. 180 deg rotation - cart. axis [1,0,0]   

 cryst.   s(16) = (    -1          0          0      )
                  (     1          1          0      )
                  (     0          0          1      )

 cart.    s(16) = ( -1.0000000  0.0000000  0.0000000 )
                  (  0.0000000  1.0000000  0.0000000 )
                  (  0.0000000  0.0000000  1.0000000 )


      isym = 17     inv.  60 deg rotation - cryst. axis [0,0,1]  

 cryst.   s(17) = (    -1         -1          0      )    f =(  0.0000000 )
                  (     1          0          0      )       ( -0.0000000 )
                  (     0          0         -1      )       ( -0.5000000 )

 cart.    s(17) = ( -0.5000000  0.8660254  0.0000000 )    f =(  0.0000000 )
                  ( -0.8660254 -0.5000000  0.0000000 )       ( -0.0000000 )
                  (  0.0000000  0.0000000 -1.0000000 )       ( -0.8136273 )


      isym = 18     inv.  60 deg rotation - cryst. axis [0,0,-1] 

 cryst.   s(18) = (     0          1          0      )    f =( -0.0000000 )
                  (    -1         -1          0      )       ( -0.0000000 )
                  (     0          0         -1      )       ( -0.5000000 )

 cart.    s(18) = ( -0.5000000 -0.8660254  0.0000000 )    f =(  0.0000000 )
                  (  0.8660254 -0.5000000  0.0000000 )       ( -0.0000000 )
                  (  0.0000000  0.0000000 -1.0000000 )       ( -0.8136273 )


      isym = 19     inv. 120 deg rotation - cryst. axis [0,0,1]  

 cryst.   s(19) = (     0         -1          0      )
                  (     1          1          0      )
                  (     0          0         -1      )

 cart.    s(19) = (  0.5000000  0.8660254  0.0000000 )
                  ( -0.8660254  0.5000000  0.0000000 )
                  (  0.0000000  0.0000000 -1.0000000 )


      isym = 20     inv. 120 deg rotation - cryst. axis [0,0,-1] 

 cryst.   s(20) = (     1          1          0      )
                  (    -1          0          0      )
                  (     0          0         -1      )

 cart.    s(20) = (  0.5000000 -0.8660254  0.0000000 )
                  (  0.8660254  0.5000000  0.0000000 )
                  (  0.0000000  0.0000000 -1.0000000 )


      isym = 21     inv. 180 deg rotation - cryst. axis [1,-1,0] 

 cryst.   s(21) = (     0          1          0      )    f =(  0.0000000 )
                  (     1          0          0      )       ( -0.0000000 )
                  (     0          0          1      )       ( -0.5000000 )

 cart.    s(21) = ( -0.5000000  0.8660254  0.0000000 )    f =(  0.0000000 )
                  (  0.8660254  0.5000000  0.0000000 )       ( -0.0000000 )
                  (  0.0000000  0.0000000  1.0000000 )       ( -0.8136273 )


      isym = 22     inv. 180 deg rotation - cryst. axis [2,1,0]  

 cryst.   s(22) = (    -1         -1          0      )    f =(  0.0000000 )
                  (     0          1          0      )       ( -0.0000000 )
                  (     0          0          1      )       ( -0.5000000 )

 cart.    s(22) = ( -0.5000000 -0.8660254  0.0000000 )    f =(  0.0000000 )
                  ( -0.8660254  0.5000000  0.0000000 )       ( -0.0000000 )
                  (  0.0000000  0.0000000  1.0000000 )       ( -0.8136273 )


      isym = 23     inv. 180 deg rotation - cryst. axis [0,1,0]  

 cryst.   s(23) = (     1          1          0      )
                  (     0         -1          0      )
                  (     0          0          1      )

 cart.    s(23) = (  0.5000000  0.8660254  0.0000000 )
                  (  0.8660254 -0.5000000  0.0000000 )
                  (  0.0000000  0.0000000  1.0000000 )


      isym = 24     inv. 180 deg rotation - cryst. axis [1,1,0]  

 cryst.   s(24) = (     0         -1          0      )
                  (    -1          0          0      )
                  (     0          0          1      )

 cart.    s(24) = (  0.5000000 -0.8660254  0.0000000 )
                  ( -0.8660254 -0.5000000  0.0000000 )
                  (  0.0000000  0.0000000  1.0000000 )


     point group D_6h(6/mmm)
     there are 12 classes
     the character table:

       E     2C6   2C3   C2    3C2'  3C2'' i     2S3   2S6   s_h   3s_d  3s_v 
A_1g   1.00  1.00  1.00  1.00  1.00  1.00  1.00  1.00  1.00  1.00  1.00  1.00
A_2g   1.00  1.00  1.00  1.00 -1.00 -1.00  1.00  1.00  1.00  1.00 -1.00 -1.00
B_1g   1.00 -1.00  1.00 -1.00  1.00 -1.00  1.00 -1.00  1.00 -1.00  1.00 -1.00
B_2g   1.00 -1.00  1.00 -1.00 -1.00  1.00  1.00 -1.00  1.00 -1.00 -1.00  1.00
E_1g   2.00  1.00 -1.00 -2.00  0.00  0.00  2.00  1.00 -1.00 -2.00  0.00  0.00
E_2g   2.00 -1.00 -1.00  2.00  0.00  0.00  2.00 -1.00 -1.00  2.00  0.00  0.00
A_1u   1.00  1.00  1.00  1.00  1.00  1.00 -1.00 -1.00 -1.00 -1.00 -1.00 -1.00
A_2u   1.00  1.00  1.00  1.00 -1.00 -1.00 -1.00 -1.00 -1.00 -1.00  1.00  1.00
B_1u   1.00 -1.00  1.00 -1.00  1.00 -1.00 -1.00  1.00 -1.00  1.00 -1.00  1.00
B_2u   1.00 -1.00  1.00 -1.00 -1.00  1.00 -1.00  1.00 -1.00  1.00  1.00 -1.00
E_1u   2.00  1.00 -1.00 -2.00  0.00  0.00 -2.00 -1.00  1.00  2.00  0.00  0.00
E_2u   2.00 -1.00 -1.00  2.00  0.00  0.00 -2.00  1.00  1.00 -2.00  0.00  0.00

     the symmetry operations in each class and the name of the first element:

     E        1
          identity                                               
     2C6      5    6
           60 deg rotation - cryst. axis [0,0,1]                 
     2C3      7    8
          120 deg rotation - cryst. axis [0,0,1]                 
     C2       2
          180 deg rotation - cart. axis [0,0,1]                  
     3C2'     4   12   11
          180 deg rotation - cart. axis [1,0,0]                  
     3C2''    3    9   10
          180 deg rotation - cart. axis [0,1,0]                  
     i       13
          inversion                                              
     2S3     17   18
          inv.  60 deg rotation - cryst. axis [0,0,1]            
     2S6     19   20
          inv. 120 deg rotation - cryst. axis [0,0,1]            
     s_h     14
          inv. 180 deg rotation - cart. axis [0,0,1]             
     3s_d    16   24   23
          inv. 180 deg rotation - cart. axis [1,0,0]             
     3s_v    15   21   22
          inv. 180 deg rotation - cart. axis [0,1,0]             

   Cartesian axes

     site n.     atom                  positions (alat units)
         1           Co  tau(   1) = (  -0.0000000   0.5773503   0.4068136  )
         2           Co  tau(   2) = (   0.5000000   0.2886751   1.2204409  )

   Crystallographic axes

     site n.     atom                  positions (cryst. coord.)
         1           Co  tau(   1) = (  0.3333333  0.6666667  0.2500000  )
         2           Co  tau(   2) = (  0.6666667  0.3333333  0.7500000  )

     number of k points=    76  Gaussian smearing, width (Ry)=  0.0010
                       cart. coord. in units 2pi/alat
        k(    1) = (   0.0000000   0.0000000   0.0000000), wk =   0.0011574
        k(    2) = (   0.0000000   0.0000000   0.1024220), wk =   0.0023148
        k(    3) = (   0.0000000   0.0000000   0.2048440), wk =   0.0023148
        k(    4) = (   0.0000000   0.0000000  -0.3072660), wk =   0.0011574
        k(    5) = (   0.0000000   0.0962250   0.0000000), wk =   0.0069444
        k(    6) = (   0.0000000   0.0962250   0.1024220), wk =   0.0138889
        k(    7) = (   0.0000000   0.0962250   0.2048440), wk =   0.0138889
        k(    8) = (   0.0000000   0.0962250  -0.3072660), wk =   0.0069444
        k(    9) = (   0.0000000   0.1924501   0.0000000), wk =   0.0069444
        k(   10) = (   0.0000000   0.1924501   0.1024220), wk =   0.0138889
        k(   11) = (   0.0000000   0.1924501   0.2048440), wk =   0.0138889
        k(   12) = (   0.0000000   0.1924501  -0.3072660), wk =   0.0069444
        k(   13) = (   0.0000000   0.2886751   0.0000000), wk =   0.0069444
        k(   14) = (   0.0000000   0.2886751   0.1024220), wk =   0.0138889
        k(   15) = (   0.0000000   0.2886751   0.2048440), wk =   0.0138889
        k(   16) = (   0.0000000   0.2886751  -0.3072660), wk =   0.0069444
        k(   17) = (   0.0000000   0.3849002   0.0000000), wk =   0.0069444
        k(   18) = (   0.0000000   0.3849002   0.1024220), wk =   0.0138889
        k(   19) = (   0.0000000   0.3849002   0.2048440), wk =   0.0138889
        k(   20) = (   0.0000000   0.3849002  -0.3072660), wk =   0.0069444
        k(   21) = (   0.0000000   0.4811252   0.0000000), wk =   0.0069444
        k(   22) = (   0.0000000   0.4811252   0.1024220), wk =   0.0138889
        k(   23) = (   0.0000000   0.4811252   0.2048440), wk =   0.0138889
        k(   24) = (   0.0000000   0.4811252  -0.3072660), wk =   0.0069444
        k(   25) = (   0.0000000  -0.5773503   0.0000000), wk =   0.0034722
        k(   26) = (   0.0000000  -0.5773503   0.1024220), wk =   0.0069444
        k(   27) = (   0.0000000  -0.5773503   0.2048440), wk =   0.0069444
        k(   28) = (   0.0000000  -0.5773503  -0.3072660), wk =   0.0034722
        k(   29) = (   0.0833333   0.1443376   0.0000000), wk =   0.0069444
        k(   30) = (   0.0833333   0.1443376   0.1024220), wk =   0.0138889
        k(   31) = (   0.0833333   0.1443376   0.2048440), wk =   0.0138889
        k(   32) = (   0.0833333   0.1443376  -0.3072660), wk =   0.0069444
        k(   33) = (   0.0833333   0.2405626   0.0000000), wk =   0.0138889
        k(   34) = (   0.0833333   0.2405626   0.1024220), wk =   0.0277778
        k(   35) = (   0.0833333   0.2405626   0.2048440), wk =   0.0277778
        k(   36) = (   0.0833333   0.2405626  -0.3072660), wk =   0.0138889
        k(   37) = (   0.0833333   0.3367877   0.0000000), wk =   0.0138889
        k(   38) = (   0.0833333   0.3367877   0.1024220), wk =   0.0277778
        k(   39) = (   0.0833333   0.3367877   0.2048440), wk =   0.0277778
        k(   40) = (   0.0833333   0.3367877  -0.3072660), wk =   0.0138889
        k(   41) = (   0.0833333   0.4330127   0.0000000), wk =   0.0138889
        k(   42) = (   0.0833333   0.4330127   0.1024220), wk =   0.0277778
        k(   43) = (   0.0833333   0.4330127   0.2048440), wk =   0.0277778
        k(   44) = (   0.0833333   0.4330127  -0.3072660), wk =   0.0138889
        k(   45) = (   0.0833333   0.5292377   0.0000000), wk =   0.0138889
        k(   46) = (   0.0833333   0.5292377   0.1024220), wk =   0.0277778
        k(   47) = (   0.0833333   0.5292377   0.2048440), wk =   0.0277778
        k(   48) = (   0.0833333   0.5292377  -0.3072660), wk =   0.0138889
        k(   49) = (   0.1666667   0.2886751   0.0000000), wk =   0.0069444
        k(   50) = (   0.1666667   0.2886751   0.1024220), wk =   0.0138889
        k(   51) = (   0.1666667   0.2886751   0.2048440), wk =   0.0138889
        k(   52) = (   0.1666667   0.2886751  -0.3072660), wk =   0.0069444
        k(   53) = (   0.1666667   0.3849002   0.0000000), wk =   0.0138889
        k(   54) = (   0.1666667   0.3849002   0.1024220), wk =   0.0277778
        k(   55) = (   0.1666667   0.3849002   0.2048440), wk =   0.0277778
        k(   56) = (   0.1666667   0.3849002  -0.3072660), wk =   0.0138889
        k(   57) = (   0.1666667   0.4811252   0.0000000), wk =   0.0138889
        k(   58) = (   0.1666667   0.4811252   0.1024220), wk =   0.0277778
        k(   59) = (   0.1666667   0.4811252   0.2048440), wk =   0.0277778
        k(   60) = (   0.1666667   0.4811252  -0.3072660), wk =   0.0138889
        k(   61) = (   0.1666667   0.5773503   0.0000000), wk =   0.0069444
        k(   62) = (   0.1666667   0.5773503   0.1024220), wk =   0.0138889
        k(   63) = (   0.1666667   0.5773503   0.2048440), wk =   0.0138889
        k(   64) = (   0.1666667   0.5773503  -0.3072660), wk =   0.0069444
        k(   65) = (   0.2500000   0.4330127   0.0000000), wk =   0.0069444
        k(   66) = (   0.2500000   0.4330127   0.1024220), wk =   0.0138889
        k(   67) = (   0.2500000   0.4330127   0.2048440), wk =   0.0138889
        k(   68) = (   0.2500000   0.4330127  -0.3072660), wk =   0.0069444
        k(   69) = (   0.2500000   0.5292377   0.0000000), wk =   0.0138889
        k(   70) = (   0.2500000   0.5292377   0.1024220), wk =   0.0277778
        k(   71) = (   0.2500000   0.5292377   0.2048440), wk =   0.0277778
        k(   72) = (   0.2500000   0.5292377  -0.3072660), wk =   0.0138889
        k(   73) = (   0.3333333   0.5773503   0.0000000), wk =   0.0023148
        k(   74) = (   0.3333333   0.5773503   0.1024220), wk =   0.0046296
        k(   75) = (   0.3333333   0.5773503   0.2048440), wk =   0.0046296
        k(   76) = (   0.3333333   0.5773503  -0.3072660), wk =   0.0023148

                       cryst. coord.
        k(    1) = (   0.0000000   0.0000000   0.0000000), wk =   0.0011574
        k(    2) = (   0.0000000   0.0000000   0.1666667), wk =   0.0023148
        k(    3) = (   0.0000000   0.0000000   0.3333333), wk =   0.0023148
        k(    4) = (   0.0000000   0.0000000  -0.5000000), wk =   0.0011574
        k(    5) = (   0.0000000   0.0833333   0.0000000), wk =   0.0069444
        k(    6) = (   0.0000000   0.0833333   0.1666667), wk =   0.0138889
        k(    7) = (   0.0000000   0.0833333   0.3333333), wk =   0.0138889
        k(    8) = (   0.0000000   0.0833333  -0.5000000), wk =   0.0069444
        k(    9) = (   0.0000000   0.1666667   0.0000000), wk =   0.0069444
        k(   10) = (   0.0000000   0.1666667   0.1666667), wk =   0.0138889
        k(   11) = (   0.0000000   0.1666667   0.3333333), wk =   0.0138889
        k(   12) = (   0.0000000   0.1666667  -0.5000000), wk =   0.0069444
        k(   13) = (   0.0000000   0.2500000   0.0000000), wk =   0.0069444
        k(   14) = (   0.0000000   0.2500000   0.1666667), wk =   0.0138889
        k(   15) = (   0.0000000   0.2500000   0.3333333), wk =   0.0138889
        k(   16) = (   0.0000000   0.2500000  -0.5000000), wk =   0.0069444
        k(   17) = (   0.0000000   0.3333333   0.0000000), wk =   0.0069444
        k(   18) = (   0.0000000   0.3333333   0.1666667), wk =   0.0138889
        k(   19) = (   0.0000000   0.3333333   0.3333333), wk =   0.0138889
        k(   20) = (   0.0000000   0.3333333  -0.5000000), wk =   0.0069444
        k(   21) = (   0.0000000   0.4166667   0.0000000), wk =   0.0069444
        k(   22) = (   0.0000000   0.4166667   0.1666667), wk =   0.0138889
        k(   23) = (   0.0000000   0.4166667   0.3333333), wk =   0.0138889
        k(   24) = (   0.0000000   0.4166667  -0.5000000), wk =   0.0069444
        k(   25) = (   0.0000000  -0.5000000   0.0000000), wk =   0.0034722
        k(   26) = (   0.0000000  -0.5000000   0.1666667), wk =   0.0069444
        k(   27) = (   0.0000000  -0.5000000   0.3333333), wk =   0.0069444
        k(   28) = (   0.0000000  -0.5000000  -0.5000000), wk =   0.0034722
        k(   29) = (   0.0833333   0.0833333   0.0000000), wk =   0.0069444
        k(   30) = (   0.0833333   0.0833333   0.1666667), wk =   0.0138889
        k(   31) = (   0.0833333   0.0833333   0.3333333), wk =   0.0138889
        k(   32) = (   0.0833333   0.0833333  -0.5000000), wk =   0.0069444
        k(   33) = (   0.0833333   0.1666667   0.0000000), wk =   0.0138889
        k(   34) = (   0.0833333   0.1666667   0.1666667), wk =   0.0277778
        k(   35) = (   0.0833333   0.1666667   0.3333333), wk =   0.0277778
        k(   36) = (   0.0833333   0.1666667  -0.5000000), wk =   0.0138889
        k(   37) = (   0.0833333   0.2500000   0.0000000), wk =   0.0138889
        k(   38) = (   0.0833333   0.2500000   0.1666667), wk =   0.0277778
        k(   39) = (   0.0833333   0.2500000   0.3333333), wk =   0.0277778
        k(   40) = (   0.0833333   0.2500000  -0.5000000), wk =   0.0138889
        k(   41) = (   0.0833333   0.3333333   0.0000000), wk =   0.0138889
        k(   42) = (   0.0833333   0.3333333   0.1666667), wk =   0.0277778
        k(   43) = (   0.0833333   0.3333333   0.3333333), wk =   0.0277778
        k(   44) = (   0.0833333   0.3333333  -0.5000000), wk =   0.0138889
        k(   45) = (   0.0833333   0.4166667   0.0000000), wk =   0.0138889
        k(   46) = (   0.0833333   0.4166667   0.1666667), wk =   0.0277778
        k(   47) = (   0.0833333   0.4166667   0.3333333), wk =   0.0277778
        k(   48) = (   0.0833333   0.4166667  -0.5000000), wk =   0.0138889
        k(   49) = (   0.1666667   0.1666667   0.0000000), wk =   0.0069444
        k(   50) = (   0.1666667   0.1666667   0.1666667), wk =   0.0138889
        k(   51) = (   0.1666667   0.1666667   0.3333333), wk =   0.0138889
        k(   52) = (   0.1666667   0.1666667  -0.5000000), wk =   0.0069444
        k(   53) = (   0.1666667   0.2500000   0.0000000), wk =   0.0138889
        k(   54) = (   0.1666667   0.2500000   0.1666667), wk =   0.0277778
        k(   55) = (   0.1666667   0.2500000   0.3333333), wk =   0.0277778
        k(   56) = (   0.1666667   0.2500000  -0.5000000), wk =   0.0138889
        k(   57) = (   0.1666667   0.3333333   0.0000000), wk =   0.0138889
        k(   58) = (   0.1666667   0.3333333   0.1666667), wk =   0.0277778
        k(   59) = (   0.1666667   0.3333333   0.3333333), wk =   0.0277778
        k(   60) = (   0.1666667   0.3333333  -0.5000000), wk =   0.0138889
        k(   61) = (   0.1666667   0.4166667   0.0000000), wk =   0.0069444
        k(   62) = (   0.1666667   0.4166667   0.1666667), wk =   0.0138889
        k(   63) = (   0.1666667   0.4166667   0.3333333), wk =   0.0138889
        k(   64) = (   0.1666667   0.4166667  -0.5000000), wk =   0.0069444
        k(   65) = (   0.2500000   0.2500000   0.0000000), wk =   0.0069444
        k(   66) = (   0.2500000   0.2500000   0.1666667), wk =   0.0138889
        k(   67) = (   0.2500000   0.2500000   0.3333333), wk =   0.0138889
        k(   68) = (   0.2500000   0.2500000  -0.5000000), wk =   0.0069444
        k(   69) = (   0.2500000   0.3333333   0.0000000), wk =   0.0138889
        k(   70) = (   0.2500000   0.3333333   0.1666667), wk =   0.0277778
        k(   71) = (   0.2500000   0.3333333   0.3333333), wk =   0.0277778
        k(   72) = (   0.2500000   0.3333333  -0.5000000), wk =   0.0138889
        k(   73) = (   0.3333333   0.3333333   0.0000000), wk =   0.0023148
        k(   74) = (   0.3333333   0.3333333   0.1666667), wk =   0.0046296
        k(   75) = (   0.3333333   0.3333333   0.3333333), wk =   0.0046296
        k(   76) = (   0.3333333   0.3333333  -0.5000000), wk =   0.0023148

     Dense  grid:    23775 G-vectors     FFT dimensions: (  32,  32,  54)

     Smooth grid:    23019 G-vectors     FFT dimensions: (  32,  32,  54)

     Dynamical RAM for                 wfc:       0.05 MB

     Dynamical RAM for     wfc (w. buffer):       7.01 MB

     Dynamical RAM for           str. fact:       0.02 MB

     Dynamical RAM for           local pot:       0.00 MB

     Dynamical RAM for          nlocal pot:       0.08 MB

     Dynamical RAM for                qrad:       1.70 MB

     Dynamical RAM for          rho,v,vnew:       0.25 MB

     Dynamical RAM for               rhoin:       0.08 MB

     Dynamical RAM for            rho*nmix:       0.58 MB

     Dynamical RAM for           G-vectors:       0.08 MB

     Dynamical RAM for          h,s,v(r/c):       0.08 MB

     Dynamical RAM for          <psi|beta>:       0.01 MB

     Dynamical RAM for                 psi:       0.09 MB

     Dynamical RAM for                hpsi:       0.09 MB

     Dynamical RAM for                spsi:       0.09 MB

     Dynamical RAM for      wfcinit/wfcrot:       0.10 MB

     Dynamical RAM for           addusdens:       3.42 MB

     Estimated static dynamical RAM per process >       9.40 MB

     Estimated max dynamical RAM per process >      13.40 MB

     Estimated total dynamical RAM >     267.97 MB

     Check: negative core charge=   -0.000043
     Generating pointlists ...
     new r_m :   0.4115 (alat units)  1.9403 (a.u.) for type    1

     The initial density is read from file :
     ./out/Co.save/charge-density


     starting charge      33.9693, renormalised to      34.0000

     negative rho (up, down):  2.960E-01 2.376E-01
     Starting wfcs from file
     Checking if some PAW data can be deallocated... 

     total cpu time spent up to now is        0.6 secs

     Self-consistent Calculation

     iteration #  1     ecut=   110.00 Ry     beta= 0.70
     Davidson diagonalization with overlap

---- Real-time Memory Report at c_bands before calling an iterative solver
            56 MiB given to the printing process from OS
             0 MiB allocation reported by mallinfo(arena+hblkhd)
        351555 MiB available memory on the node where the printing process lives
------------------
     c_bands:  1 eigenvalues not converged
     c_bands:  1 eigenvalues not converged
     c_bands:  2 eigenvalues not converged
     c_bands:  1 eigenvalues not converged
     c_bands:  1 eigenvalues not converged
     c_bands:  4 eigenvalues not converged
     c_bands:  2 eigenvalues not converged
     c_bands:  1 eigenvalues not converged
     c_bands:  2 eigenvalues not converged
     c_bands:  1 eigenvalues not converged
     c_bands:  1 eigenvalues not converged
     c_bands:  1 eigenvalues not converged
     c_bands:  5 eigenvalues not converged
     c_bands:  1 eigenvalues not converged
     c_bands:  4 eigenvalues not converged
     c_bands:  2 eigenvalues not converged
     c_bands:  2 eigenvalues not converged
     c_bands:  2 eigenvalues not converged
     c_bands:  2 eigenvalues not converged
     c_bands:  1 eigenvalues not converged
     c_bands:  4 eigenvalues not converged
     c_bands:  3 eigenvalues not converged
     c_bands:  2 eigenvalues not converged
     c_bands:  2 eigenvalues not converged
     c_bands:  2 eigenvalues not converged
     c_bands:  3 eigenvalues not converged
     c_bands:  1 eigenvalues not converged
     c_bands:  3 eigenvalues not converged
     c_bands:  1 eigenvalues not converged
     c_bands:  2 eigenvalues not converged
     c_bands:  5 eigenvalues not converged
     c_bands:  2 eigenvalues not converged
     c_bands:  5 eigenvalues not converged
     c_bands:  3 eigenvalues not converged
     c_bands:  4 eigenvalues not converged
     c_bands:  1 eigenvalues not converged
     c_bands:  2 eigenvalues not converged
     c_bands:  1 eigenvalues not converged
     c_bands:  1 eigenvalues not converged
     c_bands:  4 eigenvalues not converged
     c_bands:  1 eigenvalues not converged
     c_bands:  1 eigenvalues not converged
     c_bands:  3 eigenvalues not converged
     c_bands:  1 eigenvalues not converged
     c_bands:  1 eigenvalues not converged
     c_bands:  2 eigenvalues not converged
     c_bands:  1 eigenvalues not converged
     c_bands:  1 eigenvalues not converged
     c_bands:  2 eigenvalues not converged
     c_bands:  5 eigenvalues not converged
     c_bands:  4 eigenvalues not converged
     c_bands:  1 eigenvalues not converged
     c_bands:  2 eigenvalues not converged
     c_bands:  5 eigenvalues not converged
     c_bands:  2 eigenvalues not converged
     c_bands:  2 eigenvalues not converged
     c_bands:  2 eigenvalues not converged
     c_bands:  2 eigenvalues not converged
     c_bands:  1 eigenvalues not converged
     c_bands:  3 eigenvalues not converged
     c_bands:  2 eigenvalues not converged
     c_bands:  3 eigenvalues not converged
     c_bands:  1 eigenvalues not converged
     c_bands:  4 eigenvalues not converged
     c_bands:  3 eigenvalues not converged
     c_bands:  4 eigenvalues not converged
     c_bands:  5 eigenvalues not converged
     c_bands:  2 eigenvalues not converged
     ethr =  1.00E-05,  avg # of iterations = 20.5

     negative rho (up, down):  3.464E-03 2.282E-03

     total cpu time spent up to now is        9.9 secs

     total energy              =    -753.18564113 Ry
     estimated scf accuracy    <       0.17642945 Ry

     total magnetization       =     3.40 Bohr mag/cell
     absolute magnetization    =     3.72 Bohr mag/cell

     iteration #  2     ecut=   110.00 Ry     beta= 0.70
     Davidson diagonalization with overlap

---- Real-time Memory Report at c_bands before calling an iterative solver
            76 MiB given to the printing process from OS
             0 MiB allocation reported by mallinfo(arena+hblkhd)
        351335 MiB available memory on the node where the printing process lives
------------------
     ethr =  5.19E-04,  avg # of iterations =  4.4

     negative rho (up, down):  1.478E-03 9.958E-04

     total cpu time spent up to now is       11.7 secs

     total energy              =    -753.21859368 Ry
     estimated scf accuracy    <       0.31882548 Ry

     total magnetization       =     3.16 Bohr mag/cell
     absolute magnetization    =     3.39 Bohr mag/cell

     iteration #  3     ecut=   110.00 Ry     beta= 0.70
     Davidson diagonalization with overlap

---- Real-time Memory Report at c_bands before calling an iterative solver
            78 MiB given to the printing process from OS
             0 MiB allocation reported by mallinfo(arena+hblkhd)
        351325 MiB available memory on the node where the printing process lives
------------------
     ethr =  5.19E-04,  avg # of iterations =  3.4

     total cpu time spent up to now is       13.3 secs

     total energy              =    -753.44049486 Ry
     estimated scf accuracy    <       0.00930896 Ry

     total magnetization       =     3.34 Bohr mag/cell
     absolute magnetization    =     3.61 Bohr mag/cell

     iteration #  4     ecut=   110.00 Ry     beta= 0.70
     Davidson diagonalization with overlap

---- Real-time Memory Report at c_bands before calling an iterative solver
            78 MiB given to the printing process from OS
             0 MiB allocation reported by mallinfo(arena+hblkhd)
        351313 MiB available memory on the node where the printing process lives
------------------
     ethr =  2.74E-05,  avg # of iterations =  6.4

     total cpu time spent up to now is       15.9 secs

     total energy              =    -753.44395550 Ry
     estimated scf accuracy    <       0.07024032 Ry

     total magnetization       =     3.39 Bohr mag/cell
     absolute magnetization    =     3.70 Bohr mag/cell

     iteration #  5     ecut=   110.00 Ry     beta= 0.70
     Davidson diagonalization with overlap

---- Real-time Memory Report at c_bands before calling an iterative solver
            79 MiB given to the printing process from OS
             0 MiB allocation reported by mallinfo(arena+hblkhd)
        351301 MiB available memory on the node where the printing process lives
------------------
     ethr =  2.74E-05,  avg # of iterations =  4.8

     total cpu time spent up to now is       18.0 secs

     total energy              =    -753.45472927 Ry
     estimated scf accuracy    <       0.00018412 Ry

     total magnetization       =     3.35 Bohr mag/cell
     absolute magnetization    =     3.65 Bohr mag/cell

     iteration #  6     ecut=   110.00 Ry     beta= 0.70
     Davidson diagonalization with overlap

---- Real-time Memory Report at c_bands before calling an iterative solver
            80 MiB given to the printing process from OS
             0 MiB allocation reported by mallinfo(arena+hblkhd)
        351293 MiB available memory on the node where the printing process lives
------------------
     c_bands:  1 eigenvalues not converged
     ethr =  5.42E-07,  avg # of iterations =  6.8

     total cpu time spent up to now is       20.5 secs

     total energy              =    -753.45494389 Ry
     estimated scf accuracy    <       0.00017630 Ry

     total magnetization       =     3.35 Bohr mag/cell
     absolute magnetization    =     3.66 Bohr mag/cell

     iteration #  7     ecut=   110.00 Ry     beta= 0.70
     Davidson diagonalization with overlap

---- Real-time Memory Report at c_bands before calling an iterative solver
            81 MiB given to the printing process from OS
             0 MiB allocation reported by mallinfo(arena+hblkhd)
        351288 MiB available memory on the node where the printing process lives
------------------
     ethr =  5.19E-07,  avg # of iterations =  3.8

     total cpu time spent up to now is       22.3 secs

     total energy              =    -753.45501118 Ry
     estimated scf accuracy    <       0.00010164 Ry

     total magnetization       =     3.36 Bohr mag/cell
     absolute magnetization    =     3.68 Bohr mag/cell

     iteration #  8     ecut=   110.00 Ry     beta= 0.70
     Davidson diagonalization with overlap

---- Real-time Memory Report at c_bands before calling an iterative solver
            83 MiB given to the printing process from OS
             0 MiB allocation reported by mallinfo(arena+hblkhd)
        351281 MiB available memory on the node where the printing process lives
------------------
     ethr =  2.99E-07,  avg # of iterations =  1.5

     total cpu time spent up to now is       23.5 secs

     total energy              =    -753.45501834 Ry
     estimated scf accuracy    <       0.00000810 Ry

     total magnetization       =     3.36 Bohr mag/cell
     absolute magnetization    =     3.68 Bohr mag/cell

     iteration #  9     ecut=   110.00 Ry     beta= 0.70
     Davidson diagonalization with overlap

---- Real-time Memory Report at c_bands before calling an iterative solver
            84 MiB given to the printing process from OS
             0 MiB allocation reported by mallinfo(arena+hblkhd)
        351277 MiB available memory on the node where the printing process lives
------------------
     ethr =  2.38E-08,  avg # of iterations =  7.8

     total cpu time spent up to now is       26.1 secs

     total energy              =    -753.45502903 Ry
     estimated scf accuracy    <       0.00000709 Ry

     total magnetization       =     3.36 Bohr mag/cell
     absolute magnetization    =     3.68 Bohr mag/cell

     iteration # 10     ecut=   110.00 Ry     beta= 0.70
     Davidson diagonalization with overlap

---- Real-time Memory Report at c_bands before calling an iterative solver
            84 MiB given to the printing process from OS
             0 MiB allocation reported by mallinfo(arena+hblkhd)
        351267 MiB available memory on the node where the printing process lives
------------------
     ethr =  2.08E-08,  avg # of iterations =  1.3

     total cpu time spent up to now is       27.3 secs

     total energy              =    -753.45502783 Ry
     estimated scf accuracy    <       0.00000489 Ry

     total magnetization       =     3.36 Bohr mag/cell
     absolute magnetization    =     3.68 Bohr mag/cell

     iteration # 11     ecut=   110.00 Ry     beta= 0.70
     Davidson diagonalization with overlap

---- Real-time Memory Report at c_bands before calling an iterative solver
            84 MiB given to the printing process from OS
             0 MiB allocation reported by mallinfo(arena+hblkhd)
        351265 MiB available memory on the node where the printing process lives
------------------
     ethr =  1.44E-08,  avg # of iterations =  2.4
 
     Magnetic moment per site  (integrated on atomic sphere of radius R)
     atom   1 (R=0.412)  charge= 15.6055  magn=  1.7545
     atom   2 (R=0.412)  charge= 15.6055  magn=  1.7545

     total cpu time spent up to now is       28.7 secs

     End of self-consistent calculation

 ------ SPIN UP ------------


          k = 0.0000 0.0000 0.0000 (  2875 PWs)   bands (ev):

   -77.6502 -77.5973 -41.0479 -40.7590 -40.7590 -40.7360 -40.7143 -40.7143
     9.5393  13.3220  15.8095  15.8734  15.8734  16.1755  16.1755  16.5261
    16.5261  17.5950  17.5950  18.1868  24.6108

     occupation numbers 
     1.0000   1.0000   1.0000   1.0000   1.0000   1.0000   1.0000   1.0000
     1.0000   1.0000   1.0000   1.0000   1.0000   1.0000   1.0000   1.0000
     1.0000   1.0000   1.0000   1.0000   0.0000

          k = 0.0000 0.0000 0.1024 (  2863 PWs)   bands (ev):

   -77.6467 -77.6009 -41.0273 -40.7571 -40.7559 -40.7559 -40.7173 -40.7173
     9.8124  13.2486  15.7412  15.8122  15.8122  16.1050  16.1050  16.6824
    16.6824  17.2431  17.5780  17.5780  26.1191

     occupation numbers 
     1.0000   1.0000   1.0000   1.0000   1.0000   1.0000   1.0000   1.0000
     1.0000   1.0000   1.0000   1.0000   1.0000   1.0000   1.0000   1.0000
     1.0000   1.0000   1.0000   1.0000   0.0000

          k = 0.0000 0.0000 0.2048 (  2888 PWs)   bands (ev):

   -77.6370 -77.6106 -40.9707 -40.8148 -40.7478 -40.7478 -40.7255 -40.7255
    10.5960  12.8016  15.5836  15.7600  15.7600  15.9491  15.9491  15.9495
    16.9927  16.9927  17.4910  17.4910  29.3032

     occupation numbers 
     1.0000   1.0000   1.0000   1.0000   1.0000   1.0000   1.0000   1.0000
     1.0000   1.0000   1.0000   1.0000   1.0000   1.0000   1.0000   1.0000
     1.0000   1.0000   1.0000   1.0000   0.0000

          k = 0.0000 0.0000-0.3073 (  2834 PWs)   bands (ev):

   -77.6238 -77.6238 -40.8930 -40.8930 -40.7366 -40.7366 -40.7366 -40.7366
    11.7401  11.7401  15.5092  15.5092  15.8101  15.8101  15.8101  15.8101
    17.2901  17.2901  17.2901  17.2901  33.1062

     occupation numbers 
     1.0000   1.0000   1.0000   1.0000   1.0000   1.0000   1.0000   1.0000
     1.0000   1.0000   1.0000   1.0000   1.0000   1.0000   1.0000   1.0000
     1.0000   1.0000   1.0000   1.0000   0.0000

          k = 0.0000 0.0962 0.0000 (  2853 PWs)   bands (ev):

   -77.6471 -77.5958 -41.0411 -40.7743 -40.7639 -40.7387 -40.7302 -40.7169
     9.7805  13.4677  15.6275  15.9863  16.0205  16.1268  16.2758  16.3668
    16.4563  16.7994  17.6239  19.3054  24.6515

     occupation numbers 
     1.0000   1.0000   1.0000   1.0000   1.0000   1.0000   1.0000   1.0000
     1.0000   1.0000   1.0000   1.0000   1.0000   1.0000   1.0000   1.0000
     1.0000   1.0000   1.0000   0.0000   0.0000

          k = 0.0000 0.0962 0.1024 (  2866 PWs)   bands (ev):

   -77.6437 -77.5993 -41.0216 -40.7710 -40.7633 -40.7608 -40.7289 -40.7201
    10.0494  13.4088  15.6265  15.8524  15.9090  15.9491  16.1994  16.4779
    16.6386  16.7138  17.5999  18.5394  26.2291

     occupation numbers 
     1.0000   1.0000   1.0000   1.0000   1.0000   1.0000   1.0000   1.0000
     1.0000   1.0000   1.0000   1.0000   1.0000   1.0000   1.0000   1.0000
     1.0000   1.0000   1.0000   0.0000   0.0000

          k = 0.0000 0.0962 0.2048 (  2876 PWs)   bands (ev):

   -77.6343 -77.6087 -40.9681 -40.8200 -40.7614 -40.7522 -40.7364 -40.7287
    10.8207  12.9899  15.5164  15.5665  15.6823  15.8499  16.0422  16.0957
    16.9674  17.0108  17.4967  17.7857  29.4576

     occupation numbers 
     1.0000   1.0000   1.0000   1.0000   1.0000   1.0000   1.0000   1.0000
     1.0000   1.0000   1.0000   1.0000   1.0000   1.0000   1.0000   1.0000
     1.0000   1.0000   1.0000   1.0000   0.0000

          k = 0.0000 0.0962-0.3073 (  2868 PWs)   bands (ev):

   -77.6215 -77.6215 -40.8945 -40.8945 -40.7487 -40.7487 -40.7404 -40.7404
    11.9466  11.9466  15.3707  15.3707  15.8182  15.8182  15.9013  15.9013
    17.2791  17.2791  17.3799  17.3799  33.2752

     occupation numbers 
     1.0000   1.0000   1.0000   1.0000   1.0000   1.0000   1.0000   1.0000
     1.0000   1.0000   1.0000   1.0000   1.0000   1.0000   1.0000   1.0000
     1.0000   1.0000   1.0000   1.0000   0.0000

          k = 0.0000 0.1925 0.0000 (  2861 PWs)   bands (ev):

   -77.6386 -77.5920 -41.0216 -40.8166 -40.7773 -40.7734 -40.7470 -40.7243
    10.4781  13.8287  15.3654  15.6306  15.9479  16.2841  16.3051  16.3192
    16.4597  16.5569  17.6851  20.8826  24.7950

     occupation numbers 
     1.0000   1.0000   1.0000   1.0000   1.0000   1.0000   1.0000   1.0000
     1.0000   1.0000   1.0000   1.0000   1.0000   1.0000   1.0000   1.0000
     1.0000   1.0000   1.0000   0.0000   0.0000

          k = 0.0000 0.1925 0.1024 (  2864 PWs)   bands (ev):

   -77.6355 -77.5951 -41.0058 -40.8118 -40.7926 -40.7737 -40.7487 -40.7279
    10.7313  13.8141  15.3630  15.4054  15.8292  16.1183  16.2081  16.4445
    16.6191  16.7011  17.6454  19.7564  26.5868

     occupation numbers 
     1.0000   1.0000   1.0000   1.0000   1.0000   1.0000   1.0000   1.0000
     1.0000   1.0000   1.0000   1.0000   1.0000   1.0000   1.0000   1.0000
     1.0000   1.0000   1.0000   0.0000   0.0000

          k = 0.0000 0.1925 0.2048 (  2872 PWs)   bands (ev):

   -77.6269 -77.6036 -40.9625 -40.8415 -40.7963 -40.7641 -40.7595 -40.7376
    11.4544  13.4778  15.0304  15.4616  15.5529  16.0352  16.0693  16.3000
    16.9414  17.0949  17.5090  18.4221  29.9195

     occupation numbers 
     1.0000   1.0000   1.0000   1.0000   1.0000   1.0000   1.0000   1.0000
     1.0000   1.0000   1.0000   1.0000   1.0000   1.0000   1.0000   1.0000
     1.0000   1.0000   1.0000   1.0000   0.0000

          k = 0.0000 0.1925-0.3073 (  2876 PWs)   bands (ev):

   -77.6153 -77.6153 -40.9026 -40.9026 -40.7774 -40.7774 -40.7508 -40.7508
    12.5031  12.5031  15.1471  15.1471  15.7579  15.7579  16.1443  16.1443
    17.2636  17.2636  17.6221  17.6221  33.7381

     occupation numbers 
     1.0000   1.0000   1.0000   1.0000   1.0000   1.0000   1.0000   1.0000
     1.0000   1.0000   1.0000   1.0000   1.0000   1.0000   1.0000   1.0000
     1.0000   1.0000   1.0000   1.0000   0.0000

          k = 0.0000 0.2887 0.0000 (  2864 PWs)   bands (ev):

   -77.6264 -77.5871 -40.9925 -40.8747 -40.8315 -40.7950 -40.7610 -40.7349
    11.5347  14.1198  14.9170  15.2058  15.8478  16.0768  16.2591  16.7451
    16.7675  16.9608  17.7422  22.6601  25.0749

     occupation numbers 
     1.0000   1.0000   1.0000   1.0000   1.0000   1.0000   1.0000   1.0000
     1.0000   1.0000   1.0000   1.0000   1.0000   1.0000   1.0000   1.0000
     1.0000   1.0000   1.0000   0.0000   0.0000

          k = 0.0000 0.2887 0.1024 (  2872 PWs)   bands (ev):

   -77.6238 -77.5897 -40.9851 -40.8658 -40.8452 -40.7910 -40.7637 -40.7390
    11.7459  14.1585  14.7768  15.2564  15.6998  16.1151  16.2613  16.8085
    16.8667  16.9177  17.6890  21.0239  27.2294

     occupation numbers 
     1.0000   1.0000   1.0000   1.0000   1.0000   1.0000   1.0000   1.0000
     1.0000   1.0000   1.0000   1.0000   1.0000   1.0000   1.0000   1.0000
     1.0000   1.0000   1.0000   0.0000   0.0000

          k = 0.0000 0.2887 0.2048 (  2880 PWs)   bands (ev):

   -77.6166 -77.5970 -40.9626 -40.8860 -40.8346 -40.7800 -40.7770 -40.7500
    12.3344  13.9129  14.7042  15.2814  15.5779  16.1065  16.2357  16.6625
    17.0637  17.2509  17.5349  19.1875  30.5667

     occupation numbers 
     1.0000   1.0000   1.0000   1.0000   1.0000   1.0000   1.0000   1.0000
     1.0000   1.0000   1.0000   1.0000   1.0000   1.0000   1.0000   1.0000
     1.0000   1.0000   1.0000   0.0000   0.0000

          k = 0.0000 0.2887-0.3073 (  2888 PWs)   bands (ev):

   -77.6068 -77.6068 -40.9272 -40.9272 -40.8030 -40.8030 -40.7650 -40.7650
    13.1502  13.1502  14.9948  14.9948  15.8172  15.8172  16.4326  16.4326
    17.3075  17.3075  17.9630  17.9630  32.7688

     occupation numbers 
     1.0000   1.0000   1.0000   1.0000   1.0000   1.0000   1.0000   1.0000
     1.0000   1.0000   1.0000   1.0000   1.0000   1.0000   1.0000   1.0000
     1.0000   1.0000   1.0000   1.0000   0.0000

          k = 0.0000 0.3849 0.0000 (  2876 PWs)   bands (ev):

   -77.6134 -77.5831 -40.9584 -40.9333 -40.8885 -40.8123 -40.7798 -40.7459
    12.6914  14.0547  14.4030  15.3138  15.8900  15.9676  16.0773  17.2605
    17.3983  17.4289  17.7807  24.5993  25.1738

     occupation numbers 
     1.0000   1.0000   1.0000   1.0000   1.0000   1.0000   1.0000   1.0000
     1.0000   1.0000   1.0000   1.0000   1.0000   1.0000   1.0000   1.0000
     1.0000   1.0000   1.0000   0.0000   0.0000

          k = 0.0000 0.3849 0.1024 (  2880 PWs)   bands (ev):

   -77.6114 -77.5851 -40.9754 -40.9118 -40.8931 -40.8079 -40.7798 -40.7504
    12.7904  14.0818  14.4378  15.1671  15.8958  15.9804  16.4210  17.2761
    17.3084  17.3657  17.7321  22.2592  27.3494

     occupation numbers 
     1.0000   1.0000   1.0000   1.0000   1.0000   1.0000   1.0000   1.0000
     1.0000   1.0000   1.0000   1.0000   1.0000   1.0000   1.0000   1.0000
     1.0000   1.0000   1.0000   0.0000   0.0000

          k = 0.0000 0.3849 0.2048 (  2878 PWs)   bands (ev):

   -77.6059 -77.5907 -40.9813 -40.9378 -40.8528 -40.7958 -40.7882 -40.7625
    13.0676  13.8980  14.5800  15.0772  16.0025  16.2352  16.7294  16.9951
    17.3790  17.4774  17.6238  20.0731  28.4671

     occupation numbers 
     1.0000   1.0000   1.0000   1.0000   1.0000   1.0000   1.0000   1.0000
     1.0000   1.0000   1.0000   1.0000   1.0000   1.0000   1.0000   1.0000
     1.0000   1.0000   1.0000   0.0000   0.0000

          k = 0.0000 0.3849-0.3073 (  2882 PWs)   bands (ev):

   -77.5983 -77.5983 -40.9668 -40.9668 -40.8133 -40.8133 -40.7792 -40.7792
    13.4714  13.4714  14.8657  14.8657  16.4127  16.4127  16.6035  16.6035
    17.4974  17.4974  18.4429  18.4429  29.5747

     occupation numbers 
     1.0000   1.0000   1.0000   1.0000   1.0000   1.0000   1.0000   1.0000
     1.0000   1.0000   1.0000   1.0000   1.0000   1.0000   1.0000   1.0000
     1.0000   1.0000   0.9970   0.9970   0.0000

          k = 0.0000 0.4811 0.0000 (  2886 PWs)   bands (ev):

   -77.6028 -77.5812 -40.9764 -40.9296 -40.9269 -40.8248 -40.8002 -40.7541
    13.4570  13.8685  14.0966  15.6670  15.7624  15.9482  16.1711  17.6295
    17.7599  17.8008  18.5384  23.4040  26.6039

     occupation numbers 
     1.0000   1.0000   1.0000   1.0000   1.0000   1.0000   1.0000   1.0000
     1.0000   1.0000   1.0000   1.0000   1.0000   1.0000   1.0000   1.0000
     1.0000   1.0000   0.0000   0.0000   0.0000

          k = 0.0000 0.4811 0.1024 (  2886 PWs)   bands (ev):

   -77.6014 -77.5827 -40.9946 -40.9463 -40.8958 -40.8201 -40.7965 -40.7588
    13.3506  13.8627  14.4032  15.0603  15.8725  16.1751  16.7748  17.5542
    17.6596  17.8201  18.3818  22.6169  25.9442

     occupation numbers 
     1.0000   1.0000   1.0000   1.0000   1.0000   1.0000   1.0000   1.0000
     1.0000   1.0000   1.0000   1.0000   1.0000   1.0000   1.0000   1.0000
     1.0000   1.0000   1.0000   0.0000   0.0000

          k = 0.0000 0.4811 0.2048 (  2878 PWs)   bands (ev):

   -77.5974 -77.5866 -41.0084 -40.9768 -40.8506 -40.8072 -40.7971 -40.7718
    13.3198  13.7886  14.5652  14.8816  16.1851  16.4264  17.1478  17.6914
    17.7186  17.7921  18.0779  20.9130  26.0914

     occupation numbers 
     1.0000   1.0000   1.0000   1.0000   1.0000   1.0000   1.0000   1.0000
     1.0000   1.0000   1.0000   1.0000   1.0000   1.0000   1.0000   1.0000
     1.0000   1.0000   1.0000   0.0000   0.0000

          k = 0.0000 0.4811-0.3073 (  2880 PWs)   bands (ev):

   -77.5920 -77.5920 -41.0015 -41.0015 -40.8149 -40.8149 -40.7895 -40.7895
    13.5013  13.5013  14.7439  14.7439  16.6436  16.6436  17.1272  17.1272
    17.7426  17.7426  19.2790  19.2790  26.8656

     occupation numbers 
     1.0000   1.0000   1.0000   1.0000   1.0000   1.0000   1.0000   1.0000
     1.0000   1.0000   1.0000   1.0000   1.0000   1.0000   1.0000   1.0000
     1.0000   1.0000   0.0000   0.0000   0.0000

          k = 0.0000-0.5774 0.0000 (  2886 PWs)   bands (ev):

   -77.5984 -77.5811 -40.9923 -40.9446 -40.9122 -40.8293 -40.8108 -40.7571
    13.7211  13.7242  13.9951  15.7172  15.9016  15.9145  16.2451  17.7630
    17.8068  17.9061  19.6942  21.6893  27.9061

     occupation numbers 
     1.0000   1.0000   1.0000   1.0000   1.0000   1.0000   1.0000   1.0000
     1.0000   1.0000   1.0000   1.0000   1.0000   1.0000   1.0000   1.0000
     1.0000   1.0000   0.0000   0.0000   0.0000

          k = 0.0000-0.5774 0.1024 (  2878 PWs)   bands (ev):

   -77.5972 -77.5822 -41.0066 -40.9603 -40.8878 -40.8245 -40.8050 -40.7620
    13.4522  13.7689  14.4367  15.0321  15.8331  16.2601  16.9749  17.6080
    17.8016  17.8987  19.4906  21.5147  27.0480

     occupation numbers 
     1.0000   1.0000   1.0000   1.0000   1.0000   1.0000   1.0000   1.0000
     1.0000   1.0000   1.0000   1.0000   1.0000   1.0000   1.0000   1.0000
     1.0000   1.0000   0.0000   0.0000   0.0000

          k = 0.0000-0.5774 0.2048 (  2886 PWs)   bands (ev):

   -77.5941 -77.5854 -41.0203 -40.9911 -40.8467 -40.8113 -40.8013 -40.7752
    13.3411  13.7457  14.5910  14.7912  16.1622  16.5667  17.1791  17.8213
    17.8349  17.8781  19.1795  20.9248  26.0585

     occupation numbers 
     1.0000   1.0000   1.0000   1.0000   1.0000   1.0000   1.0000   1.0000
     1.0000   1.0000   1.0000   1.0000   1.0000   1.0000   1.0000   1.0000
     1.0000   1.0000   0.0000   0.0000   0.0000

          k = 0.0000-0.5774-0.3073 (  2884 PWs)   bands (ev):

   -77.5897 -77.5897 -41.0149 -41.0149 -40.8147 -40.8147 -40.7933 -40.7933
    13.4859  13.4859  14.6963  14.6963  16.6460  16.6460  17.3630  17.3630
    17.8498  17.8498  19.9388  19.9388  25.6076

     occupation numbers 
     1.0000   1.0000   1.0000   1.0000   1.0000   1.0000   1.0000   1.0000
     1.0000   1.0000   1.0000   1.0000   1.0000   1.0000   1.0000   1.0000
     1.0000   1.0000   0.0000   0.0000   0.0000

          k = 0.0833 0.1443 0.0000 (  2858 PWs)   bands (ev):

   -77.6413 -77.5932 -41.0279 -40.8005 -40.7797 -40.7537 -40.7443 -40.7239
    10.2507  13.7269  15.4213  15.8742  16.0213  16.1693  16.2168  16.2517
    16.4958  16.5828  17.6588  20.4408  24.7456

     occupation numbers 
     1.0000   1.0000   1.0000   1.0000   1.0000   1.0000   1.0000   1.0000
     1.0000   1.0000   1.0000   1.0000   1.0000   1.0000   1.0000   1.0000
     1.0000   1.0000   1.0000   0.0000   0.0000

          k = 0.0833 0.1443 0.1024 (  2870 PWs)   bands (ev):

   -77.6381 -77.5964 -41.0108 -40.7961 -40.7856 -40.7690 -40.7418 -40.7273
    10.5099  13.6979  15.4481  15.5474  15.8733  16.0738  16.1865  16.3612
    16.6366  16.6950  17.6268  19.4261  26.4649

     occupation numbers 
     1.0000   1.0000   1.0000   1.0000   1.0000   1.0000   1.0000   1.0000
     1.0000   1.0000   1.0000   1.0000   1.0000   1.0000   1.0000   1.0000
     1.0000   1.0000   1.0000   0.0000   0.0000

          k = 0.0833 0.1443 0.2048 (  2872 PWs)   bands (ev):

   -77.6293 -77.6052 -40.9639 -40.8333 -40.7840 -40.7650 -40.7488 -40.7365
    11.2516  13.3344  15.1518  15.5077  15.5644  15.9988  16.0545  16.2203
    16.9700  17.0423  17.5080  18.2377  29.7685

     occupation numbers 
     1.0000   1.0000   1.0000   1.0000   1.0000   1.0000   1.0000   1.0000
     1.0000   1.0000   1.0000   1.0000   1.0000   1.0000   1.0000   1.0000
     1.0000   1.0000   1.0000   1.0000   0.0000

          k = 0.0833 0.1443-0.3073 (  2866 PWs)   bands (ev):

   -77.6173 -77.6173 -40.8992 -40.8992 -40.7687 -40.7687 -40.7480 -40.7480
    12.3316  12.3316  15.2042  15.2042  15.7592  15.7592  16.0804  16.0804
    17.2687  17.2687  17.5465  17.5465  33.6009

     occupation numbers 
     1.0000   1.0000   1.0000   1.0000   1.0000   1.0000   1.0000   1.0000
     1.0000   1.0000   1.0000   1.0000   1.0000   1.0000   1.0000   1.0000
     1.0000   1.0000   1.0000   1.0000   0.0000

          k = 0.0833 0.2406 0.0000 (  2864 PWs)   bands (ev):

   -77.6309 -77.5888 -41.0036 -40.8470 -40.8195 -40.7808 -40.7554 -40.7360
    11.1362  14.0976  15.1566  15.1783  15.8946  16.0277  16.4240  16.4347
    16.6369  16.9088  17.7011  22.0187  24.9780

     occupation numbers 
     1.0000   1.0000   1.0000   1.0000   1.0000   1.0000   1.0000   1.0000
     1.0000   1.0000   1.0000   1.0000   1.0000   1.0000   1.0000   1.0000
     1.0000   1.0000   1.0000   0.0000   0.0000

          k = 0.0833 0.2406 0.1024 (  2869 PWs)   bands (ev):

   -77.6281 -77.5916 -40.9922 -40.8408 -40.8287 -40.7856 -40.7558 -40.7395
    11.3685  14.1274  14.9718  15.2057  15.7774  16.0413  16.2548  16.5592
    16.8226  16.8877  17.6643  20.5873  26.9864

     occupation numbers 
     1.0000   1.0000   1.0000   1.0000   1.0000   1.0000   1.0000   1.0000
     1.0000   1.0000   1.0000   1.0000   1.0000   1.0000   1.0000   1.0000
     1.0000   1.0000   1.0000   0.0000   0.0000

          k = 0.0833 0.2406 0.2048 (  2869 PWs)   bands (ev):

   -77.6204 -77.5994 -40.9603 -40.8670 -40.8188 -40.7848 -40.7629 -40.7492
    12.0254  13.8519  14.7863  15.3101  15.5143  15.9328  16.2133  16.5354
    17.0597  17.1674  17.5465  18.9216  30.3763

     occupation numbers 
     1.0000   1.0000   1.0000   1.0000   1.0000   1.0000   1.0000   1.0000
     1.0000   1.0000   1.0000   1.0000   1.0000   1.0000   1.0000   1.0000
     1.0000   1.0000   1.0000   0.0000   0.0000

          k = 0.0833 0.2406-0.3073 (  2884 PWs)   bands (ev):

   -77.6099 -77.6099 -40.9150 -40.9150 -40.7955 -40.7955 -40.7613 -40.7613
    12.9624  12.9624  15.0516  15.0516  15.6547  15.6547  16.3569  16.3569
    17.3135  17.3135  17.8409  17.8409  34.0007

     occupation numbers 
     1.0000   1.0000   1.0000   1.0000   1.0000   1.0000   1.0000   1.0000
     1.0000   1.0000   1.0000   1.0000   1.0000   1.0000   1.0000   1.0000
     1.0000   1.0000   1.0000   1.0000   0.0000

          k = 0.0833 0.3368 0.0000 (  2868 PWs)   bands (ev):

   -77.6183 -77.5844 -40.9717 -40.9040 -40.8688 -40.8057 -40.7721 -40.7490
    12.2793  14.2206  14.6150  15.0900  15.8409  15.8983  16.2367  16.8297
    17.1351  17.4695  17.7362  23.8396  25.3374

     occupation numbers 
     1.0000   1.0000   1.0000   1.0000   1.0000   1.0000   1.0000   1.0000
     1.0000   1.0000   1.0000   1.0000   1.0000   1.0000   1.0000   1.0000
     1.0000   1.0000   1.0000   0.0000   0.0000

          k = 0.0833 0.3368 0.1024 (  2869 PWs)   bands (ev):

   -77.6161 -77.5867 -40.9740 -40.8928 -40.8745 -40.8059 -40.7719 -40.7523
    12.4420  14.2812  14.5254  15.1359  15.6917  16.0660  16.2117  16.8572
    17.2206  17.3317  17.7483  21.8422  27.7328

     occupation numbers 
     1.0000   1.0000   1.0000   1.0000   1.0000   1.0000   1.0000   1.0000
     1.0000   1.0000   1.0000   1.0000   1.0000   1.0000   1.0000   1.0000
     1.0000   1.0000   1.0000   0.0000   0.0000

          k = 0.0833 0.3368 0.2048 (  2879 PWs)   bands (ev):

   -77.6099 -77.5929 -40.9684 -40.9152 -40.8464 -40.8015 -40.7782 -40.7619
    12.8823  14.0344  14.6367  15.2013  15.6100  16.0815  16.2783  16.8563
    17.2824  17.4442  17.7193  19.7728  30.0966

     occupation numbers 
     1.0000   1.0000   1.0000   1.0000   1.0000   1.0000   1.0000   1.0000
     1.0000   1.0000   1.0000   1.0000   1.0000   1.0000   1.0000   1.0000
     1.0000   1.0000   1.0000   0.0000   0.0000

          k = 0.0833 0.3368-0.3073 (  2884 PWs)   bands (ev):

   -77.6014 -77.6014 -40.9471 -40.9471 -40.8132 -40.8132 -40.7756 -40.7756
    13.4702  13.4702  14.9701  14.9701  15.8290  15.8290  16.5450  16.5450
    17.5149  17.5149  18.2974  18.2974  31.2840

     occupation numbers 
     1.0000   1.0000   1.0000   1.0000   1.0000   1.0000   1.0000   1.0000
     1.0000   1.0000   1.0000   1.0000   1.0000   1.0000   1.0000   1.0000
     1.0000   1.0000   1.0000   1.0000   0.0000

          k = 0.0833 0.4330 0.0000 (  2882 PWs)   bands (ev):

   -77.6064 -77.5816 -40.9544 -40.9380 -40.9118 -40.8255 -40.7926 -40.7601
    13.2899  14.0481  14.2353  15.3157  15.7229  16.0372  16.0885  17.3412
    17.5594  17.7575  18.2595  24.7190  25.8201

     occupation numbers 
     1.0000   1.0000   1.0000   1.0000   1.0000   1.0000   1.0000   1.0000
     1.0000   1.0000   1.0000   1.0000   1.0000   1.0000   1.0000   1.0000
     1.0000   1.0000   1.0000   0.0000   0.0000

          k = 0.0833 0.4330 0.1024 (  2880 PWs)   bands (ev):

   -77.6047 -77.5833 -40.9792 -40.9307 -40.8965 -40.8227 -40.7900 -40.7634
    13.2841  14.0672  14.3856  15.0724  15.7996  16.1181  16.3800  17.2909
    17.5819  17.6180  18.2585  22.9241  26.4858

     occupation numbers 
     1.0000   1.0000   1.0000   1.0000   1.0000   1.0000   1.0000   1.0000
     1.0000   1.0000   1.0000   1.0000   1.0000   1.0000   1.0000   1.0000
     1.0000   1.0000   1.0000   0.0000   0.0000

          k = 0.0833 0.4330 0.2048 (  2880 PWs)   bands (ev):

   -77.6002 -77.5878 -40.9921 -40.9587 -40.8539 -40.8130 -40.7930 -40.7717
    13.3669  13.9357  14.5709  15.0346  15.9057  16.3275  16.7664  17.0390
    17.4607  17.7693  18.3236  20.7955  27.1997

     occupation numbers 
     1.0000   1.0000   1.0000   1.0000   1.0000   1.0000   1.0000   1.0000
     1.0000   1.0000   1.0000   1.0000   1.0000   1.0000   1.0000   1.0000
     1.0000   1.0000   1.0000   0.0000   0.0000

          k = 0.0833 0.4330-0.3073 (  2878 PWs)   bands (ev):

   -77.5940 -77.5940 -40.9837 -40.9837 -40.8213 -40.8213 -40.7862 -40.7862
    13.6083  13.6083  14.8523  14.8523  16.3374  16.3374  16.7195  16.7195
    17.7197  17.7197  19.1442  19.1442  28.2322

     occupation numbers 
     1.0000   1.0000   1.0000   1.0000   1.0000   1.0000   1.0000   1.0000
     1.0000   1.0000   1.0000   1.0000   1.0000   1.0000   1.0000   1.0000
     1.0000   1.0000   0.0000   0.0000   0.0000

          k = 0.0833 0.5292 0.0000 (  2894 PWs)   bands (ev):

   -77.5984 -77.5811 -40.9837 -40.9367 -40.9124 -40.8365 -40.8106 -40.7666
    13.7440  13.8858  14.0459  15.6767  15.6817  15.8999  16.2428  17.7103
    17.7666  17.7846  19.5284  22.4552  27.7134

     occupation numbers 
     1.0000   1.0000   1.0000   1.0000   1.0000   1.0000   1.0000   1.0000
     1.0000   1.0000   1.0000   1.0000   1.0000   1.0000   1.0000   1.0000
     1.0000   1.0000   0.0000   0.0000   0.0000

          k = 0.0833 0.5292 0.1024 (  2881 PWs)   bands (ev):

   -77.5973 -77.5822 -40.9983 -40.9530 -40.8889 -40.8307 -40.8058 -40.7699
    13.5321  13.8986  14.4697  15.0156  15.7300  16.3030  16.6447  17.5542
    17.7310  17.8138  19.4638  22.1949  26.4644

     occupation numbers 
     1.0000   1.0000   1.0000   1.0000   1.0000   1.0000   1.0000   1.0000
     1.0000   1.0000   1.0000   1.0000   1.0000   1.0000   1.0000   1.0000
     1.0000   1.0000   0.0000   0.0000   0.0000

          k = 0.0833 0.5292 0.2048 (  2877 PWs)   bands (ev):

   -77.5941 -77.5854 -41.0121 -40.9836 -40.8528 -40.8147 -40.8057 -40.7773
    13.4435  13.8709  14.5990  14.8977  15.9001  16.6271  17.0265  17.2873
    17.6914  17.8803  19.5091  21.3455  25.7504

     occupation numbers 
     1.0000   1.0000   1.0000   1.0000   1.0000   1.0000   1.0000   1.0000
     1.0000   1.0000   1.0000   1.0000   1.0000   1.0000   1.0000   1.0000
     1.0000   1.0000   0.0000   0.0000   0.0000

          k = 0.0833 0.5292-0.3073 (  2886 PWs)   bands (ev):

   -77.5897 -77.5897 -41.0070 -41.0070 -40.8252 -40.8252 -40.7909 -40.7909
    13.5978  13.5978  14.7682  14.7682  16.4360  16.4360  17.1483  17.1483
    17.7601  17.7601  20.2354  20.2354  26.0265

     occupation numbers 
     1.0000   1.0000   1.0000   1.0000   1.0000   1.0000   1.0000   1.0000
     1.0000   1.0000   1.0000   1.0000   1.0000   1.0000   1.0000   1.0000
     1.0000   1.0000   0.0000   0.0000   0.0000

          k = 0.1667 0.2887 0.0000 (  2876 PWs)   bands (ev):

   -77.6201 -77.5849 -40.9764 -40.8811 -40.8722 -40.7983 -40.7695 -40.7568
    12.1338  14.3985  14.7273  14.8673  15.7679  15.9016  16.3342  16.5885
    17.1223  17.4924  17.6970  23.5831  25.3723

     occupation numbers 
     1.0000   1.0000   1.0000   1.0000   1.0000   1.0000   1.0000   1.0000
     1.0000   1.0000   1.0000   1.0000   1.0000   1.0000   1.0000   1.0000
     1.0000   1.0000   1.0000   0.0000   0.0000

          k = 0.1667 0.2887 0.1024 (  2870 PWs)   bands (ev):

   -77.6177 -77.5873 -40.9744 -40.8798 -40.8676 -40.8067 -40.7651 -40.7605
    12.3180  14.4913  14.5862  14.9192  15.7320  15.9114  16.2204  16.6783
    17.2357  17.3215  17.7617  21.7047  27.7188

     occupation numbers 
     1.0000   1.0000   1.0000   1.0000   1.0000   1.0000   1.0000   1.0000
     1.0000   1.0000   1.0000   1.0000   1.0000   1.0000   1.0000   1.0000
     1.0000   1.0000   1.0000   0.0000   0.0000

          k = 0.1667 0.2887 0.2048 (  2874 PWs)   bands (ev):

   -77.6113 -77.5937 -40.9630 -40.9054 -40.8381 -40.8106 -40.7697 -40.7678
    12.8226  14.1527  14.7443  15.0684  15.5528  15.7790  16.2218  16.7947
    17.2883  17.4297  17.7945  19.6963  31.0620

     occupation numbers 
     1.0000   1.0000   1.0000   1.0000   1.0000   1.0000   1.0000   1.0000
     1.0000   1.0000   1.0000   1.0000   1.0000   1.0000   1.0000   1.0000
     1.0000   1.0000   1.0000   0.0000   0.0000

          k = 0.1667 0.2887-0.3073 (  2880 PWs)   bands (ev):

   -77.6025 -77.6025 -40.9381 -40.9381 -40.8138 -40.8138 -40.7755 -40.7755
    13.5036  13.5036  15.0588  15.0588  15.5031  15.5031  16.4946  16.4946
    17.5635  17.5635  18.2780  18.2780  33.0077

     occupation numbers 
     1.0000   1.0000   1.0000   1.0000   1.0000   1.0000   1.0000   1.0000
     1.0000   1.0000   1.0000   1.0000   1.0000   1.0000   1.0000   1.0000
     1.0000   1.0000   1.0000   1.0000   0.0000

          k = 0.1667 0.3849 0.0000 (  2875 PWs)   bands (ev):

   -77.6084 -77.5819 -40.9440 -40.9258 -40.9052 -40.8252 -40.7887 -40.7768
    13.2294  14.3762  14.3840  14.8431  15.6110  16.0414  16.1403  16.8989
    17.5568  17.6898  18.2906  25.4272  25.7830

     occupation numbers 
     1.0000   1.0000   1.0000   1.0000   1.0000   1.0000   1.0000   1.0000
     1.0000   1.0000   1.0000   1.0000   1.0000   1.0000   1.0000   1.0000
     1.0000   1.0000   1.0000   0.0000   0.0000

          k = 0.1667 0.3849 0.1024 (  2879 PWs)   bands (ev):

   -77.6066 -77.5837 -40.9643 -40.9225 -40.8853 -40.8321 -40.7856 -40.7759
    13.3069  14.3094  14.4805  14.9220  15.6594  16.0297  16.0975  16.9355
    17.4840  17.6422  18.3723  22.9942  27.9239

     occupation numbers 
     1.0000   1.0000   1.0000   1.0000   1.0000   1.0000   1.0000   1.0000
     1.0000   1.0000   1.0000   1.0000   1.0000   1.0000   1.0000   1.0000
     1.0000   1.0000   1.0000   0.0000   0.0000

          k = 0.1667 0.3849 0.2048 (  2872 PWs)   bands (ev):

   -77.6018 -77.5885 -40.9750 -40.9434 -40.8503 -40.8314 -40.7911 -40.7744
    13.5179  14.1096  14.7205  15.1450  15.5787  15.8722  16.2352  16.9111
    17.3941  17.7875  18.5507  20.8102  28.9060

     occupation numbers 
     1.0000   1.0000   1.0000   1.0000   1.0000   1.0000   1.0000   1.0000
     1.0000   1.0000   1.0000   1.0000   1.0000   1.0000   1.0000   1.0000
     1.0000   1.0000   0.0000   0.0000   0.0000

          k = 0.1667 0.3849-0.3073 (  2870 PWs)   bands (ev):

   -77.5951 -77.5951 -40.9661 -40.9661 -40.8316 -40.8316 -40.7851 -40.7851
    13.8114  13.8114  15.0522  15.0522  15.6611  15.6611  16.5058  16.5058
    17.7701  17.7701  19.2346  19.2346  30.0451

     occupation numbers 
     1.0000   1.0000   1.0000   1.0000   1.0000   1.0000   1.0000   1.0000
     1.0000   1.0000   1.0000   1.0000   1.0000   1.0000   1.0000   1.0000
     1.0000   1.0000   0.0000   0.0000   0.0000

          k = 0.1667 0.4811 0.0000 (  2888 PWs)   bands (ev):

   -77.5985 -77.5810 -40.9614 -40.9219 -40.9127 -40.8503 -40.8103 -40.7905
    13.9246  14.1605  14.1848  15.1495  15.5702  15.9267  16.2403  17.3116
    17.6838  17.7680  19.4601  24.1112  27.4280

     occupation numbers 
     1.0000   1.0000   1.0000   1.0000   1.0000   1.0000   1.0000   1.0000
     1.0000   1.0000   1.0000   1.0000   1.0000   1.0000   1.0000   1.0000
     1.0000   1.0000   0.0000   0.0000   0.0000

          k = 0.1667 0.4811 0.1024 (  2883 PWs)   bands (ev):

   -77.5973 -77.5822 -40.9765 -40.9409 -40.8877 -40.8470 -40.8079 -40.7870
    13.7689  14.2427  14.4219  14.9631  15.6203  16.0654  16.3161  17.2971
    17.4962  17.8273  19.5408  23.5483  26.2795

     occupation numbers 
     1.0000   1.0000   1.0000   1.0000   1.0000   1.0000   1.0000   1.0000
     1.0000   1.0000   1.0000   1.0000   1.0000   1.0000   1.0000   1.0000
     1.0000   1.0000   0.0000   0.0000   0.0000

          k = 0.1667 0.4811 0.2048 (  2877 PWs)   bands (ev):

   -77.5941 -77.5854 -40.9917 -40.9677 -40.8657 -40.8341 -40.8068 -40.7807
    13.7278  14.1598  14.6173  15.1468  15.5181  16.1941  16.5390  16.9939
    17.4828  17.8999  19.8477  22.0326  26.3716

     occupation numbers 
     1.0000   1.0000   1.0000   1.0000   1.0000   1.0000   1.0000   1.0000
     1.0000   1.0000   1.0000   1.0000   1.0000   1.0000   1.0000   1.0000
     1.0000   1.0000   0.0000   0.0000   0.0000

          k = 0.1667 0.4811-0.3073 (  2872 PWs)   bands (ev):

   -77.5897 -77.5897 -40.9885 -40.9885 -40.8464 -40.8464 -40.7885 -40.7885
    13.8811  13.8811  14.9508  14.9508  15.9209  15.9209  16.6916  16.6916
    17.7746  17.7746  20.6438  20.6438  27.2442

     occupation numbers 
     1.0000   1.0000   1.0000   1.0000   1.0000   1.0000   1.0000   1.0000
     1.0000   1.0000   1.0000   1.0000   1.0000   1.0000   1.0000   1.0000
     1.0000   1.0000   0.0000   0.0000   0.0000

          k = 0.1667 0.5774 0.0000 (  2880 PWs)   bands (ev):

   -77.5941 -77.5814 -40.9743 -40.9270 -40.8969 -40.8607 -40.8226 -40.7954
    14.0878  14.0884  14.0970  15.3687  15.5939  15.8103  16.3255  17.5923
    17.6814  17.7400  20.7218  22.2754  28.6984

     occupation numbers 
     1.0000   1.0000   1.0000   1.0000   1.0000   1.0000   1.0000   1.0000
     1.0000   1.0000   1.0000   1.0000   1.0000   1.0000   1.0000   1.0000
     1.0000   1.0000   0.0000   0.0000   0.0000

          k = 0.1667 0.5774 0.1024 (  2886 PWs)   bands (ev):

   -77.5933 -77.5823 -40.9860 -40.9443 -40.8894 -40.8439 -40.8215 -40.7916
    13.7933  14.1598  14.5855  14.9428  15.5429  16.1866  16.4066  17.4687
    17.5889  17.7891  20.8180  22.2259  27.5658

     occupation numbers 
     1.0000   1.0000   1.0000   1.0000   1.0000   1.0000   1.0000   1.0000
     1.0000   1.0000   1.0000   1.0000   1.0000   1.0000   1.0000   1.0000
     1.0000   1.0000   0.0000   0.0000   0.0000

          k = 0.1667 0.5774 0.2048 (  2889 PWs)   bands (ev):

   -77.5909 -77.5846 -40.9998 -40.9753 -40.8729 -40.8324 -40.8122 -40.7837
    13.7258  14.1728  14.6537  15.1025  15.4363  16.3912  16.6613  17.0629
    17.6045  17.8265  21.1182  22.0279  26.2958

     occupation numbers 
     1.0000   1.0000   1.0000   1.0000   1.0000   1.0000   1.0000   1.0000
     1.0000   1.0000   1.0000   1.0000   1.0000   1.0000   1.0000   1.0000
     1.0000   1.0000   0.0000   0.0000   0.0000

          k = 0.1667 0.5774-0.3073 (  2882 PWs)   bands (ev):

   -77.5878 -77.5878 -40.9969 -40.9969 -40.8522 -40.8522 -40.7891 -40.7891
    13.8847  13.8847  14.9110  14.9110  15.9585  15.9585  16.8954  16.8954
    17.7135  17.7135  21.6037  21.6037  25.8162

     occupation numbers 
     1.0000   1.0000   1.0000   1.0000   1.0000   1.0000   1.0000   1.0000
     1.0000   1.0000   1.0000   1.0000   1.0000   1.0000   1.0000   1.0000
     1.0000   1.0000   0.0000   0.0000   0.0000

          k = 0.2500 0.4330 0.0000 (  2874 PWs)   bands (ev):

   -77.5985 -77.5810 -40.9419 -40.9222 -40.9129 -40.8519 -40.8101 -40.8083
    14.0570  14.2268  14.5814  14.6232  15.4993  15.9477  16.2491  17.0770
    17.6412  17.7715  19.4702  25.8497  26.6440

     occupation numbers 
     1.0000   1.0000   1.0000   1.0000   1.0000   1.0000   1.0000   1.0000
     1.0000   1.0000   1.0000   1.0000   1.0000   1.0000   1.0000   1.0000
     1.0000   1.0000   0.0000   0.0000   0.0000

          k = 0.2500 0.4330 0.1024 (  2883 PWs)   bands (ev):

   -77.5973 -77.5822 -40.9554 -40.9462 -40.8744 -40.8653 -40.8109 -40.7950
    14.0597  14.1793  14.6337  14.7569  15.6489  15.8046  16.2460  17.1150
    17.4425  17.8342  19.5916  24.3070  26.9220

     occupation numbers 
     1.0000   1.0000   1.0000   1.0000   1.0000   1.0000   1.0000   1.0000
     1.0000   1.0000   1.0000   1.0000   1.0000   1.0000   1.0000   1.0000
     1.0000   1.0000   0.0000   0.0000   0.0000

          k = 0.2500 0.4330 0.2048 (  2887 PWs)   bands (ev):

   -77.5941 -77.5854 -40.9764 -40.9617 -40.8698 -40.8503 -40.8066 -40.7821
    14.0575  14.1244  14.7944  15.1313  15.4863  15.7596  16.2837  16.9056
    17.4508  17.9074  19.9613  22.3019  27.6918

     occupation numbers 
     1.0000   1.0000   1.0000   1.0000   1.0000   1.0000   1.0000   1.0000
     1.0000   1.0000   1.0000   1.0000   1.0000   1.0000   1.0000   1.0000
     1.0000   1.0000   0.0000   0.0000   0.0000

          k = 0.2500 0.4330-0.3073 (  2884 PWs)   bands (ev):

   -77.5897 -77.5897 -40.9770 -40.9770 -40.8587 -40.8587 -40.7878 -40.7878
    14.0799  14.0799  15.1051  15.1051  15.5502  15.5502  16.4895  16.4895
    17.7938  17.7938  20.7969  20.7969  28.7026

     occupation numbers 
     1.0000   1.0000   1.0000   1.0000   1.0000   1.0000   1.0000   1.0000
     1.0000   1.0000   1.0000   1.0000   1.0000   1.0000   1.0000   1.0000
     1.0000   1.0000   0.0000   0.0000   0.0000

          k = 0.2500 0.5292 0.0000 (  2891 PWs)   bands (ev):

   -77.5911 -77.5821 -40.9541 -40.9138 -40.8852 -40.8805 -40.8323 -40.8285
    14.1586  14.3486  14.4452  14.9358  15.5166  15.7462  16.4146  17.3543
    17.6126  17.7070  21.1220  23.6713  25.9945

     occupation numbers 
     1.0000   1.0000   1.0000   1.0000   1.0000   1.0000   1.0000   1.0000
     1.0000   1.0000   1.0000   1.0000   1.0000   1.0000   1.0000   1.0000
     1.0000   1.0000   0.0000   0.0000   0.0000

          k = 0.2500 0.5292 0.1024 (  2893 PWs)   bands (ev):

   -77.5905 -77.5827 -40.9610 -40.9364 -40.8994 -40.8540 -40.8340 -40.8094
    14.1020  14.4716  14.5649  14.8306  15.5435  15.7529  16.4239  17.3581
    17.4217  17.7507  21.3053  23.6881  26.0253

     occupation numbers 
     1.0000   1.0000   1.0000   1.0000   1.0000   1.0000   1.0000   1.0000
     1.0000   1.0000   1.0000   1.0000   1.0000   1.0000   1.0000   1.0000
     1.0000   1.0000   0.0000   0.0000   0.0000

          k = 0.2500 0.5292 0.2048 (  2885 PWs)   bands (ev):

   -77.5889 -77.5844 -40.9768 -40.9630 -40.8977 -40.8597 -40.8076 -40.7892
    14.1166  14.4639  14.7208  15.0128  15.4099  15.7768  16.4741  16.9297
    17.5224  17.7921  21.7942  23.3900  25.9353

     occupation numbers 
     1.0000   1.0000   1.0000   1.0000   1.0000   1.0000   1.0000   1.0000
     1.0000   1.0000   1.0000   1.0000   1.0000   1.0000   1.0000   1.0000
     1.0000   1.0000   0.0000   0.0000   0.0000

          k = 0.2500 0.5292-0.3073 (  2888 PWs)   bands (ev):

   -77.5866 -77.5866 -40.9794 -40.9794 -40.8798 -40.8798 -40.7877 -40.7877
    14.2503  14.2503  15.0042  15.0042  15.5558  15.5558  16.6013  16.6013
    17.7056  17.7056  22.5541  22.5541  26.4717

     occupation numbers 
     1.0000   1.0000   1.0000   1.0000   1.0000   1.0000   1.0000   1.0000
     1.0000   1.0000   1.0000   1.0000   1.0000   1.0000   1.0000   1.0000
     1.0000   1.0000   0.0000   0.0000   0.0000

          k = 0.3333 0.5774 0.0000 (  2874 PWs)   bands (ev):

   -77.5855 -77.5855 -40.9446 -40.8996 -40.8996 -40.8577 -40.8577 -40.8525
    14.1699  14.5439  14.5439  14.8186  15.5832  15.5832  16.5124  17.5000
    17.5000  17.5842  22.8628  23.6698  23.6698

     occupation numbers 
     1.0000   1.0000   1.0000   1.0000   1.0000   1.0000   1.0000   1.0000
     1.0000   1.0000   1.0000   1.0000   1.0000   1.0000   1.0000   1.0000
     1.0000   1.0000   0.0000   0.0000   0.0000

          k = 0.3333 0.5774 0.1024 (  2883 PWs)   bands (ev):

   -77.5855 -77.5855 -40.9384 -40.9277 -40.9277 -40.8587 -40.8295 -40.8295
    14.2624  14.5628  14.5628  14.8364  15.5605  15.5605  16.4861  17.3592
    17.5416  17.5416  23.2535  23.7428  23.7428

     occupation numbers 
     1.0000   1.0000   1.0000   1.0000   1.0000   1.0000   1.0000   1.0000
     1.0000   1.0000   1.0000   1.0000   1.0000   1.0000   1.0000   1.0000
     1.0000   1.0000   0.0000   0.0000   0.0000

          k = 0.3333 0.5774 0.2048 (  2880 PWs)   bands (ev):

   -77.5855 -77.5855 -40.9582 -40.9582 -40.9217 -40.8756 -40.7988 -40.7988
    14.4987  14.5983  14.5983  14.8481  15.5218  15.5218  16.4523  16.8970
    17.6212  17.6212  23.9243  23.9243  24.2585

     occupation numbers 
     1.0000   1.0000   1.0000   1.0000   1.0000   1.0000   1.0000   1.0000
     1.0000   1.0000   1.0000   1.0000   1.0000   1.0000   1.0000   1.0000
     1.0000   1.0000   0.0000   0.0000   0.0000

          k = 0.3333 0.5774-0.3073 (  2910 PWs)   bands (ev):

   -77.5855 -77.5855 -40.9697 -40.9697 -40.8987 -40.8987 -40.7872 -40.7872
    14.6148  14.6148  14.7446  14.7446  15.5059  15.5059  16.5479  16.5479
    17.6594  17.6594  24.0418  24.0418  25.6475

     occupation numbers 
     1.0000   1.0000   1.0000   1.0000   1.0000   1.0000   1.0000   1.0000
     1.0000   1.0000   1.0000   1.0000   1.0000   1.0000   1.0000   1.0000
     1.0000   1.0000   0.0000   0.0000   0.0000

 ------ SPIN DOWN ----------


          k = 0.0000 0.0000 0.0000 (  2875 PWs)   bands (ev):

   -75.5051 -75.4481 -38.9677 -38.6729 -38.6729 -38.6266 -38.6248 -38.6248
     9.5438  14.2968  17.5090  17.5830  17.5830  17.9404  17.9404  18.1320
    18.3939  18.3939  19.5865  19.5865  25.6891

     occupation numbers 
     1.0000   1.0000   1.0000   1.0000   1.0000   1.0000   1.0000   1.0000
     1.0000   1.0000   1.0000   1.0000   1.0000   1.0000   1.0000   1.0000
     1.0000   1.0000   0.0000   0.0000   0.0000

          k = 0.0000 0.0000 0.1024 (  2863 PWs)   bands (ev):

[...]
    19.7409  19.7882  20.9102  23.3968  28.2317

     occupation numbers 
     1.0000   1.0000   1.0000   1.0000   1.0000   1.0000   1.0000   1.0000
     1.0000   1.0000   1.0000   1.0000   1.0000   1.0000   1.0000   0.0000
     0.0000   0.0000   0.0000   0.0000   0.0000

          k = 0.0833 0.5292 0.1024 (  2881 PWs)   bands (ev):

   -75.4480 -75.4318 -38.9320 -38.8835 -38.7970 -38.7501 -38.7057 -38.6833
    14.4948  15.1139  15.6545  16.1863  17.4188  17.8963  17.9396  19.5250
    19.6812  19.7790  20.7758  23.0602  27.1992

     occupation numbers 
     1.0000   1.0000   1.0000   1.0000   1.0000   1.0000   1.0000   1.0000
     1.0000   1.0000   1.0000   1.0000   1.0000   1.0000   1.0000   0.0000
     0.0000   0.0000   0.0000   0.0000   0.0000

          k = 0.0833 0.5292 0.2048 (  2877 PWs)   bands (ev):

   -75.4446 -75.4352 -38.9452 -38.9149 -38.7628 -38.7283 -38.7136 -38.6865
    14.4772  14.9517  15.9529  16.2588  17.4608  18.2137  18.4037  19.0713
    19.6338  19.8623  20.5648  22.1313  26.6697

     occupation numbers 
     1.0000   1.0000   1.0000   1.0000   1.0000   1.0000   1.0000   1.0000
     1.0000   1.0000   1.0000   1.0000   1.0000   1.0000   1.0000   0.0000
     0.0000   0.0000   0.0000   0.0000   0.0000

          k = 0.0833 0.5292-0.3073 (  2886 PWs)   bands (ev):

   -75.4399 -75.4399 -38.9395 -38.9395 -38.7359 -38.7359 -38.7002 -38.7002
    14.6538  14.6538  16.2102  16.2102  17.9540  17.9540  18.7211  18.7211
    19.7168  19.7168  21.0894  21.0894  26.9263

     occupation numbers 
     1.0000   1.0000   1.0000   1.0000   1.0000   1.0000   1.0000   1.0000
     1.0000   1.0000   1.0000   1.0000   1.0000   1.0000   0.0000   0.0000
     0.0000   0.0000   0.0000   0.0000   0.0000

          k = 0.1667 0.2887 0.0000 (  2876 PWs)   bands (ev):

   -75.4727 -75.4347 -38.8890 -38.8064 -38.7974 -38.7159 -38.6709 -38.6629
    12.2091  15.6161  15.9252  16.3018  17.4734  17.5123  18.0417  18.3895
    18.9646  19.3164  19.7076  24.3812  26.1452

     occupation numbers 
     1.0000   1.0000   1.0000   1.0000   1.0000   1.0000   1.0000   1.0000
     1.0000   1.0000   1.0000   1.0000   1.0000   1.0000   1.0000   1.0000
     0.0000   0.0000   0.0000   0.0000   0.0000

          k = 0.1667 0.2887 0.1024 (  2870 PWs)   bands (ev):

   -75.4701 -75.4373 -38.8898 -38.8042 -38.7889 -38.7219 -38.6749 -38.6629
    12.4200  15.5264  15.8434  16.3671  17.3772  17.5385  17.9365  18.4862
    19.0902  19.1942  19.7158  22.7451  28.3266

     occupation numbers 
     1.0000   1.0000   1.0000   1.0000   1.0000   1.0000   1.0000   1.0000
     1.0000   1.0000   1.0000   1.0000   1.0000   1.0000   1.0000   0.0398
     0.0000   0.0000   0.0000   0.0000   0.0000

          k = 0.1667 0.2887 0.2048 (  2874 PWs)   bands (ev):

   -75.4632 -75.4442 -38.8819 -38.8277 -38.7523 -38.7245 -38.6847 -38.6717
    13.0186  14.8335  16.0953  16.5335  17.1116  17.3776  17.9912  18.5794
    19.1871  19.3122  19.6691  21.0528  31.5527

     occupation numbers 
     1.0000   1.0000   1.0000   1.0000   1.0000   1.0000   1.0000   1.0000
     1.0000   1.0000   1.0000   1.0000   1.0000   1.0000   1.0000   0.0000
     0.0000   0.0000   0.0000   0.0000   0.0000

          k = 0.1667 0.2887-0.3073 (  2880 PWs)   bands (ev):

   -75.4537 -75.4537 -38.8589 -38.8589 -38.7249 -38.7249 -38.6877 -38.6877
    13.8929  13.8929  16.4680  16.4680  17.0691  17.0691  18.2917  18.2917
    19.4989  19.4989  19.8945  19.8945  33.4356

     occupation numbers 
     1.0000   1.0000   1.0000   1.0000   1.0000   1.0000   1.0000   1.0000
     1.0000   1.0000   1.0000   1.0000   1.0000   1.0000   1.0000   1.0000
     0.0000   0.0000   0.0000   0.0000   0.0000

          k = 0.1667 0.3849 0.0000 (  2875 PWs)   bands (ev):

   -75.4600 -75.4315 -38.8557 -38.8534 -38.8330 -38.7452 -38.6927 -38.6837
    13.4615  15.6360  15.6918  16.1135  17.2709  17.6447  17.8057  18.7323
    19.4641  19.6991  20.0350  26.1367  26.4106

     occupation numbers 
     1.0000   1.0000   1.0000   1.0000   1.0000   1.0000   1.0000   1.0000
     1.0000   1.0000   1.0000   1.0000   1.0000   1.0000   1.0000   0.0000
     0.0000   0.0000   0.0000   0.0000   0.0000

          k = 0.1667 0.3849 0.1024 (  2879 PWs)   bands (ev):

   -75.4581 -75.4334 -38.8860 -38.8501 -38.8018 -38.7500 -38.6983 -38.6776
    13.6094  15.4969  15.7931  16.2149  17.2392  17.6194  17.7597  18.7767
    19.4386  19.5646  20.1385  23.8325  28.5477

     occupation numbers 
     1.0000   1.0000   1.0000   1.0000   1.0000   1.0000   1.0000   1.0000
     1.0000   1.0000   1.0000   1.0000   1.0000   1.0000   1.0000   0.0000
     0.0000   0.0000   0.0000   0.0000   0.0000

          k = 0.1667 0.3849 0.2048 (  2872 PWs)   bands (ev):

   -75.4529 -75.4386 -38.9000 -38.8705 -38.7633 -38.7463 -38.7060 -38.6776
    14.0147  15.1137  16.0711  16.4249  17.0971  17.3450  17.9488  18.7543
    19.2928  19.7453  20.2187  21.8669  29.5151

     occupation numbers 
     1.0000   1.0000   1.0000   1.0000   1.0000   1.0000   1.0000   1.0000
     1.0000   1.0000   1.0000   1.0000   1.0000   1.0000   1.0000   0.0000
     0.0000   0.0000   0.0000   0.0000   0.0000

          k = 0.1667 0.3849-0.3073 (  2870 PWs)   bands (ev):

   -75.4457 -75.4457 -38.8925 -38.8925 -38.7458 -38.7458 -38.6935 -38.6935
    14.5685  14.5685  16.4074  16.4074  17.0728  17.0728  18.3114  18.3114
    19.7395  19.7395  20.5631  20.5631  30.6119

     occupation numbers 
     1.0000   1.0000   1.0000   1.0000   1.0000   1.0000   1.0000   1.0000
     1.0000   1.0000   1.0000   1.0000   1.0000   1.0000   1.0000   1.0000
     0.0000   0.0000   0.0000   0.0000   0.0000

          k = 0.1667 0.4811 0.0000 (  2888 PWs)   bands (ev):

   -75.4493 -75.4305 -38.8947 -38.8512 -38.8191 -38.7726 -38.7075 -38.7072
    14.5682  15.4688  15.4717  16.1612  17.2113  17.5401  17.8785  19.1884
    19.6919  19.7170  20.9378  24.8676  28.0292

     occupation numbers 
     1.0000   1.0000   1.0000   1.0000   1.0000   1.0000   1.0000   1.0000
     1.0000   1.0000   1.0000   1.0000   1.0000   1.0000   1.0000   0.0000
     0.0000   0.0000   0.0000   0.0000   0.0000

          k = 0.1667 0.4811 0.1024 (  2883 PWs)   bands (ev):

   -75.4481 -75.4318 -38.9073 -38.8691 -38.8000 -38.7646 -38.7184 -38.6928
    14.5873  15.4168  15.6374  16.1977  17.2220  17.5151  17.9493  19.1824
    19.4605  19.7906  20.9871  24.2490  27.0535

     occupation numbers 
     1.0000   1.0000   1.0000   1.0000   1.0000   1.0000   1.0000   1.0000
     1.0000   1.0000   1.0000   1.0000   1.0000   1.0000   1.0000   0.0000
     0.0000   0.0000   0.0000   0.0000   0.0000

          k = 0.1667 0.4811 0.2048 (  2877 PWs)   bands (ev):

   -75.4446 -75.4352 -38.9218 -38.8970 -38.7828 -38.7475 -38.7185 -38.6844
    14.6937  15.2141  15.9635  16.4628  17.0529  17.4895  18.1686  18.8719
    19.3988  19.8858  21.1345  22.8167  27.1886

     occupation numbers 
     1.0000   1.0000   1.0000   1.0000   1.0000   1.0000   1.0000   1.0000
     1.0000   1.0000   1.0000   1.0000   1.0000   1.0000   1.0000   0.0000
     0.0000   0.0000   0.0000   0.0000   0.0000

          k = 0.1667 0.4811-0.3073 (  2872 PWs)   bands (ev):

   -75.4399 -75.4399 -38.9184 -38.9184 -38.7634 -38.7634 -38.6942 -38.6942
    14.9209  14.9209  16.3658  16.3658  17.2296  17.2296  18.4447  18.4447
    19.7314  19.7314  21.6545  21.6545  27.9901

     occupation numbers 
     1.0000   1.0000   1.0000   1.0000   1.0000   1.0000   1.0000   1.0000
     1.0000   1.0000   1.0000   1.0000   1.0000   1.0000   0.9947   0.9947
     0.0000   0.0000   0.0000   0.0000   0.0000

          k = 0.1667 0.5774 0.0000 (  2880 PWs)   bands (ev):

   -75.4446 -75.4309 -38.9088 -38.8567 -38.8018 -38.7839 -38.7206 -38.7128
    15.0367  15.3343  15.4150  16.2214  17.2613  17.3705  17.9830  19.5096
    19.6889  19.6920  21.8385  23.3097  29.1241

     occupation numbers 
     1.0000   1.0000   1.0000   1.0000   1.0000   1.0000   1.0000   1.0000
     1.0000   1.0000   1.0000   1.0000   1.0000   1.0000   1.0000   0.0000
     0.0000   0.0000   0.0000   0.0000   0.0000

          k = 0.1667 0.5774 0.1024 (  2886 PWs)   bands (ev):

   -75.4437 -75.4318 -38.9189 -38.8736 -38.8036 -38.7583 -38.7302 -38.7000
    14.8903  15.3771  15.7801  16.0459  17.1812  17.5475  18.0627  19.4336
    19.5086  19.7525  21.8665  23.2120  28.1794

     occupation numbers 
     1.0000   1.0000   1.0000   1.0000   1.0000   1.0000   1.0000   1.0000
     1.0000   1.0000   1.0000   1.0000   1.0000   1.0000   1.0000   0.0000
     0.0000   0.0000   0.0000   0.0000   0.0000

          k = 0.1667 0.5774 0.2048 (  2889 PWs)   bands (ev):

   -75.4412 -75.4344 -38.9316 -38.9052 -38.7913 -38.7478 -38.7202 -38.6880
    14.8501  15.2738  16.0308  16.3761  16.9659  17.6625  18.3148  18.9410
    19.5362  19.7993  21.9917  22.8883  27.0991

     occupation numbers 
     1.0000   1.0000   1.0000   1.0000   1.0000   1.0000   1.0000   1.0000
     1.0000   1.0000   1.0000   1.0000   1.0000   1.0000   1.0000   0.0000
     0.0000   0.0000   0.0000   0.0000   0.0000

          k = 0.1667 0.5774-0.3073 (  2882 PWs)   bands (ev):

   -75.4378 -75.4378 -38.9280 -38.9280 -38.7701 -38.7701 -38.6939 -38.6939
    15.0047  15.0047  16.3571  16.3571  17.2831  17.2831  18.6060  18.6060
    19.6674  19.6674  22.3820  22.3820  26.7265

     occupation numbers 
     1.0000   1.0000   1.0000   1.0000   1.0000   1.0000   1.0000   1.0000
     1.0000   1.0000   1.0000   1.0000   1.0000   1.0000   0.0000   0.0000
     0.0000   0.0000   0.0000   0.0000   0.0000

          k = 0.2500 0.4330 0.0000 (  2874 PWs)   bands (ev):

   -75.4494 -75.4305 -38.8733 -38.8514 -38.8193 -38.7745 -38.7270 -38.7070
    14.5758  15.5444  15.8123  15.8421  17.1168  17.5683  17.8830  18.9416
    19.6428  19.7185  20.9788  26.4181  27.2631

     occupation numbers 
     1.0000   1.0000   1.0000   1.0000   1.0000   1.0000   1.0000   1.0000
     1.0000   1.0000   1.0000   1.0000   1.0000   1.0000   1.0000   0.0000
     0.0000   0.0000   0.0000   0.0000   0.0000

          k = 0.2500 0.4330 0.1024 (  2883 PWs)   bands (ev):

   -75.4481 -75.4317 -38.8801 -38.8770 -38.7858 -38.7855 -38.7291 -38.6949
    14.6559  15.4609  15.8795  16.0249  17.1566  17.3901  17.8909  18.9857
    19.4023  19.7983  21.0795  24.9700  27.5466

     occupation numbers 
     1.0000   1.0000   1.0000   1.0000   1.0000   1.0000   1.0000   1.0000
     1.0000   1.0000   1.0000   1.0000   1.0000   1.0000   1.0000   0.0000
     0.0000   0.0000   0.0000   0.0000   0.0000

          k = 0.2500 0.4330 0.2048 (  2887 PWs)   bands (ev):

   -75.4446 -75.4352 -38.9032 -38.8909 -38.7905 -38.7659 -38.7178 -38.6840
    14.8609  15.3167  16.0964  16.3747  17.0074  17.1259  17.9792  18.7735
    19.3581  19.8947  21.3104  23.1286  28.3160

     occupation numbers 
     1.0000   1.0000   1.0000   1.0000   1.0000   1.0000   1.0000   1.0000
     1.0000   1.0000   1.0000   1.0000   1.0000   1.0000   1.0000   0.0000
     0.0000   0.0000   0.0000   0.0000   0.0000

          k = 0.2500 0.4330-0.3073 (  2884 PWs)   bands (ev):

   -75.4399 -75.4399 -38.9051 -38.9051 -38.7785 -38.7785 -38.6924 -38.6924
    15.1084  15.1084  16.4292  16.4292  16.9015  16.9015  18.2783  18.2783
    19.7551  19.7551  21.8671  21.8671  29.3142

     occupation numbers 
     1.0000   1.0000   1.0000   1.0000   1.0000   1.0000   1.0000   1.0000
     1.0000   1.0000   1.0000   1.0000   1.0000   1.0000   1.0000   1.0000
     0.0000   0.0000   0.0000   0.0000   0.0000

          k = 0.2500 0.5292 0.0000 (  2891 PWs)   bands (ev):

   -75.4414 -75.4317 -38.8866 -38.8423 -38.8059 -38.7889 -38.7490 -38.7312
    15.2980  15.5186  15.6547  15.9221  17.1168  17.3224  18.0813  19.2504
    19.6096  19.6514  22.2537  24.4852  26.5792

     occupation numbers 
     1.0000   1.0000   1.0000   1.0000   1.0000   1.0000   1.0000   1.0000
     1.0000   1.0000   1.0000   1.0000   1.0000   1.0000   1.0000   0.0000
     0.0000   0.0000   0.0000   0.0000   0.0000

          k = 0.2500 0.5292 0.1024 (  2893 PWs)   bands (ev):

   -75.4408 -75.4323 -38.8916 -38.8631 -38.8218 -38.7668 -38.7482 -38.7122
    15.2617  15.6296  15.7371  15.9897  17.0909  17.2227  18.0942  19.2726
    19.3655  19.7067  22.4117  24.4593  26.6393

     occupation numbers 
     1.0000   1.0000   1.0000   1.0000   1.0000   1.0000   1.0000   1.0000
     1.0000   1.0000   1.0000   1.0000   1.0000   1.0000   1.0000   0.0000
     0.0000   0.0000   0.0000   0.0000   0.0000

          k = 0.2500 0.5292 0.2048 (  2885 PWs)   bands (ev):

   -75.4390 -75.4341 -38.9054 -38.8907 -38.8217 -38.7807 -38.7133 -38.6916
    15.2984  15.5859  16.0113  16.3318  16.8369  17.0825  18.1675  18.8055
    19.4485  19.7586  22.7875  24.0952  26.6976

     occupation numbers 
     1.0000   1.0000   1.0000   1.0000   1.0000   1.0000   1.0000   1.0000
     1.0000   1.0000   1.0000   1.0000   1.0000   1.0000   1.0000   0.0000
     0.0000   0.0000   0.0000   0.0000   0.0000

          k = 0.2500 0.5292-0.3073 (  2888 PWs)   bands (ev):

   -75.4365 -75.4365 -38.9076 -38.9076 -38.8030 -38.8030 -38.6909 -38.6909
    15.4295  15.4295  16.4020  16.4021  16.8006  16.8006  18.3760  18.3760
    19.6569  19.6569  23.3715  23.3715  27.2343

     occupation numbers 
     1.0000   1.0000   1.0000   1.0000   1.0000   1.0000   1.0000   1.0000
     1.0000   1.0000   1.0000   1.0000   1.0000   1.0000   1.0000   1.0000
     0.0000   0.0000   0.0000   0.0000   0.0000

          k = 0.3333 0.5774 0.0000 (  2874 PWs)   bands (ev):

   -75.4353 -75.4353 -38.8760 -38.8269 -38.8269 -38.7750 -38.7589 -38.7589
    15.5561  15.6513  15.6513  15.8456  17.1529  17.1529  18.1885  19.4192
    19.4192  19.5770  23.6992  24.4799  24.4799

     occupation numbers 
     1.0000   1.0000   1.0000   1.0000   1.0000   1.0000   1.0000   1.0000
     1.0000   1.0000   1.0000   1.0000   1.0000   1.0000   1.0000   0.0000
     0.0000   0.0000   0.0000   0.0000   0.0000

          k = 0.3333 0.5774 0.1024 (  2883 PWs)   bands (ev):

   -75.4353 -75.4353 -38.8693 -38.8522 -38.8522 -38.7818 -38.7335 -38.7335
    15.6276  15.7240  15.7240  15.8772  17.0668  17.0668  18.1692  19.3093
    19.4696  19.4696  24.1060  24.5277  24.5277

     occupation numbers 
     1.0000   1.0000   1.0000   1.0000   1.0000   1.0000   1.0000   1.0000
     1.0000   1.0000   1.0000   1.0000   1.0000   1.0000   1.0000   0.0000
     0.0000   0.0000   0.0000   0.0000   0.0000

          k = 0.3333 0.5774 0.2048 (  2880 PWs)   bands (ev):

   -75.4353 -75.4353 -38.8835 -38.8835 -38.8509 -38.8004 -38.7019 -38.7019
    15.7943  15.8977  15.8977  15.9360  16.8744  16.8744  18.1708  18.7743
    19.5623  19.5623  24.6462  24.6462  25.0987

     occupation numbers 
     1.0000   1.0000   1.0000   1.0000   1.0000   1.0000   1.0000   1.0000
     1.0000   1.0000   1.0000   1.0000   1.0000   1.0000   1.0000   0.0000
     0.0000   0.0000   0.0000   0.0000   0.0000

          k = 0.3333 0.5774-0.3073 (  2910 PWs)   bands (ev):

   -75.4353 -75.4353 -38.8956 -38.8956 -38.8257 -38.8257 -38.6897 -38.6897
    15.9275  15.9275  16.0115  16.0115  16.7548  16.7548  18.3435  18.3435
    19.6051  19.6051  24.7215  24.7215  26.4127

     occupation numbers 
     1.0000   1.0000   1.0000   1.0000   1.0000   1.0000   1.0000   1.0000
     1.0000   1.0000   1.0000   1.0000   1.0000   1.0000   1.0000   1.0000
     0.0000   0.0000   0.0000   0.0000   0.0000

     the Fermi energy is    18.4693 ev

!    total energy              =    -753.45502807 Ry
     total all-electron energy =     -5573.811719 Ry
     estimated scf accuracy    <       0.00000057 Ry
     smearing contrib. (-TS)   =      -0.00001835 Ry
     internal energy E=F+TS    =    -753.45500972 Ry

     The total energy is F=E-TS. E is the sum of the following terms:
     one-electron contribution =    -284.78533125 Ry
     hartree contribution      =     165.78713975 Ry
     xc contribution           =     -61.39345285 Ry
     ewald contribution        =    -397.88784380 Ry
     one-center paw contrib.   =    -175.17552157 Ry
      -> PAW hartree energy AE =     221.95423633 Ry
      -> PAW hartree energy PS =    -220.89915543 Ry
      -> PAW xc energy AE      =    -117.67053693 Ry
      -> PAW xc energy PS      =      29.02769525 Ry
      -> total E_H with PAW    =     166.84222065 Ry
      -> total E_XC with PAW   =    -150.03629453 Ry

     total magnetization       =     3.36 Bohr mag/cell
     absolute magnetization    =     3.68 Bohr mag/cell

     convergence has been achieved in  11 iterations

     Writing all to output data dir ./out/Co.save/
 
     init_run     :      0.38s CPU      0.50s WALL (       1 calls)
     electrons    :     26.89s CPU     28.15s WALL (       1 calls)

     Called by init_run:
     wfcinit      :      0.26s CPU      0.35s WALL (       1 calls)
     potinit      :      0.09s CPU      0.10s WALL (       1 calls)
     hinit0       :      0.03s CPU      0.03s WALL (       1 calls)

     Called by electrons:
     c_bands      :     23.84s CPU     24.81s WALL (      11 calls)
     sum_band     :      2.05s CPU      2.17s WALL (      11 calls)
     v_of_rho     :      0.03s CPU      0.03s WALL (      12 calls)
     v_h          :      0.00s CPU      0.00s WALL (      12 calls)
     v_xc         :      0.03s CPU      0.03s WALL (      12 calls)
     newd         :      0.05s CPU      0.05s WALL (      12 calls)
     PAW_pot      :      0.97s CPU      1.15s WALL (      12 calls)
     mix_rho      :      0.01s CPU      0.01s WALL (      11 calls)

     Called by c_bands:
     init_us_2    :      0.13s CPU      0.13s WALL (    3344 calls)
     init_us_2:cp :      0.13s CPU      0.12s WALL (    3344 calls)
     cegterg      :     23.11s CPU     24.03s WALL (    1704 calls)

     Called by sum_band:
     sum_band:wei :      0.01s CPU      0.01s WALL (      11 calls)
     sum_band:loo :      1.95s CPU      2.06s WALL (      11 calls)
     sum_band:buf :      0.01s CPU      0.01s WALL (    1672 calls)
     sum_band:ini :      0.07s CPU      0.06s WALL (    1672 calls)
     sum_band:cal :      0.17s CPU      0.17s WALL (    1672 calls)
     sum_band:bec :      0.00s CPU      0.01s WALL (    1672 calls)
     addusdens    :      0.08s CPU      0.08s WALL (      11 calls)
                                        0.00s GPU  (      11 calls)
     addusd:skk   :      0.00s CPU      0.00s WALL (      11 calls)
                                        0.00s GPU  (      11 calls)

     Called by *egterg:
     cdiaghg      :      5.58s CPU      5.71s WALL (   11116 calls)
     cegterg:over :      0.79s CPU      0.76s WALL (    9596 calls)
     cegterg:upda :      0.10s CPU      0.19s WALL (    9596 calls)
     cegterg:last :      0.35s CPU      0.38s WALL (    6904 calls)
     h_psi        :     15.35s CPU     16.05s WALL (   11300 calls)
     s_psi        :      0.28s CPU      0.24s WALL (   11300 calls)
     g_psi        :      0.05s CPU      0.06s WALL (    9596 calls)

     Called by h_psi:
     h_psi:calbec :      0.82s CPU      0.80s WALL (   11300 calls)
     vloc_psi     :     14.32s CPU     14.93s WALL (   11300 calls)
     add_vuspsi   :      0.17s CPU      0.26s WALL (   11300 calls)

     General routines
     calbec       :      0.98s CPU      0.95s WALL (   12972 calls)
     fft          :      0.02s CPU      0.02s WALL (     294 calls)
     ffts         :      0.00s CPU      0.00s WALL (      46 calls)
     fftw         :     15.19s CPU     15.56s WALL (  350672 calls)
     interpolate  :      0.00s CPU      0.00s WALL (      24 calls)
 
     Parallel routines

     PAW routines
     PAW_pot      :      0.97s CPU      1.15s WALL (      12 calls)
     PAW_symme    :      0.01s CPU      0.01s WALL (      22 calls)
 
     PWSCF        :     27.62s CPU     29.44s WALL

 
   This run was terminated on:   7:14:28  22Mar2024            

=------------------------------------------------------------------------------=
   JOB DONE.
=------------------------------------------------------------------------------=
