
     Program PWSCF v.7.2 starts on 22Mar2024 at  8:43: 8 

     This program is part of the open-source Quantum ESPRESSO suite
     for quantum simulation of materials; please cite
         "P. Giannozzi et al., J. Phys.:Condens. Matter 21 395502 (2009);
         "P. Giannozzi et al., J. Phys.:Condens. Matter 29 465901 (2017);
         "P. Giannozzi et al., J. Chem. Phys. 152 154105 (2020);
          URL http://www.quantum-espresso.org", 
     in publications or presentations arising from this work. More details at
     http://www.quantum-espresso.org/quote

     Parallel version (MPI), running on    20 processors

     MPI processes distributed on     1 nodes
     241478 MiB available memory on the printing compute node when the environment starts
 
     Waiting for input...
     Reading input from standard input

     Current dimensions of program PWSCF are:
     Max number of different atomic species (ntypx) = 10
     Max number of k-points (npk) = 120000
     Max angular momentum in pseudopotentials (lmaxx) =  4
     file Co.pbe-spn-kjpaw_psl.0.3.1.UPF: wavefunction(s)  3P 3D renormalized
 
     R & G space division:  proc/nbgrp/npool/nimage =      20
     Subspace diagonalization in iterative solution of the eigenvalue problem:
     a serial algorithm will be used

 
     Parallelization info
     --------------------
     sticks:   dense  smooth     PW     G-vecs:    dense   smooth      PW
     Min          33      32      9                 1147     1106     179
     Max          35      33     10                 1153     1115     186
     Sum         673     649    199                22983    22191    3669
 
     Using Slab Decomposition
 


     bravais-lattice index     =            4
     lattice parameter (alat)  =       4.6487  a.u.
     unit-cell volume          =     142.3519 (a.u.)^3
     number of atoms/cell      =            2
     number of atomic types    =            1
     number of electrons       =        34.00
     number of Kohn-Sham states=           21
     kinetic-energy cutoff     =     110.0000  Ry
     charge density cutoff     =     450.0000  Ry
     scf convergence threshold =      1.0E-06
     mixing beta               =       0.7000
     number of iterations used =            8  plain     mixing
     Exchange-correlation= SLA  PW   PBX  PBC
                           (   1   4   3   4   0   0   0)

     celldm(1)=   4.648726  celldm(2)=   0.000000  celldm(3)=   1.636179
     celldm(4)=   0.000000  celldm(5)=   0.000000  celldm(6)=   0.000000

     crystal axes: (cart. coord. in units of alat)
               a(1) = (   1.000000   0.000000   0.000000 )  
               a(2) = (  -0.500000   0.866025   0.000000 )  
               a(3) = (   0.000000   0.000000   1.636179 )  

     reciprocal axes: (cart. coord. in units 2 pi/alat)
               b(1) = (  1.000000  0.577350  0.000000 )  
               b(2) = (  0.000000  1.154701  0.000000 )  
               b(3) = (  0.000000  0.000000  0.611180 )  


     PseudoPot. # 1 for Co read from file:
     /truba/home/amuhaymin/ZnS/pseudo/QE/Co.pbe-spn-kjpaw_psl.0.3.1.UPF
     MD5 check sum: b0a1ad65bf214e88c1f3d33b20c7d919
     Pseudo is Projector augmented-wave + core cor, Zval = 17.0
     Generated using &quot;atomic&quot; code by A. Dal Corso  v.6.2.2
     Shape of augmentation charge: PSQ
     Using radial grid of 1193 points,  6 beta functions with: 
                l(1) =   0
                l(2) =   0
                l(3) =   1
                l(4) =   1
                l(5) =   2
                l(6) =   2
     Q(r) pseudized with 0 coefficients 


     atomic species   valence    mass     pseudopotential
        Co            17.00    58.93300     Co( 1.00)

     Starting magnetic structure 
     atomic species   magnetization
        Co           0.294

     24 Sym. Ops., with inversion, found (12 have fractional translation)


                                    s                        frac. trans.

      isym =  1     identity                                     

 cryst.   s( 1) = (     1          0          0      )
                  (     0          1          0      )
                  (     0          0          1      )

 cart.    s( 1) = (  1.0000000  0.0000000  0.0000000 )
                  (  0.0000000  1.0000000  0.0000000 )
                  (  0.0000000  0.0000000  1.0000000 )


      isym =  2     180 deg rotation - cart. axis [0,0,1]        

 cryst.   s( 2) = (    -1          0          0      )    f =(  0.0000000 )
                  (     0         -1          0      )       (  0.0000000 )
                  (     0          0          1      )       (  0.5000000 )

 cart.    s( 2) = ( -1.0000000  0.0000000  0.0000000 )    f =(  0.0000000 )
                  (  0.0000000 -1.0000000  0.0000000 )       (  0.0000000 )
                  (  0.0000000  0.0000000  1.0000000 )       (  0.8180894 )


      isym =  3     180 deg rotation - cart. axis [0,1,0]        

 cryst.   s( 3) = (    -1          0          0      )    f =(  0.0000000 )
                  (     1          1          0      )       (  0.0000000 )
                  (     0          0         -1      )       (  0.5000000 )

 cart.    s( 3) = ( -1.0000000  0.0000000  0.0000000 )    f =(  0.0000000 )
                  (  0.0000000  1.0000000  0.0000000 )       (  0.0000000 )
                  (  0.0000000  0.0000000 -1.0000000 )       (  0.8180894 )


      isym =  4     180 deg rotation - cart. axis [1,0,0]        

 cryst.   s( 4) = (     1          0          0      )
                  (    -1         -1          0      )
                  (     0          0         -1      )

 cart.    s( 4) = (  1.0000000  0.0000000  0.0000000 )
                  (  0.0000000 -1.0000000  0.0000000 )
                  (  0.0000000  0.0000000 -1.0000000 )


      isym =  5      60 deg rotation - cryst. axis [0,0,1]       

 cryst.   s( 5) = (     1          1          0      )    f =(  0.0000000 )
                  (    -1          0          0      )       ( -0.0000000 )
                  (     0          0          1      )       (  0.5000000 )

 cart.    s( 5) = (  0.5000000 -0.8660254  0.0000000 )    f =(  0.0000000 )
                  (  0.8660254  0.5000000  0.0000000 )       ( -0.0000000 )
                  (  0.0000000  0.0000000  1.0000000 )       (  0.8180894 )


      isym =  6      60 deg rotation - cryst. axis [0,0,-1]      

 cryst.   s( 6) = (     0         -1          0      )    f =(  0.0000000 )
                  (     1          1          0      )       ( -0.0000000 )
                  (     0          0          1      )       (  0.5000000 )

 cart.    s( 6) = (  0.5000000  0.8660254  0.0000000 )    f =(  0.0000000 )
                  ( -0.8660254  0.5000000  0.0000000 )       ( -0.0000000 )
                  (  0.0000000  0.0000000  1.0000000 )       (  0.8180894 )


      isym =  7     120 deg rotation - cryst. axis [0,0,1]       

 cryst.   s( 7) = (     0          1          0      )
                  (    -1         -1          0      )
                  (     0          0          1      )

 cart.    s( 7) = ( -0.5000000 -0.8660254  0.0000000 )
                  (  0.8660254 -0.5000000  0.0000000 )
                  (  0.0000000  0.0000000  1.0000000 )


      isym =  8     120 deg rotation - cryst. axis [0,0,-1]      

 cryst.   s( 8) = (    -1         -1          0      )
                  (     1          0          0      )
                  (     0          0          1      )

 cart.    s( 8) = ( -0.5000000  0.8660254  0.0000000 )
                  ( -0.8660254 -0.5000000  0.0000000 )
                  (  0.0000000  0.0000000  1.0000000 )


      isym =  9     180 deg rotation - cryst. axis [1,-1,0]      

 cryst.   s( 9) = (     0         -1          0      )    f =(  0.0000000 )
                  (    -1          0          0      )       (  0.0000000 )
                  (     0          0         -1      )       (  0.5000000 )

 cart.    s( 9) = (  0.5000000 -0.8660254  0.0000000 )    f =(  0.0000000 )
                  ( -0.8660254 -0.5000000  0.0000000 )       (  0.0000000 )
                  (  0.0000000  0.0000000 -1.0000000 )       (  0.8180894 )


      isym = 10     180 deg rotation - cryst. axis [2,1,0]       

 cryst.   s(10) = (     1          1          0      )    f =(  0.0000000 )
                  (     0         -1          0      )       ( -0.0000000 )
                  (     0          0         -1      )       (  0.5000000 )

 cart.    s(10) = (  0.5000000  0.8660254  0.0000000 )    f =(  0.0000000 )
                  (  0.8660254 -0.5000000  0.0000000 )       ( -0.0000000 )
                  (  0.0000000  0.0000000 -1.0000000 )       (  0.8180894 )


      isym = 11     180 deg rotation - cryst. axis [0,1,0]       

 cryst.   s(11) = (    -1         -1          0      )
                  (     0          1          0      )
                  (     0          0         -1      )

 cart.    s(11) = ( -0.5000000 -0.8660254  0.0000000 )
                  ( -0.8660254  0.5000000  0.0000000 )
                  (  0.0000000  0.0000000 -1.0000000 )


      isym = 12     180 deg rotation - cryst. axis [1,1,0]       

 cryst.   s(12) = (     0          1          0      )
                  (     1          0          0      )
                  (     0          0         -1      )

 cart.    s(12) = ( -0.5000000  0.8660254  0.0000000 )
                  (  0.8660254  0.5000000  0.0000000 )
                  (  0.0000000  0.0000000 -1.0000000 )


      isym = 13     inversion                                    

 cryst.   s(13) = (    -1          0          0      )
                  (     0         -1          0      )
                  (     0          0         -1      )

 cart.    s(13) = ( -1.0000000  0.0000000  0.0000000 )
                  (  0.0000000 -1.0000000  0.0000000 )
                  (  0.0000000  0.0000000 -1.0000000 )


      isym = 14     inv. 180 deg rotation - cart. axis [0,0,1]   

 cryst.   s(14) = (     1          0          0      )    f =(  0.0000000 )
                  (     0          1          0      )       (  0.0000000 )
                  (     0          0         -1      )       (  0.5000000 )

 cart.    s(14) = (  1.0000000  0.0000000  0.0000000 )    f =(  0.0000000 )
                  (  0.0000000  1.0000000  0.0000000 )       (  0.0000000 )
                  (  0.0000000  0.0000000 -1.0000000 )       (  0.8180894 )


      isym = 15     inv. 180 deg rotation - cart. axis [0,1,0]   

 cryst.   s(15) = (     1          0          0      )    f =(  0.0000000 )
                  (    -1         -1          0      )       (  0.0000000 )
                  (     0          0          1      )       (  0.5000000 )

 cart.    s(15) = (  1.0000000  0.0000000  0.0000000 )    f =(  0.0000000 )
                  (  0.0000000 -1.0000000  0.0000000 )       (  0.0000000 )
                  (  0.0000000  0.0000000  1.0000000 )       (  0.8180894 )


      isym = 16     inv. 180 deg rotation - cart. axis [1,0,0]   

 cryst.   s(16) = (    -1          0          0      )
                  (     1          1          0      )
                  (     0          0          1      )

 cart.    s(16) = ( -1.0000000  0.0000000  0.0000000 )
                  (  0.0000000  1.0000000  0.0000000 )
                  (  0.0000000  0.0000000  1.0000000 )


      isym = 17     inv.  60 deg rotation - cryst. axis [0,0,1]  

 cryst.   s(17) = (    -1         -1          0      )    f =(  0.0000000 )
                  (     1          0          0      )       (  0.0000000 )
                  (     0          0         -1      )       (  0.5000000 )

 cart.    s(17) = ( -0.5000000  0.8660254  0.0000000 )    f =(  0.0000000 )
                  ( -0.8660254 -0.5000000  0.0000000 )       (  0.0000000 )
                  (  0.0000000  0.0000000 -1.0000000 )       (  0.8180894 )


      isym = 18     inv.  60 deg rotation - cryst. axis [0,0,-1] 

 cryst.   s(18) = (     0          1          0      )    f =(  0.0000000 )
                  (    -1         -1          0      )       ( -0.0000000 )
                  (     0          0         -1      )       (  0.5000000 )

 cart.    s(18) = ( -0.5000000 -0.8660254  0.0000000 )    f =(  0.0000000 )
                  (  0.8660254 -0.5000000  0.0000000 )       ( -0.0000000 )
                  (  0.0000000  0.0000000 -1.0000000 )       (  0.8180894 )


      isym = 19     inv. 120 deg rotation - cryst. axis [0,0,1]  

 cryst.   s(19) = (     0         -1          0      )
                  (     1          1          0      )
                  (     0          0         -1      )

 cart.    s(19) = (  0.5000000  0.8660254  0.0000000 )
                  ( -0.8660254  0.5000000  0.0000000 )
                  (  0.0000000  0.0000000 -1.0000000 )


      isym = 20     inv. 120 deg rotation - cryst. axis [0,0,-1] 

 cryst.   s(20) = (     1          1          0      )
                  (    -1          0          0      )
                  (     0          0         -1      )

 cart.    s(20) = (  0.5000000 -0.8660254  0.0000000 )
                  (  0.8660254  0.5000000  0.0000000 )
                  (  0.0000000  0.0000000 -1.0000000 )


      isym = 21     inv. 180 deg rotation - cryst. axis [1,-1,0] 

 cryst.   s(21) = (     0          1          0      )    f =(  0.0000000 )
                  (     1          0          0      )       ( -0.0000000 )
                  (     0          0          1      )       (  0.5000000 )

 cart.    s(21) = ( -0.5000000  0.8660254  0.0000000 )    f =(  0.0000000 )
                  (  0.8660254  0.5000000  0.0000000 )       ( -0.0000000 )
                  (  0.0000000  0.0000000  1.0000000 )       (  0.8180894 )


      isym = 22     inv. 180 deg rotation - cryst. axis [2,1,0]  

 cryst.   s(22) = (    -1         -1          0      )    f =(  0.0000000 )
                  (     0          1          0      )       ( -0.0000000 )
                  (     0          0          1      )       (  0.5000000 )

 cart.    s(22) = ( -0.5000000 -0.8660254  0.0000000 )    f =(  0.0000000 )
                  ( -0.8660254  0.5000000  0.0000000 )       ( -0.0000000 )
                  (  0.0000000  0.0000000  1.0000000 )       (  0.8180894 )


      isym = 23     inv. 180 deg rotation - cryst. axis [0,1,0]  

 cryst.   s(23) = (     1          1          0      )
                  (     0         -1          0      )
                  (     0          0          1      )

 cart.    s(23) = (  0.5000000  0.8660254  0.0000000 )
                  (  0.8660254 -0.5000000  0.0000000 )
                  (  0.0000000  0.0000000  1.0000000 )


      isym = 24     inv. 180 deg rotation - cryst. axis [1,1,0]  

 cryst.   s(24) = (     0         -1          0      )
                  (    -1          0          0      )
                  (     0          0          1      )

 cart.    s(24) = (  0.5000000 -0.8660254  0.0000000 )
                  ( -0.8660254 -0.5000000  0.0000000 )
                  (  0.0000000  0.0000000  1.0000000 )


     point group D_6h(6/mmm)
     there are 12 classes
     the character table:

       E     2C6   2C3   C2    3C2'  3C2'' i     2S3   2S6   s_h   3s_d  3s_v 
A_1g   1.00  1.00  1.00  1.00  1.00  1.00  1.00  1.00  1.00  1.00  1.00  1.00
A_2g   1.00  1.00  1.00  1.00 -1.00 -1.00  1.00  1.00  1.00  1.00 -1.00 -1.00
B_1g   1.00 -1.00  1.00 -1.00  1.00 -1.00  1.00 -1.00  1.00 -1.00  1.00 -1.00
B_2g   1.00 -1.00  1.00 -1.00 -1.00  1.00  1.00 -1.00  1.00 -1.00 -1.00  1.00
E_1g   2.00  1.00 -1.00 -2.00  0.00  0.00  2.00  1.00 -1.00 -2.00  0.00  0.00
E_2g   2.00 -1.00 -1.00  2.00  0.00  0.00  2.00 -1.00 -1.00  2.00  0.00  0.00
A_1u   1.00  1.00  1.00  1.00  1.00  1.00 -1.00 -1.00 -1.00 -1.00 -1.00 -1.00
A_2u   1.00  1.00  1.00  1.00 -1.00 -1.00 -1.00 -1.00 -1.00 -1.00  1.00  1.00
B_1u   1.00 -1.00  1.00 -1.00  1.00 -1.00 -1.00  1.00 -1.00  1.00 -1.00  1.00
B_2u   1.00 -1.00  1.00 -1.00 -1.00  1.00 -1.00  1.00 -1.00  1.00  1.00 -1.00
E_1u   2.00  1.00 -1.00 -2.00  0.00  0.00 -2.00 -1.00  1.00  2.00  0.00  0.00
E_2u   2.00 -1.00 -1.00  2.00  0.00  0.00 -2.00  1.00  1.00 -2.00  0.00  0.00

     the symmetry operations in each class and the name of the first element:

     E        1
          identity                                               
     2C6      5    6
           60 deg rotation - cryst. axis [0,0,1]                 
     2C3      7    8
          120 deg rotation - cryst. axis [0,0,1]                 
     C2       2
          180 deg rotation - cart. axis [0,0,1]                  
     3C2'     4   12   11
          180 deg rotation - cart. axis [1,0,0]                  
     3C2''    3    9   10
          180 deg rotation - cart. axis [0,1,0]                  
     i       13
          inversion                                              
     2S3     17   18
          inv.  60 deg rotation - cryst. axis [0,0,1]            
     2S6     19   20
          inv. 120 deg rotation - cryst. axis [0,0,1]            
     s_h     14
          inv. 180 deg rotation - cart. axis [0,0,1]             
     3s_d    16   24   23
          inv. 180 deg rotation - cart. axis [1,0,0]             
     3s_v    15   21   22
          inv. 180 deg rotation - cart. axis [0,1,0]             

   Cartesian axes

     site n.     atom                  positions (alat units)
         1           Co  tau(   1) = (  -0.0000000   0.5773503   0.4090447  )
         2           Co  tau(   2) = (   0.5000000   0.2886751   1.2271341  )

   Crystallographic axes

     site n.     atom                  positions (cryst. coord.)
         1           Co  tau(   1) = (  0.3333333  0.6666667  0.2500000  )
         2           Co  tau(   2) = (  0.6666667  0.3333333  0.7500000  )

     number of k points=    76  Gaussian smearing, width (Ry)=  0.0010
                       cart. coord. in units 2pi/alat
        k(    1) = (   0.0000000   0.0000000   0.0000000), wk =   0.0011574
        k(    2) = (   0.0000000   0.0000000   0.1018634), wk =   0.0023148
        k(    3) = (   0.0000000   0.0000000   0.2037267), wk =   0.0023148
        k(    4) = (   0.0000000   0.0000000  -0.3055901), wk =   0.0011574
        k(    5) = (   0.0000000   0.0962250   0.0000000), wk =   0.0069444
        k(    6) = (   0.0000000   0.0962250   0.1018634), wk =   0.0138889
        k(    7) = (   0.0000000   0.0962250   0.2037267), wk =   0.0138889
        k(    8) = (   0.0000000   0.0962250  -0.3055901), wk =   0.0069444
        k(    9) = (   0.0000000   0.1924501   0.0000000), wk =   0.0069444
        k(   10) = (   0.0000000   0.1924501   0.1018634), wk =   0.0138889
        k(   11) = (   0.0000000   0.1924501   0.2037267), wk =   0.0138889
        k(   12) = (   0.0000000   0.1924501  -0.3055901), wk =   0.0069444
        k(   13) = (   0.0000000   0.2886751   0.0000000), wk =   0.0069444
        k(   14) = (   0.0000000   0.2886751   0.1018634), wk =   0.0138889
        k(   15) = (   0.0000000   0.2886751   0.2037267), wk =   0.0138889
        k(   16) = (   0.0000000   0.2886751  -0.3055901), wk =   0.0069444
        k(   17) = (   0.0000000   0.3849002   0.0000000), wk =   0.0069444
        k(   18) = (   0.0000000   0.3849002   0.1018634), wk =   0.0138889
        k(   19) = (   0.0000000   0.3849002   0.2037267), wk =   0.0138889
        k(   20) = (   0.0000000   0.3849002  -0.3055901), wk =   0.0069444
        k(   21) = (   0.0000000   0.4811252   0.0000000), wk =   0.0069444
        k(   22) = (   0.0000000   0.4811252   0.1018634), wk =   0.0138889
        k(   23) = (   0.0000000   0.4811252   0.2037267), wk =   0.0138889
        k(   24) = (   0.0000000   0.4811252  -0.3055901), wk =   0.0069444
        k(   25) = (   0.0000000  -0.5773503   0.0000000), wk =   0.0034722
        k(   26) = (   0.0000000  -0.5773503   0.1018634), wk =   0.0069444
        k(   27) = (   0.0000000  -0.5773503   0.2037267), wk =   0.0069444
        k(   28) = (   0.0000000  -0.5773503  -0.3055901), wk =   0.0034722
        k(   29) = (   0.0833333   0.1443376   0.0000000), wk =   0.0069444
        k(   30) = (   0.0833333   0.1443376   0.1018634), wk =   0.0138889
        k(   31) = (   0.0833333   0.1443376   0.2037267), wk =   0.0138889
        k(   32) = (   0.0833333   0.1443376  -0.3055901), wk =   0.0069444
        k(   33) = (   0.0833333   0.2405626   0.0000000), wk =   0.0138889
        k(   34) = (   0.0833333   0.2405626   0.1018634), wk =   0.0277778
        k(   35) = (   0.0833333   0.2405626   0.2037267), wk =   0.0277778
        k(   36) = (   0.0833333   0.2405626  -0.3055901), wk =   0.0138889
        k(   37) = (   0.0833333   0.3367877   0.0000000), wk =   0.0138889
        k(   38) = (   0.0833333   0.3367877   0.1018634), wk =   0.0277778
        k(   39) = (   0.0833333   0.3367877   0.2037267), wk =   0.0277778
        k(   40) = (   0.0833333   0.3367877  -0.3055901), wk =   0.0138889
        k(   41) = (   0.0833333   0.4330127   0.0000000), wk =   0.0138889
        k(   42) = (   0.0833333   0.4330127   0.1018634), wk =   0.0277778
        k(   43) = (   0.0833333   0.4330127   0.2037267), wk =   0.0277778
        k(   44) = (   0.0833333   0.4330127  -0.3055901), wk =   0.0138889
        k(   45) = (   0.0833333   0.5292377   0.0000000), wk =   0.0138889
        k(   46) = (   0.0833333   0.5292377   0.1018634), wk =   0.0277778
        k(   47) = (   0.0833333   0.5292377   0.2037267), wk =   0.0277778
        k(   48) = (   0.0833333   0.5292377  -0.3055901), wk =   0.0138889
        k(   49) = (   0.1666667   0.2886751   0.0000000), wk =   0.0069444
        k(   50) = (   0.1666667   0.2886751   0.1018634), wk =   0.0138889
        k(   51) = (   0.1666667   0.2886751   0.2037267), wk =   0.0138889
        k(   52) = (   0.1666667   0.2886751  -0.3055901), wk =   0.0069444
        k(   53) = (   0.1666667   0.3849002   0.0000000), wk =   0.0138889
        k(   54) = (   0.1666667   0.3849002   0.1018634), wk =   0.0277778
        k(   55) = (   0.1666667   0.3849002   0.2037267), wk =   0.0277778
        k(   56) = (   0.1666667   0.3849002  -0.3055901), wk =   0.0138889
        k(   57) = (   0.1666667   0.4811252   0.0000000), wk =   0.0138889
        k(   58) = (   0.1666667   0.4811252   0.1018634), wk =   0.0277778
        k(   59) = (   0.1666667   0.4811252   0.2037267), wk =   0.0277778
        k(   60) = (   0.1666667   0.4811252  -0.3055901), wk =   0.0138889
        k(   61) = (   0.1666667   0.5773503   0.0000000), wk =   0.0069444
        k(   62) = (   0.1666667   0.5773503   0.1018634), wk =   0.0138889
        k(   63) = (   0.1666667   0.5773503   0.2037267), wk =   0.0138889
        k(   64) = (   0.1666667   0.5773503  -0.3055901), wk =   0.0069444
        k(   65) = (   0.2500000   0.4330127   0.0000000), wk =   0.0069444
        k(   66) = (   0.2500000   0.4330127   0.1018634), wk =   0.0138889
        k(   67) = (   0.2500000   0.4330127   0.2037267), wk =   0.0138889
        k(   68) = (   0.2500000   0.4330127  -0.3055901), wk =   0.0069444
        k(   69) = (   0.2500000   0.5292377   0.0000000), wk =   0.0138889
        k(   70) = (   0.2500000   0.5292377   0.1018634), wk =   0.0277778
        k(   71) = (   0.2500000   0.5292377   0.2037267), wk =   0.0277778
        k(   72) = (   0.2500000   0.5292377  -0.3055901), wk =   0.0138889
        k(   73) = (   0.3333333   0.5773503   0.0000000), wk =   0.0023148
        k(   74) = (   0.3333333   0.5773503   0.1018634), wk =   0.0046296
        k(   75) = (   0.3333333   0.5773503   0.2037267), wk =   0.0046296
        k(   76) = (   0.3333333   0.5773503  -0.3055901), wk =   0.0023148

                       cryst. coord.
        k(    1) = (   0.0000000   0.0000000   0.0000000), wk =   0.0011574
        k(    2) = (   0.0000000   0.0000000   0.1666667), wk =   0.0023148
        k(    3) = (   0.0000000   0.0000000   0.3333333), wk =   0.0023148
        k(    4) = (   0.0000000   0.0000000  -0.5000000), wk =   0.0011574
        k(    5) = (   0.0000000   0.0833333   0.0000000), wk =   0.0069444
        k(    6) = (   0.0000000   0.0833333   0.1666667), wk =   0.0138889
        k(    7) = (   0.0000000   0.0833333   0.3333333), wk =   0.0138889
        k(    8) = (   0.0000000   0.0833333  -0.5000000), wk =   0.0069444
        k(    9) = (   0.0000000   0.1666667   0.0000000), wk =   0.0069444
        k(   10) = (   0.0000000   0.1666667   0.1666667), wk =   0.0138889
        k(   11) = (   0.0000000   0.1666667   0.3333333), wk =   0.0138889
        k(   12) = (   0.0000000   0.1666667  -0.5000000), wk =   0.0069444
        k(   13) = (   0.0000000   0.2500000   0.0000000), wk =   0.0069444
        k(   14) = (   0.0000000   0.2500000   0.1666667), wk =   0.0138889
        k(   15) = (   0.0000000   0.2500000   0.3333333), wk =   0.0138889
        k(   16) = (   0.0000000   0.2500000  -0.5000000), wk =   0.0069444
        k(   17) = (   0.0000000   0.3333333   0.0000000), wk =   0.0069444
        k(   18) = (   0.0000000   0.3333333   0.1666667), wk =   0.0138889
        k(   19) = (   0.0000000   0.3333333   0.3333333), wk =   0.0138889
        k(   20) = (   0.0000000   0.3333333  -0.5000000), wk =   0.0069444
        k(   21) = (   0.0000000   0.4166667   0.0000000), wk =   0.0069444
        k(   22) = (   0.0000000   0.4166667   0.1666667), wk =   0.0138889
        k(   23) = (   0.0000000   0.4166667   0.3333333), wk =   0.0138889
        k(   24) = (   0.0000000   0.4166667  -0.5000000), wk =   0.0069444
        k(   25) = (   0.0000000  -0.5000000   0.0000000), wk =   0.0034722
        k(   26) = (   0.0000000  -0.5000000   0.1666667), wk =   0.0069444
        k(   27) = (   0.0000000  -0.5000000   0.3333333), wk =   0.0069444
        k(   28) = (   0.0000000  -0.5000000  -0.5000000), wk =   0.0034722
        k(   29) = (   0.0833333   0.0833333   0.0000000), wk =   0.0069444
        k(   30) = (   0.0833333   0.0833333   0.1666667), wk =   0.0138889
        k(   31) = (   0.0833333   0.0833333   0.3333333), wk =   0.0138889
        k(   32) = (   0.0833333   0.0833333  -0.5000000), wk =   0.0069444
        k(   33) = (   0.0833333   0.1666667   0.0000000), wk =   0.0138889
        k(   34) = (   0.0833333   0.1666667   0.1666667), wk =   0.0277778
        k(   35) = (   0.0833333   0.1666667   0.3333333), wk =   0.0277778
        k(   36) = (   0.0833333   0.1666667  -0.5000000), wk =   0.0138889
        k(   37) = (   0.0833333   0.2500000   0.0000000), wk =   0.0138889
        k(   38) = (   0.0833333   0.2500000   0.1666667), wk =   0.0277778
        k(   39) = (   0.0833333   0.2500000   0.3333333), wk =   0.0277778
        k(   40) = (   0.0833333   0.2500000  -0.5000000), wk =   0.0138889
        k(   41) = (   0.0833333   0.3333333   0.0000000), wk =   0.0138889
        k(   42) = (   0.0833333   0.3333333   0.1666667), wk =   0.0277778
        k(   43) = (   0.0833333   0.3333333   0.3333333), wk =   0.0277778
        k(   44) = (   0.0833333   0.3333333  -0.5000000), wk =   0.0138889
        k(   45) = (   0.0833333   0.4166667   0.0000000), wk =   0.0138889
        k(   46) = (   0.0833333   0.4166667   0.1666667), wk =   0.0277778
        k(   47) = (   0.0833333   0.4166667   0.3333333), wk =   0.0277778
        k(   48) = (   0.0833333   0.4166667  -0.5000000), wk =   0.0138889
        k(   49) = (   0.1666667   0.1666667   0.0000000), wk =   0.0069444
        k(   50) = (   0.1666667   0.1666667   0.1666667), wk =   0.0138889
        k(   51) = (   0.1666667   0.1666667   0.3333333), wk =   0.0138889
        k(   52) = (   0.1666667   0.1666667  -0.5000000), wk =   0.0069444
        k(   53) = (   0.1666667   0.2500000   0.0000000), wk =   0.0138889
        k(   54) = (   0.1666667   0.2500000   0.1666667), wk =   0.0277778
        k(   55) = (   0.1666667   0.2500000   0.3333333), wk =   0.0277778
        k(   56) = (   0.1666667   0.2500000  -0.5000000), wk =   0.0138889
        k(   57) = (   0.1666667   0.3333333   0.0000000), wk =   0.0138889
        k(   58) = (   0.1666667   0.3333333   0.1666667), wk =   0.0277778
        k(   59) = (   0.1666667   0.3333333   0.3333333), wk =   0.0277778
        k(   60) = (   0.1666667   0.3333333  -0.5000000), wk =   0.0138889
        k(   61) = (   0.1666667   0.4166667   0.0000000), wk =   0.0069444
        k(   62) = (   0.1666667   0.4166667   0.1666667), wk =   0.0138889
        k(   63) = (   0.1666667   0.4166667   0.3333333), wk =   0.0138889
        k(   64) = (   0.1666667   0.4166667  -0.5000000), wk =   0.0069444
        k(   65) = (   0.2500000   0.2500000   0.0000000), wk =   0.0069444
        k(   66) = (   0.2500000   0.2500000   0.1666667), wk =   0.0138889
        k(   67) = (   0.2500000   0.2500000   0.3333333), wk =   0.0138889
        k(   68) = (   0.2500000   0.2500000  -0.5000000), wk =   0.0069444
        k(   69) = (   0.2500000   0.3333333   0.0000000), wk =   0.0138889
        k(   70) = (   0.2500000   0.3333333   0.1666667), wk =   0.0277778
        k(   71) = (   0.2500000   0.3333333   0.3333333), wk =   0.0277778
        k(   72) = (   0.2500000   0.3333333  -0.5000000), wk =   0.0138889
        k(   73) = (   0.3333333   0.3333333   0.0000000), wk =   0.0023148
        k(   74) = (   0.3333333   0.3333333   0.1666667), wk =   0.0046296
        k(   75) = (   0.3333333   0.3333333   0.3333333), wk =   0.0046296
        k(   76) = (   0.3333333   0.3333333  -0.5000000), wk =   0.0023148

     Dense  grid:    22983 G-vectors     FFT dimensions: (  32,  32,  54)

     Smooth grid:    22191 G-vectors     FFT dimensions: (  32,  32,  54)

     Dynamical RAM for                 wfc:       0.04 MB

     Dynamical RAM for     wfc (w. buffer):       6.77 MB

     Dynamical RAM for           str. fact:       0.02 MB

     Dynamical RAM for           local pot:       0.00 MB

     Dynamical RAM for          nlocal pot:       0.08 MB

     Dynamical RAM for                qrad:       1.70 MB

     Dynamical RAM for          rho,v,vnew:       0.25 MB

     Dynamical RAM for               rhoin:       0.08 MB

     Dynamical RAM for            rho*nmix:       0.56 MB

     Dynamical RAM for           G-vectors:       0.07 MB

     Dynamical RAM for          h,s,v(r/c):       0.08 MB

     Dynamical RAM for          <psi|beta>:       0.01 MB

     Dynamical RAM for                 psi:       0.09 MB

     Dynamical RAM for                hpsi:       0.09 MB

     Dynamical RAM for                spsi:       0.09 MB

     Dynamical RAM for      wfcinit/wfcrot:       0.10 MB

     Dynamical RAM for           addusdens:       3.33 MB

     Estimated static dynamical RAM per process >       9.14 MB

     Estimated max dynamical RAM per process >      13.03 MB

     Estimated total dynamical RAM >     260.56 MB

     Check: negative core charge=   -0.000043
     Generating pointlists ...
     new r_m :   0.4125 (alat units)  1.9176 (a.u.) for type    1

     The initial density is read from file :
     ./out/Co.save/charge-density


     starting charge      34.0540, renormalised to      34.0000

     negative rho (up, down):  2.078E-01 1.694E-01
     Starting wfcs from file
     Checking if some PAW data can be deallocated... 

     total cpu time spent up to now is        0.6 secs

     Self-consistent Calculation

     iteration #  1     ecut=   110.00 Ry     beta= 0.70
     Davidson diagonalization with overlap

---- Real-time Memory Report at c_bands before calling an iterative solver
            56 MiB given to the printing process from OS
             0 MiB allocation reported by mallinfo(arena+hblkhd)
        240910 MiB available memory on the node where the printing process lives
------------------
     c_bands:  1 eigenvalues not converged
     c_bands:  1 eigenvalues not converged
     c_bands:  2 eigenvalues not converged
     c_bands:  2 eigenvalues not converged
     c_bands:  3 eigenvalues not converged
     c_bands:  1 eigenvalues not converged
     c_bands:  4 eigenvalues not converged
     c_bands:  1 eigenvalues not converged
     c_bands:  1 eigenvalues not converged
     c_bands:  1 eigenvalues not converged
     c_bands:  1 eigenvalues not converged
     c_bands:  1 eigenvalues not converged
     c_bands:  1 eigenvalues not converged
     c_bands:  3 eigenvalues not converged
     c_bands:  3 eigenvalues not converged
     c_bands:  1 eigenvalues not converged
     c_bands:  2 eigenvalues not converged
     c_bands:  1 eigenvalues not converged
     c_bands:  1 eigenvalues not converged
     c_bands:  5 eigenvalues not converged
     c_bands:  2 eigenvalues not converged
     c_bands:  2 eigenvalues not converged
     c_bands:  5 eigenvalues not converged
     c_bands:  1 eigenvalues not converged
     c_bands:  2 eigenvalues not converged
     c_bands:  2 eigenvalues not converged
     c_bands:  2 eigenvalues not converged
     c_bands:  5 eigenvalues not converged
     c_bands:  1 eigenvalues not converged
     c_bands:  1 eigenvalues not converged
     c_bands:  1 eigenvalues not converged
     c_bands:  1 eigenvalues not converged
     c_bands:  1 eigenvalues not converged
     c_bands:  1 eigenvalues not converged
     c_bands:  2 eigenvalues not converged
     c_bands:  1 eigenvalues not converged
     c_bands:  1 eigenvalues not converged
     c_bands:  1 eigenvalues not converged
     c_bands:  5 eigenvalues not converged
     c_bands:  1 eigenvalues not converged
     c_bands:  1 eigenvalues not converged
     c_bands:  2 eigenvalues not converged
     c_bands:  1 eigenvalues not converged
     c_bands:  1 eigenvalues not converged
     c_bands:  1 eigenvalues not converged
     c_bands:  2 eigenvalues not converged
     c_bands:  2 eigenvalues not converged
     c_bands:  1 eigenvalues not converged
     c_bands:  1 eigenvalues not converged
     c_bands:  3 eigenvalues not converged
     c_bands:  2 eigenvalues not converged
     c_bands:  2 eigenvalues not converged
     c_bands:  1 eigenvalues not converged
     c_bands:  3 eigenvalues not converged
     c_bands:  1 eigenvalues not converged
     c_bands:  4 eigenvalues not converged
     c_bands:  4 eigenvalues not converged
     c_bands:  1 eigenvalues not converged
     c_bands:  4 eigenvalues not converged
     c_bands:  5 eigenvalues not converged
     ethr =  1.00E-05,  avg # of iterations = 19.2

     negative rho (up, down):  8.978E-04 3.121E-04

     total cpu time spent up to now is        9.6 secs

     total energy              =    -753.28739902 Ry
     estimated scf accuracy    <       0.10799257 Ry

     total magnetization       =     3.28 Bohr mag/cell
     absolute magnetization    =     3.56 Bohr mag/cell

     iteration #  2     ecut=   110.00 Ry     beta= 0.70
     Davidson diagonalization with overlap

---- Real-time Memory Report at c_bands before calling an iterative solver
            74 MiB given to the printing process from OS
             0 MiB allocation reported by mallinfo(arena+hblkhd)
        240700 MiB available memory on the node where the printing process lives
------------------
     ethr =  3.18E-04,  avg # of iterations =  2.0

     total cpu time spent up to now is       11.1 secs

     total energy              =    -753.37975351 Ry
     estimated scf accuracy    <       0.04268192 Ry

     total magnetization       =     3.17 Bohr mag/cell
     absolute magnetization    =     3.44 Bohr mag/cell

     iteration #  3     ecut=   110.00 Ry     beta= 0.70
     Davidson diagonalization with overlap

---- Real-time Memory Report at c_bands before calling an iterative solver
            75 MiB given to the printing process from OS
             0 MiB allocation reported by mallinfo(arena+hblkhd)
        240690 MiB available memory on the node where the printing process lives
------------------
     ethr =  1.26E-04,  avg # of iterations =  4.4

     total cpu time spent up to now is       13.2 secs

     total energy              =    -753.45025063 Ry
     estimated scf accuracy    <       0.05694678 Ry

     total magnetization       =     3.24 Bohr mag/cell
     absolute magnetization    =     3.56 Bohr mag/cell

     iteration #  4     ecut=   110.00 Ry     beta= 0.70
     Davidson diagonalization with overlap

---- Real-time Memory Report at c_bands before calling an iterative solver
            77 MiB given to the printing process from OS
             0 MiB allocation reported by mallinfo(arena+hblkhd)
        240679 MiB available memory on the node where the printing process lives
------------------
     ethr =  1.26E-04,  avg # of iterations =  2.0

     total cpu time spent up to now is       14.6 secs

     total energy              =    -753.44998387 Ry
     estimated scf accuracy    <       0.01068666 Ry

     total magnetization       =     3.23 Bohr mag/cell
     absolute magnetization    =     3.54 Bohr mag/cell

     iteration #  5     ecut=   110.00 Ry     beta= 0.70
     Davidson diagonalization with overlap

---- Real-time Memory Report at c_bands before calling an iterative solver
            78 MiB given to the printing process from OS
             0 MiB allocation reported by mallinfo(arena+hblkhd)
        240669 MiB available memory on the node where the printing process lives
------------------
     ethr =  3.14E-05,  avg # of iterations =  4.2

     total cpu time spent up to now is       16.5 secs

     total energy              =    -753.45396487 Ry
     estimated scf accuracy    <       0.00051217 Ry

     total magnetization       =     3.22 Bohr mag/cell
     absolute magnetization    =     3.52 Bohr mag/cell

     iteration #  6     ecut=   110.00 Ry     beta= 0.70
     Davidson diagonalization with overlap

---- Real-time Memory Report at c_bands before calling an iterative solver
            79 MiB given to the printing process from OS
             0 MiB allocation reported by mallinfo(arena+hblkhd)
        240661 MiB available memory on the node where the printing process lives
------------------
     ethr =  1.51E-06,  avg # of iterations =  4.6

     total cpu time spent up to now is       18.7 secs

     total energy              =    -753.45426734 Ry
     estimated scf accuracy    <       0.00006515 Ry

     total magnetization       =     3.22 Bohr mag/cell
     absolute magnetization    =     3.53 Bohr mag/cell

     iteration #  7     ecut=   110.00 Ry     beta= 0.70
     Davidson diagonalization with overlap

---- Real-time Memory Report at c_bands before calling an iterative solver
            80 MiB given to the printing process from OS
             0 MiB allocation reported by mallinfo(arena+hblkhd)
        240653 MiB available memory on the node where the printing process lives
------------------
     ethr =  1.92E-07,  avg # of iterations =  6.4

     total cpu time spent up to now is       21.2 secs

     total energy              =    -753.45431888 Ry
     estimated scf accuracy    <       0.00001174 Ry

     total magnetization       =     3.22 Bohr mag/cell
     absolute magnetization    =     3.53 Bohr mag/cell

     iteration #  8     ecut=   110.00 Ry     beta= 0.70
     Davidson diagonalization with overlap

---- Real-time Memory Report at c_bands before calling an iterative solver
            81 MiB given to the printing process from OS
             0 MiB allocation reported by mallinfo(arena+hblkhd)
        240651 MiB available memory on the node where the printing process lives
------------------
     ethr =  3.45E-08,  avg # of iterations =  6.5

     total cpu time spent up to now is       23.7 secs

     total energy              =    -753.45432733 Ry
     estimated scf accuracy    <       0.00000245 Ry

     total magnetization       =     3.22 Bohr mag/cell
     absolute magnetization    =     3.53 Bohr mag/cell

     iteration #  9     ecut=   110.00 Ry     beta= 0.70
     Davidson diagonalization with overlap

---- Real-time Memory Report at c_bands before calling an iterative solver
            81 MiB given to the printing process from OS
             0 MiB allocation reported by mallinfo(arena+hblkhd)
        240644 MiB available memory on the node where the printing process lives
------------------
     ethr =  7.22E-09,  avg # of iterations =  5.5
 
     Magnetic moment per site  (integrated on atomic sphere of radius R)
     atom   1 (R=0.413)  charge= 15.5827  magn=  1.6823
     atom   2 (R=0.413)  charge= 15.5827  magn=  1.6823

     total cpu time spent up to now is       25.8 secs

     End of self-consistent calculation

 ------ SPIN UP ------------


          k = 0.0000 0.0000 0.0000 (  2779 PWs)   bands (ev):

   -76.7960 -76.7351 -40.2084 -39.8866 -39.8866 -39.8569 -39.8376 -39.8376
    10.1631  13.9984  16.5945  16.6874  16.6874  17.0033  17.0033  17.4068
    17.4068  18.5184  18.5184  18.9415  25.7174

     occupation numbers 
     1.0000   1.0000   1.0000   1.0000   1.0000   1.0000   1.0000   1.0000
     1.0000   1.0000   1.0000   1.0000   1.0000   1.0000   1.0000   1.0000
     1.0000   1.0000   1.0000   1.0000   0.0000

          k = 0.0000 0.0000 0.1019 (  2761 PWs)   bands (ev):

   -76.7920 -76.7392 -40.1852 -39.8833 -39.8833 -39.8807 -39.8409 -39.8409
    10.4417  13.9238  16.5231  16.6277  16.6277  16.9313  16.9313  17.5657
    17.5657  18.0135  18.4996  18.4996  27.2144

     occupation numbers 
     1.0000   1.0000   1.0000   1.0000   1.0000   1.0000   1.0000   1.0000
     1.0000   1.0000   1.0000   1.0000   1.0000   1.0000   1.0000   1.0000
     1.0000   1.0000   1.0000   1.0000   0.0000

          k = 0.0000 0.0000 0.2037 (  2804 PWs)   bands (ev):

   -76.7808 -76.7504 -40.1215 -39.9458 -39.8744 -39.8744 -39.8499 -39.8499
    11.2399  13.4723  16.3582  16.5764  16.5764  16.7224  16.7715  16.7715
    17.8860  17.8860  18.4068  18.4068  30.4090

     occupation numbers 
     1.0000   1.0000   1.0000   1.0000   1.0000   1.0000   1.0000   1.0000
     1.0000   1.0000   1.0000   1.0000   1.0000   1.0000   1.0000   1.0000
     1.0000   1.0000   1.0000   1.0000   0.0000

          k = 0.0000 0.0000-0.3056 (  2798 PWs)   bands (ev):

   -76.7656 -76.7656 -40.0340 -40.0340 -39.8621 -39.8621 -39.8621 -39.8621
    12.4010  12.4010  16.2788  16.2788  16.6286  16.6286  16.6286  16.6286
    18.1958  18.1958  18.1958  18.1958  34.2331

     occupation numbers 
     1.0000   1.0000   1.0000   1.0000   1.0000   1.0000   1.0000   1.0000
     1.0000   1.0000   1.0000   1.0000   1.0000   1.0000   1.0000   1.0000
     1.0000   1.0000   1.0000   1.0000   0.0000

          k = 0.0000 0.0962 0.0000 (  2785 PWs)   bands (ev):

   -76.7924 -76.7333 -40.2006 -39.9046 -39.8923 -39.8599 -39.8562 -39.8407
    10.4121  14.1522  16.4187  16.8076  16.8263  16.9493  17.1105  17.2223
    17.3325  17.6308  18.5487  20.1757  25.7552

     occupation numbers 
     1.0000   1.0000   1.0000   1.0000   1.0000   1.0000   1.0000   1.0000
     1.0000   1.0000   1.0000   1.0000   1.0000   1.0000   1.0000   1.0000
     1.0000   1.0000   1.0000   0.0000   0.0000

          k = 0.0000 0.0962 0.1019 (  2780 PWs)   bands (ev):

   -76.7884 -76.7373 -40.1787 -39.9009 -39.8889 -39.8885 -39.8539 -39.8441
    10.6863  14.0921  16.4183  16.6558  16.7323  16.7577  17.0326  17.2927
    17.5172  17.5785  18.5224  19.4452  27.3226

     occupation numbers 
     1.0000   1.0000   1.0000   1.0000   1.0000   1.0000   1.0000   1.0000
     1.0000   1.0000   1.0000   1.0000   1.0000   1.0000   1.0000   1.0000
     1.0000   1.0000   1.0000   0.0000   0.0000

          k = 0.0000 0.0962 0.2037 (  2779 PWs)   bands (ev):

   -76.7776 -76.7481 -40.1185 -39.9518 -39.8903 -39.8794 -39.8624 -39.8536
    11.4715  13.6680  16.2925  16.3440  16.4903  16.6733  16.8712  16.9056
    17.8579  17.9018  18.4124  18.7074  30.5648

     occupation numbers 
     1.0000   1.0000   1.0000   1.0000   1.0000   1.0000   1.0000   1.0000
     1.0000   1.0000   1.0000   1.0000   1.0000   1.0000   1.0000   1.0000
     1.0000   1.0000   1.0000   1.0000   0.0000

          k = 0.0000 0.0962-0.3056 (  2790 PWs)   bands (ev):

   -76.7629 -76.7629 -40.0356 -40.0356 -39.8762 -39.8762 -39.8665 -39.8665
    12.6140  12.6140  16.1414  16.1414  16.6278  16.6278  16.7265  16.7265
    18.1834  18.1834  18.2881  18.2881  34.4060

     occupation numbers 
     1.0000   1.0000   1.0000   1.0000   1.0000   1.0000   1.0000   1.0000
     1.0000   1.0000   1.0000   1.0000   1.0000   1.0000   1.0000   1.0000
     1.0000   1.0000   1.0000   1.0000   0.0000

          k = 0.0000 0.1925 0.0000 (  2769 PWs)   bands (ev):

   -76.7822 -76.7285 -40.1784 -39.9539 -39.9077 -39.9064 -39.8690 -39.8494
    11.1313  14.5328  16.1447  16.4074  16.7525  17.1419  17.1473  17.1493
    17.3080  17.4112  18.6124  21.8120  25.8899

     occupation numbers 
     1.0000   1.0000   1.0000   1.0000   1.0000   1.0000   1.0000   1.0000
     1.0000   1.0000   1.0000   1.0000   1.0000   1.0000   1.0000   1.0000
     1.0000   1.0000   1.0000   0.0000   0.0000

          k = 0.0000 0.1925 0.1019 (  2773 PWs)   bands (ev):

   -76.7786 -76.7321 -40.1607 -39.9485 -39.9253 -39.9038 -39.8735 -39.8533
    11.3888  14.5176  16.1272  16.1875  16.6298  16.9641  17.0221  17.2962
    17.4866  17.5647  18.5696  20.7012  27.6760

     occupation numbers 
     1.0000   1.0000   1.0000   1.0000   1.0000   1.0000   1.0000   1.0000
     1.0000   1.0000   1.0000   1.0000   1.0000   1.0000   1.0000   1.0000
     1.0000   1.0000   1.0000   0.0000   0.0000

          k = 0.0000 0.1925 0.2037 (  2774 PWs)   bands (ev):

   -76.7688 -76.7419 -40.1121 -39.9778 -39.9309 -39.8932 -39.8881 -39.8640
    12.1231  14.1737  15.7847  16.2512  16.3355  16.8429  16.9116  17.1470
    17.8261  17.9833  18.4241  19.3607  31.0315

     occupation numbers 
     1.0000   1.0000   1.0000   1.0000   1.0000   1.0000   1.0000   1.0000
     1.0000   1.0000   1.0000   1.0000   1.0000   1.0000   1.0000   1.0000
     1.0000   1.0000   1.0000   0.0000   0.0000

          k = 0.0000 0.1925-0.3056 (  2780 PWs)   bands (ev):

   -76.7554 -76.7554 -40.0453 -40.0453 -39.9094 -39.9094 -39.8786 -39.8786
    13.1859  13.1859  15.9114  15.9114  16.5568  16.5568  16.9877  16.9877
    18.1648  18.1648  18.5370  18.5370  34.8830

     occupation numbers 
     1.0000   1.0000   1.0000   1.0000   1.0000   1.0000   1.0000   1.0000
     1.0000   1.0000   1.0000   1.0000   1.0000   1.0000   1.0000   1.0000
     1.0000   1.0000   1.0000   1.0000   0.0000

          k = 0.0000 0.2887 0.0000 (  2765 PWs)   bands (ev):

   -76.7677 -76.7224 -40.1451 -40.0217 -39.9740 -39.9281 -39.8843 -39.8618
    12.2162  14.8361  15.6553  15.9787  16.6408  16.9291  17.0923  17.5965
    17.6406  17.8436  18.6711  23.6429  26.1545

     occupation numbers 
     1.0000   1.0000   1.0000   1.0000   1.0000   1.0000   1.0000   1.0000
     1.0000   1.0000   1.0000   1.0000   1.0000   1.0000   1.0000   1.0000
     1.0000   1.0000   1.0000   0.0000   0.0000

          k = 0.0000 0.2887 0.1019 (  2768 PWs)   bands (ev):

   -76.7647 -76.7254 -40.1373 -40.0113 -39.9878 -39.9237 -39.8888 -39.8662
    12.4289  14.8747  15.5102  16.0337  16.4885  16.9690  17.0862  17.6832
    17.7314  17.8006  18.6140  22.0048  28.3153

     occupation numbers 
     1.0000   1.0000   1.0000   1.0000   1.0000   1.0000   1.0000   1.0000
     1.0000   1.0000   1.0000   1.0000   1.0000   1.0000   1.0000   1.0000
     1.0000   1.0000   1.0000   0.0000   0.0000

          k = 0.0000 0.2887 0.2037 (  2770 PWs)   bands (ev):

   -76.7564 -76.7337 -40.1135 -40.0313 -39.9747 -39.9116 -39.9063 -39.8784
    13.0213  14.6172  15.4442  16.0552  16.3654  16.9203  17.0941  17.5349
    17.9530  18.1420  18.4499  20.1432  31.6937

     occupation numbers 
     1.0000   1.0000   1.0000   1.0000   1.0000   1.0000   1.0000   1.0000
     1.0000   1.0000   1.0000   1.0000   1.0000   1.0000   1.0000   1.0000
     1.0000   1.0000   1.0000   0.0000   0.0000

          k = 0.0000 0.2887-0.3056 (  2766 PWs)   bands (ev):

   -76.7451 -76.7451 -40.0754 -40.0754 -39.9376 -39.9376 -39.8950 -39.8950
    13.8433  13.8433  15.7498  15.7498  16.6189  16.6189  17.2979  17.2979
    18.2094  18.2094  18.8864  18.8864  34.0565

     occupation numbers 
     1.0000   1.0000   1.0000   1.0000   1.0000   1.0000   1.0000   1.0000
     1.0000   1.0000   1.0000   1.0000   1.0000   1.0000   1.0000   1.0000
     1.0000   1.0000   1.0000   1.0000   0.0000

          k = 0.0000 0.3849 0.0000 (  2778 PWs)   bands (ev):

   -76.7523 -76.7173 -40.1063 -40.0902 -40.0402 -39.9481 -39.9051 -39.8746
    13.3928  14.7604  15.1158  16.0932  16.7308  16.7696  16.8928  18.1683
    18.3119  18.3251  18.7098  25.6323  26.2345

     occupation numbers 
     1.0000   1.0000   1.0000   1.0000   1.0000   1.0000   1.0000   1.0000
     1.0000   1.0000   1.0000   1.0000   1.0000   1.0000   1.0000   1.0000
     1.0000   1.0000   1.0000   0.0000   0.0000

          k = 0.0000 0.3849 0.1019 (  2771 PWs)   bands (ev):

   -76.7499 -76.7196 -40.1303 -40.0638 -40.0414 -39.9432 -39.9063 -39.8795
    13.4871  14.7841  15.1581  15.9358  16.7003  16.8257  17.2505  18.1824
    18.2199  18.2609  18.6589  23.2612  28.5051

     occupation numbers 
     1.0000   1.0000   1.0000   1.0000   1.0000   1.0000   1.0000   1.0000
     1.0000   1.0000   1.0000   1.0000   1.0000   1.0000   1.0000   1.0000
     1.0000   1.0000   1.0000   0.0000   0.0000

          k = 0.0000 0.3849 0.2037 (  2769 PWs)   bands (ev):

   -76.7435 -76.7260 -40.1385 -40.0924 -39.9932 -39.9298 -39.9177 -39.8930
    13.7565  14.5926  15.3120  15.8312  16.8191  17.0930  17.5718  17.8894
    18.2917  18.3797  18.5458  21.0369  29.7123

     occupation numbers 
     1.0000   1.0000   1.0000   1.0000   1.0000   1.0000   1.0000   1.0000
     1.0000   1.0000   1.0000   1.0000   1.0000   1.0000   1.0000   1.0000
     1.0000   1.0000   1.0000   0.0000   0.0000

          k = 0.0000 0.3849-0.3056 (  2764 PWs)   bands (ev):

   -76.7348 -76.7348 -40.1235 -40.1235 -39.9474 -39.9474 -39.9114 -39.9114
    14.1595  14.1595  15.6077  15.6077  17.2473  17.2473  17.4791  17.4791
    18.4144  18.4144  19.3709  19.3709  30.8294

     occupation numbers 
     1.0000   1.0000   1.0000   1.0000   1.0000   1.0000   1.0000   1.0000
     1.0000   1.0000   1.0000   1.0000   1.0000   1.0000   1.0000   1.0000
     1.0000   1.0000   0.0000   0.0000   0.0000

          k = 0.0000 0.4811 0.0000 (  2766 PWs)   bands (ev):

   -76.7397 -76.7148 -40.1406 -40.0880 -40.0704 -39.9625 -39.9278 -39.8841
    14.1567  14.5627  14.7943  16.4626  16.5955  16.7509  16.9887  18.5648
    18.6988  18.7297  19.4871  24.4813  27.6820

     occupation numbers 
     1.0000   1.0000   1.0000   1.0000   1.0000   1.0000   1.0000   1.0000
     1.0000   1.0000   1.0000   1.0000   1.0000   1.0000   1.0000   1.0000
     1.0000   1.0000   0.0000   0.0000   0.0000

          k = 0.0000 0.4811 0.1019 (  2767 PWs)   bands (ev):

   -76.7380 -76.7165 -40.1580 -40.1053 -40.0386 -39.9572 -39.9247 -39.8894
    14.0388  14.5494  15.1231  15.8221  16.7109  16.9962  17.6198  18.4773
    18.5936  18.7585  19.3180  23.6349  27.1224

     occupation numbers 
     1.0000   1.0000   1.0000   1.0000   1.0000   1.0000   1.0000   1.0000
     1.0000   1.0000   1.0000   1.0000   1.0000   1.0000   1.0000   1.0000
     1.0000   1.0000   0.0042   0.0000   0.0000

          k = 0.0000 0.4811 0.2037 (  2778 PWs)   bands (ev):

   -76.7335 -76.7210 -40.1725 -40.1381 -39.9886 -39.9430 -39.9271 -39.9038
    13.9981  14.4747  15.2963  15.6200  17.0384  17.2662  18.0480  18.6278
    18.6427  18.7315  18.9503  21.8758  27.3067

     occupation numbers 
     1.0000   1.0000   1.0000   1.0000   1.0000   1.0000   1.0000   1.0000
     1.0000   1.0000   1.0000   1.0000   1.0000   1.0000   1.0000   1.0000
     1.0000   1.0000   1.0000   0.0000   0.0000

          k = 0.0000 0.4811-0.3056 (  2774 PWs)   bands (ev):

   -76.7272 -76.7272 -40.1649 -40.1649 -39.9482 -39.9482 -39.9234 -39.9234
    14.1815  14.1815  15.4762  15.4762  17.5190  17.5190  18.0038  18.0038
    18.6808  18.6808  20.2002  20.2002  28.0830

     occupation numbers 
     1.0000   1.0000   1.0000   1.0000   1.0000   1.0000   1.0000   1.0000
     1.0000   1.0000   1.0000   1.0000   1.0000   1.0000   1.0000   1.0000
     1.0000   1.0000   0.0000   0.0000   0.0000

          k = 0.0000-0.5774 0.0000 (  2758 PWs)   bands (ev):

   -76.7344 -76.7145 -40.1590 -40.1054 -40.0537 -39.9677 -39.9397 -39.8876
    14.4004  14.4307  14.6878  16.5476  16.6997  16.7226  17.0663  18.7084
    18.7355  18.8555  20.6686  22.7546  29.0103

     occupation numbers 
     1.0000   1.0000   1.0000   1.0000   1.0000   1.0000   1.0000   1.0000
     1.0000   1.0000   1.0000   1.0000   1.0000   1.0000   1.0000   1.0000
     1.0000   1.0000   0.0000   0.0000   0.0000

          k = 0.0000-0.5774 0.1019 (  2780 PWs)   bands (ev):

   -76.7331 -76.7158 -40.1730 -40.1219 -40.0284 -39.9624 -39.9343 -39.8930
    14.1351  14.4495  15.1559  15.7933  16.6689  17.0853  17.8325  18.5308
    18.7451  18.8477  20.4384  22.5578  28.1962

     occupation numbers 
     1.0000   1.0000   1.0000   1.0000   1.0000   1.0000   1.0000   1.0000
     1.0000   1.0000   1.0000   1.0000   1.0000   1.0000   1.0000   1.0000
     1.0000   1.0000   0.0000   0.0000   0.0000

          k = 0.0000-0.5774 0.2037 (  2758 PWs)   bands (ev):

   -76.7295 -76.7195 -40.1870 -40.1548 -39.9835 -39.9477 -39.9318 -39.9077
    14.0148  14.4281  15.3251  15.5217  17.0136  17.4136  18.0793  18.7665
    18.7672  18.8264  20.0533  21.9084  27.1794

     occupation numbers 
     1.0000   1.0000   1.0000   1.0000   1.0000   1.0000   1.0000   1.0000
     1.0000   1.0000   1.0000   1.0000   1.0000   1.0000   1.0000   1.0000
     1.0000   1.0000   0.0000   0.0000   0.0000

          k = 0.0000-0.5774-0.3056 (  2780 PWs)   bands (ev):

   -76.7245 -76.7245 -40.1808 -40.1808 -39.9477 -39.9477 -39.9278 -39.9278
    14.1629  14.1629  15.4253  15.4253  17.5205  17.5205  18.2563  18.2563
    18.7970  18.7970  20.8518  20.8518  26.8161

     occupation numbers 
     1.0000   1.0000   1.0000   1.0000   1.0000   1.0000   1.0000   1.0000
     1.0000   1.0000   1.0000   1.0000   1.0000   1.0000   1.0000   1.0000
     1.0000   1.0000   0.0000   0.0000   0.0000

          k = 0.0833 0.1443 0.0000 (  2779 PWs)   bands (ev):

   -76.7854 -76.7300 -40.1856 -39.9352 -39.9112 -39.8829 -39.8659 -39.8489
    10.8971  14.4257  16.2033  16.6646  16.8349  16.9804  17.0531  17.1099
    17.3452  17.4442  18.5844  21.3556  25.8435

     occupation numbers 
     1.0000   1.0000   1.0000   1.0000   1.0000   1.0000   1.0000   1.0000
     1.0000   1.0000   1.0000   1.0000   1.0000   1.0000   1.0000   1.0000
     1.0000   1.0000   1.0000   0.0000   0.0000

          k = 0.0833 0.1443 0.1019 (  2774 PWs)   bands (ev):

   -76.7817 -76.7337 -40.1664 -39.9302 -39.9169 -39.8973 -39.8669 -39.8526
    11.1610  14.3959  16.2331  16.3217  16.6790  16.9070  17.0012  17.2076
    17.5010  17.5667  18.5496  20.3605  27.5555

     occupation numbers 
     1.0000   1.0000   1.0000   1.0000   1.0000   1.0000   1.0000   1.0000
     1.0000   1.0000   1.0000   1.0000   1.0000   1.0000   1.0000   1.0000
     1.0000   1.0000   1.0000   0.0000   0.0000

          k = 0.0833 0.1443 0.2037 (  2780 PWs)   bands (ev):

   -76.7716 -76.7439 -40.1137 -39.9678 -39.9167 -39.8942 -39.8762 -39.8626
    11.9150  14.0256  15.9116  16.2985  16.3493  16.8215  16.8759  17.0624
    17.8570  17.9304  18.4229  19.1716  30.8789

     occupation numbers 
     1.0000   1.0000   1.0000   1.0000   1.0000   1.0000   1.0000   1.0000
     1.0000   1.0000   1.0000   1.0000   1.0000   1.0000   1.0000   1.0000
     1.0000   1.0000   1.0000   1.0000   0.0000

          k = 0.0833 0.1443-0.3056 (  2790 PWs)   bands (ev):

   -76.7577 -76.7577 -40.0411 -40.0411 -39.8995 -39.8995 -39.8753 -39.8753
    13.0103  13.0103  15.9708  15.9708  16.5594  16.5594  16.9186  16.9186
    18.1706  18.1706  18.4596  18.4596  34.7400

     occupation numbers 
     1.0000   1.0000   1.0000   1.0000   1.0000   1.0000   1.0000   1.0000
     1.0000   1.0000   1.0000   1.0000   1.0000   1.0000   1.0000   1.0000
     1.0000   1.0000   1.0000   1.0000   0.0000

          k = 0.0833 0.2406 0.0000 (  2767 PWs)   bands (ev):

   -76.7731 -76.7245 -40.1578 -39.9895 -39.9588 -39.9129 -39.8782 -39.8629
    11.8083  14.8165  15.9235  15.9296  16.6943  16.8678  17.2525  17.2910
    17.5011  17.7862  18.6269  22.9840  26.0652

     occupation numbers 
     1.0000   1.0000   1.0000   1.0000   1.0000   1.0000   1.0000   1.0000
     1.0000   1.0000   1.0000   1.0000   1.0000   1.0000   1.0000   1.0000
     1.0000   1.0000   1.0000   0.0000   0.0000

          k = 0.0833 0.2406 0.1019 (  2766 PWs)   bands (ev):

   -76.7698 -76.7278 -40.1452 -39.9823 -39.9683 -39.9169 -39.8810 -39.8667
    12.0435  14.8465  15.7143  15.9765  16.5784  16.8584  17.1042  17.4123
    17.6968  17.7638  18.5870  21.5577  28.0742

     occupation numbers 
     1.0000   1.0000   1.0000   1.0000   1.0000   1.0000   1.0000   1.0000
     1.0000   1.0000   1.0000   1.0000   1.0000   1.0000   1.0000   1.0000
     1.0000   1.0000   1.0000   0.0000   0.0000

          k = 0.0833 0.2406 0.2037 (  2764 PWs)   bands (ev):

   -76.7610 -76.7367 -40.1101 -40.0087 -39.9569 -39.9163 -39.8917 -39.8774
    12.7081  14.5594  15.5307  16.0896  16.2952  16.7349  17.0673  17.3997
    17.9478  18.0576  18.4605  19.8730  31.4946

     occupation numbers 
     1.0000   1.0000   1.0000   1.0000   1.0000   1.0000   1.0000   1.0000
     1.0000   1.0000   1.0000   1.0000   1.0000   1.0000   1.0000   1.0000
     1.0000   1.0000   1.0000   0.0000   0.0000

          k = 0.0833 0.2406-0.3056 (  2776 PWs)   bands (ev):

   -76.7488 -76.7488 -40.0604 -40.0604 -39.9296 -39.9296 -39.8907 -39.8907
    13.6556  13.6556  15.8124  15.8124  16.4453  16.4453  17.2158  17.2158
    18.2154  18.2154  18.7620  18.7620  35.1924

     occupation numbers 
     1.0000   1.0000   1.0000   1.0000   1.0000   1.0000   1.0000   1.0000
     1.0000   1.0000   1.0000   1.0000   1.0000   1.0000   1.0000   1.0000
     1.0000   1.0000   1.0000   1.0000   0.0000

          k = 0.0833 0.3368 0.0000 (  2769 PWs)   bands (ev):

   -76.7581 -76.7190 -40.1214 -40.0561 -40.0168 -39.9411 -39.8965 -39.8781
    12.9782  14.9398  15.3390  15.8565  16.6672  16.6944  17.0762  17.6888
    18.0331  18.3833  18.6618  24.8553  26.4081

     occupation numbers 
     1.0000   1.0000   1.0000   1.0000   1.0000   1.0000   1.0000   1.0000
     1.0000   1.0000   1.0000   1.0000   1.0000   1.0000   1.0000   1.0000
     1.0000   1.0000   1.0000   0.0000   0.0000

          k = 0.0833 0.3368 0.1019 (  2769 PWs)   bands (ev):

   -76.7555 -76.7216 -40.1259 -40.0423 -40.0215 -39.9406 -39.8984 -39.8815
    13.1396  14.9997  15.2485  15.9053  16.4854  16.9027  17.0414  17.7239
    18.1217  18.2381  18.6743  22.8417  28.8254

     occupation numbers 
     1.0000   1.0000   1.0000   1.0000   1.0000   1.0000   1.0000   1.0000
     1.0000   1.0000   1.0000   1.0000   1.0000   1.0000   1.0000   1.0000
     1.0000   1.0000   1.0000   0.0000   0.0000

          k = 0.0833 0.3368 0.2037 (  2768 PWs)   bands (ev):

   -76.7483 -76.7288 -40.1218 -40.0659 -39.9872 -39.9351 -39.9085 -39.8918
    13.5774  14.7381  15.3741  15.9679  16.4008  16.9010  17.1301  17.7397
    18.1822  18.3533  18.6413  20.7384  31.3447

     occupation numbers 
     1.0000   1.0000   1.0000   1.0000   1.0000   1.0000   1.0000   1.0000
     1.0000   1.0000   1.0000   1.0000   1.0000   1.0000   1.0000   1.0000
     1.0000   1.0000   1.0000   0.0000   0.0000

          k = 0.0833 0.3368-0.3056 (  2770 PWs)   bands (ev):

   -76.7386 -76.7386 -40.0997 -40.0997 -39.9484 -39.9484 -39.9072 -39.9072
    14.1661  14.1661  15.7218  15.7218  16.6324  16.6324  17.4150  17.4150
    18.4315  18.4315  19.2275  19.2275  32.5620

     occupation numbers 
     1.0000   1.0000   1.0000   1.0000   1.0000   1.0000   1.0000   1.0000
     1.0000   1.0000   1.0000   1.0000   1.0000   1.0000   1.0000   1.0000
     1.0000   1.0000   1.0000   1.0000   0.0000

          k = 0.0833 0.4330 0.0000 (  2770 PWs)   bands (ev):

   -76.7439 -76.7154 -40.1149 -40.0830 -40.0671 -39.9636 -39.9194 -39.8911
    13.9992  14.7527  14.9411  16.0952  16.5428  16.8571  16.8986  18.2408
    18.4862  18.6824  19.2119  25.8005  26.8836

     occupation numbers 
     1.0000   1.0000   1.0000   1.0000   1.0000   1.0000   1.0000   1.0000
     1.0000   1.0000   1.0000   1.0000   1.0000   1.0000   1.0000   1.0000
     1.0000   1.0000   1.0000   0.0000   0.0000

          k = 0.0833 0.4330 0.1019 (  2776 PWs)   bands (ev):

   -76.7420 -76.7173 -40.1382 -40.0865 -40.0417 -39.9601 -39.9184 -39.8942
    13.9837  14.7665  15.1074  15.8356  16.6195  16.9473  17.2071  18.1903
    18.4962  18.5474  19.2098  23.9383  27.6819

     occupation numbers 
     1.0000   1.0000   1.0000   1.0000   1.0000   1.0000   1.0000   1.0000
     1.0000   1.0000   1.0000   1.0000   1.0000   1.0000   1.0000   1.0000
     1.0000   1.0000   1.0000   0.0000   0.0000

          k = 0.0833 0.4330 0.2037 (  2773 PWs)   bands (ev):

   -76.7368 -76.7225 -40.1525 -40.1169 -39.9935 -39.9486 -39.9249 -39.9026
    14.0557  14.6313  15.3032  15.7843  16.7267  17.1756  17.6157  17.9321
    18.3698  18.7044  19.2652  21.7692  28.4277

     occupation numbers 
     1.0000   1.0000   1.0000   1.0000   1.0000   1.0000   1.0000   1.0000
     1.0000   1.0000   1.0000   1.0000   1.0000   1.0000   1.0000   1.0000
     1.0000   1.0000   0.9978   0.0000   0.0000

          k = 0.0833 0.4330-0.3056 (  2784 PWs)   bands (ev):

   -76.7296 -76.7296 -40.1438 -40.1438 -39.9568 -39.9568 -39.9189 -39.9189
    14.2972  14.2972  15.5926  15.5926  17.1768  17.1768  17.5896  17.5896
    18.6512  18.6512  20.0871  20.0871  29.4655

     occupation numbers 
     1.0000   1.0000   1.0000   1.0000   1.0000   1.0000   1.0000   1.0000
     1.0000   1.0000   1.0000   1.0000   1.0000   1.0000   1.0000   1.0000
     1.0000   1.0000   0.0000   0.0000   0.0000

          k = 0.0833 0.5292 0.0000 (  2772 PWs)   bands (ev):

   -76.7345 -76.7145 -40.1490 -40.0962 -40.0539 -39.9762 -39.9395 -39.8987
    14.4451  14.5853  14.7426  16.4745  16.5048  16.7020  17.0638  18.6432
    18.6909  18.7242  20.5125  23.5340  28.8176

     occupation numbers 
     1.0000   1.0000   1.0000   1.0000   1.0000   1.0000   1.0000   1.0000
     1.0000   1.0000   1.0000   1.0000   1.0000   1.0000   1.0000   1.0000
     1.0000   1.0000   0.0000   0.0000   0.0000

          k = 0.0833 0.5292 0.1019 (  2778 PWs)   bands (ev):

   -76.7331 -76.7158 -40.1631 -40.1131 -40.0300 -39.9695 -39.9357 -39.9019
    14.2209  14.5874  15.1945  15.7767  16.5517  17.1358  17.4870  18.4713
    18.6605  18.7547  20.4341  23.2425  27.6245

     occupation numbers 
     1.0000   1.0000   1.0000   1.0000   1.0000   1.0000   1.0000   1.0000
     1.0000   1.0000   1.0000   1.0000   1.0000   1.0000   1.0000   1.0000
     1.0000   1.0000   0.0000   0.0000   0.0000

          k = 0.0833 0.5292 0.2037 (  2779 PWs)   bands (ev):

   -76.7295 -76.7195 -40.1773 -40.1459 -39.9915 -39.9506 -39.9389 -39.9089
    14.1235  14.5607  15.3342  15.6360  16.7265  17.4866  17.9050  18.1847
    18.6194  18.8219  20.4493  22.3332  26.9523

     occupation numbers 
     1.0000   1.0000   1.0000   1.0000   1.0000   1.0000   1.0000   1.0000
     1.0000   1.0000   1.0000   1.0000   1.0000   1.0000   1.0000   1.0000
     1.0000   1.0000   0.0000   0.0000   0.0000

          k = 0.0833 0.5292-0.3056 (  2766 PWs)   bands (ev):

   -76.7245 -76.7245 -40.1714 -40.1714 -39.9613 -39.9613 -39.9237 -39.9237
    14.2813  14.2813  15.5025  15.5025  17.2887  17.2887  18.0357  18.0357
    18.6940  18.6940  21.1828  21.1828  27.2347

     occupation numbers 
     1.0000   1.0000   1.0000   1.0000   1.0000   1.0000   1.0000   1.0000
     1.0000   1.0000   1.0000   1.0000   1.0000   1.0000   1.0000   1.0000
     1.0000   1.0000   0.0000   0.0000   0.0000

          k = 0.1667 0.2887 0.0000 (  2768 PWs)   bands (ev):

   -76.7602 -76.7197 -40.1267 -40.0294 -40.0199 -39.9333 -39.8937 -39.8871
    12.8323  15.1348  15.4574  15.6151  16.5868  16.6995  17.1843  17.4273
    18.0188  18.4087  18.6186  24.5935  26.4506

     occupation numbers 
     1.0000   1.0000   1.0000   1.0000   1.0000   1.0000   1.0000   1.0000
     1.0000   1.0000   1.0000   1.0000   1.0000   1.0000   1.0000   1.0000
     1.0000   1.0000   1.0000   0.0000   0.0000

          k = 0.1667 0.2887 0.1019 (  2770 PWs)   bands (ev):

   -76.7575 -76.7224 -40.1256 -40.0279 -40.0133 -39.9410 -39.8912 -39.8912
    13.0166  15.2309  15.3094  15.6705  16.5400  16.7095  17.0690  17.5319
    18.1377  18.2273  18.6874  22.7040  28.8110

     occupation numbers 
     1.0000   1.0000   1.0000   1.0000   1.0000   1.0000   1.0000   1.0000
     1.0000   1.0000   1.0000   1.0000   1.0000   1.0000   1.0000   1.0000
     1.0000   1.0000   1.0000   0.0000   0.0000

          k = 0.1667 0.2887 0.2037 (  2773 PWs)   bands (ev):

   -76.7501 -76.7298 -40.1147 -40.0543 -39.9784 -39.9453 -39.9012 -39.8965
    13.5218  14.8630  15.4935  15.8287  16.3402  16.5709  17.0743  17.6737
    18.1857  18.3419  18.7196  20.6637  32.2004

     occupation numbers 
     1.0000   1.0000   1.0000   1.0000   1.0000   1.0000   1.0000   1.0000
     1.0000   1.0000   1.0000   1.0000   1.0000   1.0000   1.0000   1.0000
     1.0000   1.0000   1.0000   0.0000   0.0000

          k = 0.1667 0.2887-0.3056 (  2770 PWs)   bands (ev):

   -76.7399 -76.7399 -40.0886 -40.0886 -39.9497 -39.9497 -39.9070 -39.9070
    14.2055  14.2055  15.8210  15.8210  16.2837  16.2837  17.3604  17.3604
    18.4832  18.4832  19.2094  19.2094  34.2872

     occupation numbers 
     1.0000   1.0000   1.0000   1.0000   1.0000   1.0000   1.0000   1.0000
     1.0000   1.0000   1.0000   1.0000   1.0000   1.0000   1.0000   1.0000
     1.0000   1.0000   1.0000   1.0000   0.0000

          k = 0.1667 0.3849 0.0000 (  2779 PWs)   bands (ev):

   -76.7462 -76.7158 -40.0898 -40.0816 -40.0584 -39.9643 -39.9150 -39.9105
    13.9511  15.0911  15.1111  15.5948  16.4170  16.8467  16.9739  17.7610
    18.4814  18.6076  19.2517  26.4853  26.8588

     occupation numbers 
     1.0000   1.0000   1.0000   1.0000   1.0000   1.0000   1.0000   1.0000
     1.0000   1.0000   1.0000   1.0000   1.0000   1.0000   1.0000   1.0000
     1.0000   1.0000   1.0000   0.0000   0.0000

          k = 0.1667 0.3849 0.1019 (  2769 PWs)   bands (ev):

   -76.7442 -76.7178 -40.1178 -40.0769 -40.0313 -39.9705 -39.9179 -39.9051
    14.0233  15.0229  15.2097  15.6784  16.4592  16.8429  16.9276  17.8051
    18.3922  18.5715  19.3345  24.0185  29.1119

     occupation numbers 
     1.0000   1.0000   1.0000   1.0000   1.0000   1.0000   1.0000   1.0000
     1.0000   1.0000   1.0000   1.0000   1.0000   1.0000   1.0000   1.0000
     1.0000   1.0000   0.0000   0.0000   0.0000

          k = 0.1667 0.3849 0.2037 (  2776 PWs)   bands (ev):

   -76.7386 -76.7234 -40.1312 -40.0989 -39.9908 -39.9695 -39.9254 -39.9037
    14.2247  14.8157  15.4611  15.9090  16.3675  16.6801  17.0759  17.7929
    18.2968  18.7250  19.5110  21.7974  30.1515

     occupation numbers 
     1.0000   1.0000   1.0000   1.0000   1.0000   1.0000   1.0000   1.0000
     1.0000   1.0000   1.0000   1.0000   1.0000   1.0000   1.0000   1.0000
     1.0000   1.0000   0.0000   0.0000   0.0000

          k = 0.1667 0.3849-0.3056 (  2782 PWs)   bands (ev):

   -76.7310 -76.7310 -40.1226 -40.1226 -39.9700 -39.9700 -39.9172 -39.9172
    14.5139  14.5139  15.8075  15.8075  16.4555  16.4555  17.3666  17.3666
    18.7041  18.7041  20.1945  20.1945  31.2972

     occupation numbers 
     1.0000   1.0000   1.0000   1.0000   1.0000   1.0000   1.0000   1.0000
     1.0000   1.0000   1.0000   1.0000   1.0000   1.0000   1.0000   1.0000
     1.0000   1.0000   0.0000   0.0000   0.0000

          k = 0.1667 0.4811 0.0000 (  2778 PWs)   bands (ev):

   -76.7345 -76.7144 -40.1229 -40.0784 -40.0543 -39.9930 -39.9390 -39.9265
    14.6503  14.8666  14.8979  15.9208  16.3744  16.7401  17.0591  18.2056
    18.5990  18.7038  20.4618  25.2211  28.5325

     occupation numbers 
     1.0000   1.0000   1.0000   1.0000   1.0000   1.0000   1.0000   1.0000
     1.0000   1.0000   1.0000   1.0000   1.0000   1.0000   1.0000   1.0000
     1.0000   1.0000   0.0000   0.0000   0.0000

          k = 0.1667 0.4811 0.1019 (  2782 PWs)   bands (ev):

   -76.7332 -76.7158 -40.1372 -40.0978 -40.0305 -39.9877 -39.9418 -39.9189
    14.4744  14.9527  15.1545  15.7226  16.4241  16.8817  17.1472  18.1934
    18.4015  18.7664  20.5403  24.6046  27.4569

     occupation numbers 
     1.0000   1.0000   1.0000   1.0000   1.0000   1.0000   1.0000   1.0000
     1.0000   1.0000   1.0000   1.0000   1.0000   1.0000   1.0000   1.0000
     1.0000   1.0000   0.0000   0.0000   0.0000

          k = 0.1667 0.4811 0.2037 (  2772 PWs)   bands (ev):

   -76.7295 -76.7194 -40.1529 -40.1270 -40.0081 -39.9727 -39.9422 -39.9109
    14.4248  14.8689  15.3543  15.9041  16.3147  17.0174  17.3890  17.8779
    18.3929  18.8434  20.8403  23.0410  27.5800

     occupation numbers 
     1.0000   1.0000   1.0000   1.0000   1.0000   1.0000   1.0000   1.0000
     1.0000   1.0000   1.0000   1.0000   1.0000   1.0000   1.0000   1.0000
     1.0000   1.0000   0.0000   0.0000   0.0000

          k = 0.1667 0.4811-0.3056 (  2780 PWs)   bands (ev):

   -76.7245 -76.7245 -40.1493 -40.1493 -39.9872 -39.9872 -39.9202 -39.9202
    14.5808  14.5808  15.6985  15.6985  16.7322  16.7322  17.5569  17.5569
    18.7083  18.7083  21.6348  21.6348  28.4558

     occupation numbers 
     1.0000   1.0000   1.0000   1.0000   1.0000   1.0000   1.0000   1.0000
     1.0000   1.0000   1.0000   1.0000   1.0000   1.0000   1.0000   1.0000
     1.0000   1.0000   0.0000   0.0000   0.0000

          k = 0.1667 0.5774 0.0000 (  2786 PWs)   bands (ev):

   -76.7294 -76.7148 -40.1378 -40.0848 -40.0364 -40.0047 -39.9528 -39.9322
    14.7916  14.7917  14.8247  16.1518  16.4053  16.6085  17.1503  18.5089
    18.5956  18.6707  21.7359  23.3774  29.9161

     occupation numbers 
     1.0000   1.0000   1.0000   1.0000   1.0000   1.0000   1.0000   1.0000
     1.0000   1.0000   1.0000   1.0000   1.0000   1.0000   1.0000   1.0000
     1.0000   1.0000   0.0000   0.0000   0.0000

          k = 0.1667 0.5774 0.1019 (  2779 PWs)   bands (ev):

   -76.7284 -76.7158 -40.1491 -40.1026 -40.0320 -39.9837 -39.9562 -39.9249
    14.4922  14.8653  15.3245  15.7027  16.3430  17.0066  17.2446  18.3736
    18.5061  18.7218  21.8242  23.3131  28.7262

     occupation numbers 
     1.0000   1.0000   1.0000   1.0000   1.0000   1.0000   1.0000   1.0000
     1.0000   1.0000   1.0000   1.0000   1.0000   1.0000   1.0000   1.0000
     1.0000   1.0000   0.0000   0.0000   0.0000

          k = 0.1667 0.5774 0.2037 (  2778 PWs)   bands (ev):

   -76.7257 -76.7184 -40.1630 -40.1357 -40.0165 -39.9715 -39.9470 -39.9145
    14.4189  14.8794  15.3950  15.8558  16.2295  17.2220  17.5222  17.9494
    18.5250  18.7627  22.1090  23.0720  27.4807

     occupation numbers 
     1.0000   1.0000   1.0000   1.0000   1.0000   1.0000   1.0000   1.0000
     1.0000   1.0000   1.0000   1.0000   1.0000   1.0000   1.0000   1.0000
     1.0000   1.0000   0.0000   0.0000   0.0000

          k = 0.1667 0.5774-0.3056 (  2764 PWs)   bands (ev):

   -76.7221 -76.7221 -40.1593 -40.1593 -39.9940 -39.9940 -39.9206 -39.9206
    14.5830  14.5830  15.6565  15.6565  16.7725  16.7725  17.7704  17.7704
    18.6433  18.6433  22.6026  22.6026  27.0152

     occupation numbers 
     1.0000   1.0000   1.0000   1.0000   1.0000   1.0000   1.0000   1.0000
     1.0000   1.0000   1.0000   1.0000   1.0000   1.0000   1.0000   1.0000
     1.0000   1.0000   0.0000   0.0000   0.0000

          k = 0.2500 0.4330 0.0000 (  2780 PWs)   bands (ev):

   -76.7346 -76.7144 -40.1002 -40.0780 -40.0546 -39.9958 -39.9472 -39.9388
    14.7989  14.9386  15.3270  15.3535  16.2941  16.7661  17.0669  17.9514
    18.5515  18.7062  20.4792  26.9710  27.8247

     occupation numbers 
     1.0000   1.0000   1.0000   1.0000   1.0000   1.0000   1.0000   1.0000
     1.0000   1.0000   1.0000   1.0000   1.0000   1.0000   1.0000   1.0000
     1.0000   1.0000   0.0000   0.0000   0.0000

          k = 0.2500 0.4330 0.1019 (  2775 PWs)   bands (ev):

   -76.7332 -76.7157 -40.1102 -40.1045 -40.0167 -40.0087 -39.9497 -39.9244
    14.7962  14.8892  15.3650  15.5091  16.4472  16.6115  17.0696  17.9968
    18.3430  18.7732  20.6012  25.3634  28.1059

     occupation numbers 
     1.0000   1.0000   1.0000   1.0000   1.0000   1.0000   1.0000   1.0000
     1.0000   1.0000   1.0000   1.0000   1.0000   1.0000   1.0000   1.0000
     1.0000   1.0000   0.0000   0.0000   0.0000

          k = 0.2500 0.4330 0.2037 (  2766 PWs)   bands (ev):

   -76.7295 -76.7194 -40.1339 -40.1201 -40.0140 -39.9921 -39.9422 -39.9117
    14.7795  14.8320  15.5365  15.8982  16.2722  16.5563  17.1186  17.7817
    18.3588  18.8517  20.9693  23.3254  28.8824

     occupation numbers 
     1.0000   1.0000   1.0000   1.0000   1.0000   1.0000   1.0000   1.0000
     1.0000   1.0000   1.0000   1.0000   1.0000   1.0000   1.0000   1.0000
     1.0000   1.0000   0.0000   0.0000   0.0000

          k = 0.2500 0.4330-0.3056 (  2766 PWs)   bands (ev):

   -76.7245 -76.7245 -40.1355 -40.1355 -40.0023 -40.0023 -39.9192 -39.9192
    14.7909  14.7909  15.8647  15.8647  16.3371  16.3371  17.3421  17.3421
    18.7290  18.7290  21.8044  21.8044  29.9018

     occupation numbers 
     1.0000   1.0000   1.0000   1.0000   1.0000   1.0000   1.0000   1.0000
     1.0000   1.0000   1.0000   1.0000   1.0000   1.0000   1.0000   1.0000
     1.0000   1.0000   0.0000   0.0000   0.0000

          k = 0.2500 0.5292 0.0000 (  2791 PWs)   bands (ev):

   -76.7259 -76.7155 -40.1139 -40.0687 -40.0290 -40.0232 -39.9709 -39.9636
    14.8702  15.0895  15.1779  15.6927  16.3116  16.5475  17.2424  18.2497
    18.5186  18.6320  22.1688  24.7954  27.1606

     occupation numbers 
     1.0000   1.0000   1.0000   1.0000   1.0000   1.0000   1.0000   1.0000
     1.0000   1.0000   1.0000   1.0000   1.0000   1.0000   1.0000   1.0000
     1.0000   1.0000   0.0000   0.0000   0.0000

          k = 0.2500 0.5292 0.1019 (  2778 PWs)   bands (ev):

   -76.7252 -76.7162 -40.1202 -40.0914 -40.0474 -39.9945 -39.9740 -39.9416
    14.8148  15.2105  15.3028  15.5831  16.3355  16.5517  17.2566  18.2556
    18.3205  18.6798  22.3537  24.7962  27.1738

     occupation numbers 
     1.0000   1.0000   1.0000   1.0000   1.0000   1.0000   1.0000   1.0000
     1.0000   1.0000   1.0000   1.0000   1.0000   1.0000   1.0000   1.0000
     1.0000   1.0000   0.0000   0.0000   0.0000

          k = 0.2500 0.5292 0.2037 (  2769 PWs)   bands (ev):

   -76.7233 -76.7181 -40.1356 -40.1203 -40.0466 -40.0049 -39.9413 -39.9198
    14.8295  15.1955  15.4610  15.7794  16.1847  16.5737  17.3165  17.8034
    18.4378  18.7270  22.8424  24.4529  27.0937

     occupation numbers 
     1.0000   1.0000   1.0000   1.0000   1.0000   1.0000   1.0000   1.0000
     1.0000   1.0000   1.0000   1.0000   1.0000   1.0000   1.0000   1.0000
     1.0000   1.0000   0.0000   0.0000   0.0000

          k = 0.2500 0.5292-0.3056 (  2754 PWs)   bands (ev):

   -76.7207 -76.7207 -40.1381 -40.1381 -40.0274 -40.0274 -39.9187 -39.9187
    14.9690  14.9690  15.7604  15.7604  16.3408  16.3408  17.4556  17.4556
    18.6363  18.6363  23.6007  23.6007  27.6441

     occupation numbers 
     1.0000   1.0000   1.0000   1.0000   1.0000   1.0000   1.0000   1.0000
     1.0000   1.0000   1.0000   1.0000   1.0000   1.0000   1.0000   1.0000
     1.0000   1.0000   0.0000   0.0000   0.0000

          k = 0.3333 0.5774 0.0000 (  2802 PWs)   bands (ev):

   -76.7193 -76.7193 -40.1021 -40.0519 -40.0519 -39.9991 -39.9922 -39.9922
    14.8852  15.2938  15.2938  15.5590  16.3766  16.3766  17.3449  18.4067
    18.4067  18.4866  23.9219  24.8091  24.8091

     occupation numbers 
     1.0000   1.0000   1.0000   1.0000   1.0000   1.0000   1.0000   1.0000
     1.0000   1.0000   1.0000   1.0000   1.0000   1.0000   1.0000   1.0000
     1.0000   1.0000   0.0000   0.0000   0.0000

          k = 0.3333 0.5774 0.1019 (  2781 PWs)   bands (ev):

   -76.7193 -76.7193 -40.0952 -40.0800 -40.0800 -40.0061 -39.9639 -39.9639
    14.9815  15.3117  15.3117  15.5769  16.3508  16.3508  17.3189  18.2509
    18.4539  18.4539  24.3221  24.8735  24.8735

     occupation numbers 
     1.0000   1.0000   1.0000   1.0000   1.0000   1.0000   1.0000   1.0000
     1.0000   1.0000   1.0000   1.0000   1.0000   1.0000   1.0000   1.0000
     1.0000   1.0000   0.0000   0.0000   0.0000

          k = 0.3333 0.5774 0.2037 (  2772 PWs)   bands (ev):

   -76.7193 -76.7193 -40.1130 -40.1130 -40.0764 -40.0250 -39.9306 -39.9306
    15.2267  15.3454  15.3454  15.5877  16.3060  16.3060  17.2882  17.7659
    18.5445  18.5445  25.0321  25.0321  25.3482

     occupation numbers 
     1.0000   1.0000   1.0000   1.0000   1.0000   1.0000   1.0000   1.0000
     1.0000   1.0000   1.0000   1.0000   1.0000   1.0000   1.0000   1.0000
     1.0000   1.0000   0.0000   0.0000   0.0000

          k = 0.3333 0.5774-0.3056 (  2760 PWs)   bands (ev):

   -76.7193 -76.7193 -40.1256 -40.1256 -40.0507 -40.0507 -39.9179 -39.9179
    15.3610  15.3610  15.4806  15.4806  16.2871  16.2871  17.3956  17.3956
    18.5882  18.5882  25.1330  25.1330  26.7599

     occupation numbers 
     1.0000   1.0000   1.0000   1.0000   1.0000   1.0000   1.0000   1.0000
     1.0000   1.0000   1.0000   1.0000   1.0000   1.0000   1.0000   1.0000
     1.0000   1.0000   0.0000   0.0000   0.0000

 ------ SPIN DOWN ----------


          k = 0.0000 0.0000 0.0000 (  2779 PWs)   bands (ev):

   -74.7330 -74.6675 -38.2122 -37.8785 -37.8785 -37.8296 -37.8259 -37.8259
    10.1663  14.9262  18.2218  18.3309  18.3309  18.7006  18.7006  18.8903
    19.2058  19.2058  20.4376  20.4376  26.7666

     occupation numbers 
     1.0000   1.0000   1.0000   1.0000   1.0000   1.0000   1.0000   1.0000
     1.0000   1.0000   1.0000   1.0000   1.0000   1.0000   1.0000   1.0000
     1.0000   1.0000   0.0000   0.0000   0.0000

          k = 0.0000 0.0000 0.1019 (  2761 PWs)   bands (ev):

   -74.7287 -74.6719 -38.1870 -37.8750 -37.8750 -37.8556 -37.8294 -37.8294
    10.4464  14.6942  18.1286  18.2704  18.2704  18.3164  18.6190  18.6190
    19.3784  19.3784  20.4187  20.4187  28.0672

     occupation numbers 
     1.0000   1.0000   1.0000   1.0000   1.0000   1.0000   1.0000   1.0000
     1.0000   1.0000   1.0000   1.0000   1.0000   1.0000   1.0000   1.0000
     0.0000   0.0000   0.0000   0.0000   0.0000

          k = 0.0000 0.0000 0.2037 (  2804 PWs)   bands (ev):

   -74.7167 -74.6840 -38.1177 -37.9264 -37.8654 -37.8654 -37.8391 -37.8391
    11.2555  13.8141  17.6825  17.8929  18.2182  18.2182  18.4389  18.4389
    19.7345  19.7345  20.3180  20.3180  31.0284

     occupation numbers 
     1.0000   1.0000   1.0000   1.0000   1.0000   1.0000   1.0000   1.0000
     1.0000   1.0000   1.0000   1.0000   1.0000   1.0000   1.0000   1.0000
     0.0000   0.0000   0.0000   0.0000   0.0000

          k = 0.0000 0.0000-0.3056 (  2798 PWs)   bands (ev):

   -74.7004 -74.7004 -38.0225 -38.0225 -37.8522 -37.8522 -37.8522 -37.8522
    12.4780  12.4780  17.6526  17.6526  18.2782  18.2782  18.2782  18.2782
    20.0824  20.0824  20.0824  20.0824  34.6717

     occupation numbers 
     1.0000   1.0000   1.0000   1.0000   1.0000   1.0000   1.0000   1.0000
     1.0000   1.0000   1.0000   1.0000   1.0000   1.0000   1.0000   1.0000
     0.0000   0.0000   0.0000   0.0000   0.0000

          k = 0.0000 0.0962 0.0000 (  2785 PWs)   bands (ev):

   -74.7291 -74.6656 -38.2037 -37.8980 -37.8847 -37.8461 -37.8328 -37.8292
    10.4165  15.1004  18.0105  18.2904  18.4629  18.4854  18.6286  18.8184
    19.1187  19.1221  20.4738  21.2662  26.7813

     occupation numbers 
     1.0000   1.0000   1.0000   1.0000   1.0000   1.0000   1.0000   1.0000
     1.0000   1.0000   1.0000   1.0000   1.0000   1.0000   1.0000   1.0000
     1.0000   1.0000   0.0000   0.0000   0.0000

[...]
    20.6117  20.6386  21.8456  24.4408  29.3288

     occupation numbers 
     1.0000   1.0000   1.0000   1.0000   1.0000   1.0000   1.0000   1.0000
     1.0000   1.0000   1.0000   1.0000   1.0000   1.0000   1.0000   0.0000
     0.0000   0.0000   0.0000   0.0000   0.0000

          k = 0.0833 0.5292 0.1019 (  2778 PWs)   bands (ev):

   -74.6654 -74.6468 -38.1777 -38.1238 -38.0199 -37.9675 -37.9176 -37.8935
    15.1530  15.7490  16.3227  16.9003  18.1695  18.6703  18.7073  20.3713
    20.5378  20.6501  21.7031  24.0783  28.3447

     occupation numbers 
     1.0000   1.0000   1.0000   1.0000   1.0000   1.0000   1.0000   1.0000
     1.0000   1.0000   1.0000   1.0000   1.0000   1.0000   1.0000   0.0000
     0.0000   0.0000   0.0000   0.0000   0.0000

          k = 0.0833 0.5292 0.2037 (  2779 PWs)   bands (ev):

   -74.6615 -74.6508 -38.1916 -38.1581 -37.9823 -37.9435 -37.9273 -37.8968
    15.1147  15.5948  16.6276  16.9424  18.2169  19.0094  19.2135  19.9002
    20.4902  20.7326  21.4806  23.1021  27.8452

     occupation numbers 
     1.0000   1.0000   1.0000   1.0000   1.0000   1.0000   1.0000   1.0000
     1.0000   1.0000   1.0000   1.0000   1.0000   1.0000   1.0000   0.0000
     0.0000   0.0000   0.0000   0.0000   0.0000

          k = 0.0833 0.5292-0.3056 (  2766 PWs)   bands (ev):

   -74.6561 -74.6561 -38.1851 -38.1851 -37.9524 -37.9524 -37.9123 -37.9123
    15.2900  15.2900  16.8829  16.8829  18.7419  18.7419  19.5429  19.5429
    20.5791  20.5791  22.0212  22.0212  28.1094

     occupation numbers 
     1.0000   1.0000   1.0000   1.0000   1.0000   1.0000   1.0000   1.0000
     1.0000   1.0000   1.0000   1.0000   1.0000   1.0000   0.0000   0.0000
     0.0000   0.0000   0.0000   0.0000   0.0000

          k = 0.1667 0.2887 0.0000 (  2768 PWs)   bands (ev):

   -74.6945 -74.6510 -38.1227 -38.0338 -38.0242 -37.9292 -37.8793 -37.8692
    12.9066  16.2980  16.5918  16.9881  18.2234  18.2428  18.8264  19.1558
    19.7929  20.1638  20.5556  25.3817  27.2063

     occupation numbers 
     1.0000   1.0000   1.0000   1.0000   1.0000   1.0000   1.0000   1.0000
     1.0000   1.0000   1.0000   1.0000   1.0000   1.0000   1.0000   1.0000
     0.0000   0.0000   0.0000   0.0000   0.0000

          k = 0.1667 0.2887 0.1019 (  2770 PWs)   bands (ev):

   -74.6916 -74.6539 -38.1241 -38.0318 -38.0138 -37.9353 -37.8838 -37.8698
    13.1176  16.2101  16.5134  17.0563  18.1161  18.2676  18.7198  19.2689
    19.9235  20.0306  20.5681  23.7188  29.4103

     occupation numbers 
     1.0000   1.0000   1.0000   1.0000   1.0000   1.0000   1.0000   1.0000
     1.0000   1.0000   1.0000   1.0000   1.0000   1.0000   1.0000   0.9932
     0.0000   0.0000   0.0000   0.0000   0.0000

          k = 0.1667 0.2887 0.2037 (  2773 PWs)   bands (ev):

   -74.6836 -74.6619 -38.1161 -38.0573 -37.9723 -37.9385 -37.8944 -37.8803
    13.7154  15.5186  16.7796  17.2310  17.8307  18.1025  18.7754  19.3894
    20.0127  20.1549  20.5239  21.9740  32.6842

     occupation numbers 
     1.0000   1.0000   1.0000   1.0000   1.0000   1.0000   1.0000   1.0000
     1.0000   1.0000   1.0000   1.0000   1.0000   1.0000   1.0000   0.0000
     0.0000   0.0000   0.0000   0.0000   0.0000

          k = 0.1667 0.2887-0.3056 (  2770 PWs)   bands (ev):

   -74.6727 -74.6727 -38.0912 -38.0912 -37.9405 -37.9405 -37.8979 -37.8979
    14.5854  14.5854  17.1658  17.1658  17.7828  17.7828  19.0893  19.0893
    20.3480  20.3480  20.7622  20.7622  34.7078

     occupation numbers 
     1.0000   1.0000   1.0000   1.0000   1.0000   1.0000   1.0000   1.0000
     1.0000   1.0000   1.0000   1.0000   1.0000   1.0000   1.0000   1.0000
     0.0000   0.0000   0.0000   0.0000   0.0000

          k = 0.1667 0.3849 0.0000 (  2779 PWs)   bands (ev):

   -74.6795 -74.6468 -38.0911 -38.0824 -38.0655 -37.9628 -37.9046 -37.8922
    14.1798  16.2871  16.3627  16.8075  18.0078  18.3816  18.5735  19.5218
    20.3195  20.5428  20.9300  27.1858  27.4747

     occupation numbers 
     1.0000   1.0000   1.0000   1.0000   1.0000   1.0000   1.0000   1.0000
     1.0000   1.0000   1.0000   1.0000   1.0000   1.0000   1.0000   0.0000
     0.0000   0.0000   0.0000   0.0000   0.0000

          k = 0.1667 0.3849 0.1019 (  2769 PWs)   bands (ev):

   -74.6773 -74.6490 -38.1220 -38.0844 -38.0277 -37.9676 -37.9107 -37.8861
    14.3221  16.1499  16.4667  16.9133  17.9708  18.3607  18.5268  19.5745
    20.2753  20.4244  21.0328  24.8385  29.7225

     occupation numbers 
     1.0000   1.0000   1.0000   1.0000   1.0000   1.0000   1.0000   1.0000
     1.0000   1.0000   1.0000   1.0000   1.0000   1.0000   1.0000   0.0000
     0.0000   0.0000   0.0000   0.0000   0.0000

          k = 0.1667 0.3849 0.2037 (  2776 PWs)   bands (ev):

   -74.6713 -74.6550 -38.1380 -38.1067 -37.9839 -37.9641 -37.9190 -37.8869
    14.7123  15.7747  16.7531  17.1321  17.8186  18.0839  18.7230  19.5662
    20.1223  20.6128  21.1167  22.8215  30.7481

     occupation numbers 
     1.0000   1.0000   1.0000   1.0000   1.0000   1.0000   1.0000   1.0000
     1.0000   1.0000   1.0000   1.0000   1.0000   1.0000   1.0000   0.0000
     0.0000   0.0000   0.0000   0.0000   0.0000

          k = 0.1667 0.3849-0.3056 (  2782 PWs)   bands (ev):

   -74.6632 -74.6632 -38.1303 -38.1303 -37.9639 -37.9639 -37.9051 -37.9051
    15.2461  15.2461  17.1047  17.1047  17.8005  17.8005  19.1026  19.1026
    20.6016  20.6016  21.4741  21.4741  31.8530

     occupation numbers 
     1.0000   1.0000   1.0000   1.0000   1.0000   1.0000   1.0000   1.0000
     1.0000   1.0000   1.0000   1.0000   1.0000   1.0000   1.0000   1.0000
     0.0000   0.0000   0.0000   0.0000   0.0000

          k = 0.1667 0.4811 0.0000 (  2778 PWs)   bands (ev):

   -74.6669 -74.6453 -38.1360 -38.0872 -38.0437 -37.9940 -37.9219 -37.9183
    15.2801  16.1105  16.1257  16.8840  17.9452  18.2886  18.6272  20.0100
    20.5327  20.5827  21.8857  25.9560  29.1263

     occupation numbers 
     1.0000   1.0000   1.0000   1.0000   1.0000   1.0000   1.0000   1.0000
     1.0000   1.0000   1.0000   1.0000   1.0000   1.0000   1.0000   0.0000
     0.0000   0.0000   0.0000   0.0000   0.0000

          k = 0.1667 0.4811 0.1019 (  2782 PWs)   bands (ev):

   -74.6655 -74.6468 -38.1489 -38.1064 -38.0239 -37.9846 -37.9335 -37.9035
    15.2793  16.0709  16.3031  16.9054  17.9569  18.2649  18.7123  20.0067
    20.2928  20.6592  21.9348  25.2902  28.2132

     occupation numbers 
     1.0000   1.0000   1.0000   1.0000   1.0000   1.0000   1.0000   1.0000
     1.0000   1.0000   1.0000   1.0000   1.0000   1.0000   1.0000   0.0000
     0.0000   0.0000   0.0000   0.0000   0.0000

          k = 0.1667 0.4811 0.2037 (  2772 PWs)   bands (ev):

   -74.6615 -74.6507 -38.1643 -38.1370 -38.0052 -37.9662 -37.9332 -37.8945
    15.3593  15.8721  16.6403  17.1684  17.7783  18.2513  18.9527  19.6845
    20.2364  20.7582  22.0843  23.8089  28.3753

     occupation numbers 
     1.0000   1.0000   1.0000   1.0000   1.0000   1.0000   1.0000   1.0000
     1.0000   1.0000   1.0000   1.0000   1.0000   1.0000   1.0000   0.0000
     0.0000   0.0000   0.0000   0.0000   0.0000

          k = 0.1667 0.4811-0.3056 (  2780 PWs)   bands (ev):

   -74.6561 -74.6561 -38.1605 -38.1605 -37.9839 -37.9839 -37.9058 -37.9058
    15.5761  15.5761  17.0539  17.0539  17.9813  17.9813  19.2409  19.2409
    20.5929  20.5929  22.6173  22.6173  29.1846

     occupation numbers 
     1.0000   1.0000   1.0000   1.0000   1.0000   1.0000   1.0000   1.0000
     1.0000   1.0000   1.0000   1.0000   1.0000   1.0000   1.0000   1.0000
     0.0000   0.0000   0.0000   0.0000   0.0000

          k = 0.1667 0.5774 0.0000 (  2786 PWs)   bands (ev):

   -74.6614 -74.6457 -38.1522 -38.0941 -38.0241 -38.0067 -37.9332 -37.9280
    15.7304  15.9818  16.0536  16.9684  18.0052  18.1007  18.7367  20.3544
    20.5287  20.5518  22.8203  24.3742  30.3342

     occupation numbers 
     1.0000   1.0000   1.0000   1.0000   1.0000   1.0000   1.0000   1.0000
     1.0000   1.0000   1.0000   1.0000   1.0000   1.0000   1.0000   0.0000
     0.0000   0.0000   0.0000   0.0000   0.0000

          k = 0.1667 0.5774 0.1019 (  2779 PWs)   bands (ev):

   -74.6604 -74.6468 -38.1627 -38.1121 -38.0276 -37.9774 -37.9465 -37.9118
    15.5483  16.0290  16.4605  16.7625  17.9130  18.3016  18.8310  20.2655
    20.3540  20.6136  22.8446  24.2647  29.3279

     occupation numbers 
     1.0000   1.0000   1.0000   1.0000   1.0000   1.0000   1.0000   1.0000
     1.0000   1.0000   1.0000   1.0000   1.0000   1.0000   1.0000   0.0000
     0.0000   0.0000   0.0000   0.0000   0.0000

          k = 0.1667 0.5774 0.2037 (  2778 PWs)   bands (ev):

   -74.6575 -74.6496 -38.1760 -38.1465 -38.0149 -37.9667 -37.9350 -37.8987
    15.4937  15.9326  16.7123  17.0808  17.6872  18.4339  19.1074  19.7554
    20.3851  20.6637  22.9650  23.9085  28.2635

     occupation numbers 
     1.0000   1.0000   1.0000   1.0000   1.0000   1.0000   1.0000   1.0000
     1.0000   1.0000   1.0000   1.0000   1.0000   1.0000   1.0000   0.0000
     0.0000   0.0000   0.0000   0.0000   0.0000

          k = 0.1667 0.5774-0.3056 (  2764 PWs)   bands (ev):

   -74.6536 -74.6536 -38.1716 -38.1716 -37.9916 -37.9916 -37.9055 -37.9055
    15.6517  15.6517  17.0410  17.0410  18.0392  18.0392  19.4120  19.4120
    20.5256  20.5256  23.3684  23.3684  27.8994

     occupation numbers 
     1.0000   1.0000   1.0000   1.0000   1.0000   1.0000   1.0000   1.0000
     1.0000   1.0000   1.0000   1.0000   1.0000   1.0000   0.0000   0.0000
     0.0000   0.0000   0.0000   0.0000   0.0000

          k = 0.2500 0.4330 0.0000 (  2780 PWs)   bands (ev):

   -74.6670 -74.6453 -38.1113 -38.0866 -38.0439 -37.9972 -37.9444 -37.9180
    15.3040  16.1913  16.4871  16.5335  17.8435  18.3197  18.6315  19.7436
    20.4785  20.5827  21.9321  27.5275  28.4312

     occupation numbers 
     1.0000   1.0000   1.0000   1.0000   1.0000   1.0000   1.0000   1.0000
     1.0000   1.0000   1.0000   1.0000   1.0000   1.0000   1.0000   0.0000
     0.0000   0.0000   0.0000   0.0000   0.0000

          k = 0.2500 0.4330 0.1019 (  2775 PWs)   bands (ev):

   -74.6655 -74.6468 -38.1166 -38.1152 -38.0089 -38.0085 -37.9465 -37.9055
    15.3750  16.1087  16.5556  16.7219  17.8880  18.1310  18.6455  19.7954
    20.2295  20.6667  22.0348  26.0156  28.7181

     occupation numbers 
     1.0000   1.0000   1.0000   1.0000   1.0000   1.0000   1.0000   1.0000
     1.0000   1.0000   1.0000   1.0000   1.0000   1.0000   1.0000   0.0000
     0.0000   0.0000   0.0000   0.0000   0.0000

          k = 0.2500 0.4330 0.2037 (  2766 PWs)   bands (ev):

   -74.6616 -74.6507 -38.1421 -38.1299 -38.0143 -37.9877 -37.9327 -37.8941
    15.5564  15.9687  16.7812  17.0868  17.7292  17.8597  18.7447  19.5783
    20.1931  20.7679  22.2720  24.1320  29.4953

     occupation numbers 
     1.0000   1.0000   1.0000   1.0000   1.0000   1.0000   1.0000   1.0000
     1.0000   1.0000   1.0000   1.0000   1.0000   1.0000   1.0000   0.0000
     0.0000   0.0000   0.0000   0.0000   0.0000

          k = 0.2500 0.4330-0.3056 (  2766 PWs)   bands (ev):

   -74.6561 -74.6561 -38.1448 -38.1448 -38.0015 -38.0015 -37.9040 -37.9040
    15.7773  15.7773  17.1325  17.1325  17.6262  17.6262  19.0600  19.0600
    20.6182  20.6182  22.8420  22.8420  30.5029

     occupation numbers 
     1.0000   1.0000   1.0000   1.0000   1.0000   1.0000   1.0000   1.0000
     1.0000   1.0000   1.0000   1.0000   1.0000   1.0000   1.0000   1.0000
     0.0000   0.0000   0.0000   0.0000   0.0000

          k = 0.2500 0.5292 0.0000 (  2791 PWs)   bands (ev):

   -74.6577 -74.6465 -38.1261 -38.0766 -38.0333 -38.0097 -37.9700 -37.9450
    16.0092  16.1647  16.3281  16.6354  17.8437  18.0567  18.8388  20.0735
    20.4408  20.5047  23.2642  25.5870  27.7321

     occupation numbers 
     1.0000   1.0000   1.0000   1.0000   1.0000   1.0000   1.0000   1.0000
     1.0000   1.0000   1.0000   1.0000   1.0000   1.0000   1.0000   0.0000
     0.0000   0.0000   0.0000   0.0000   0.0000

          k = 0.2500 0.5292 0.1019 (  2778 PWs)   bands (ev):

   -74.6569 -74.6473 -38.1312 -38.0986 -38.0500 -37.9887 -37.9670 -37.9250
    15.9405  16.3120  16.4119  16.6931  17.8170  17.9557  18.8568  20.0993
    20.1894  20.5640  23.4257  25.5473  27.7767

     occupation numbers 
     1.0000   1.0000   1.0000   1.0000   1.0000   1.0000   1.0000   1.0000
     1.0000   1.0000   1.0000   1.0000   1.0000   1.0000   1.0000   0.0000
     0.0000   0.0000   0.0000   0.0000   0.0000

          k = 0.2500 0.5292 0.2037 (  2769 PWs)   bands (ev):

   -74.6549 -74.6493 -38.1454 -38.1289 -38.0503 -38.0053 -37.9273 -37.9027
    15.9624  16.2631  16.6974  17.0407  17.5504  17.8198  18.9400  19.6068
    20.2919  20.6220  23.8080  25.1453  27.8376

     occupation numbers 
     1.0000   1.0000   1.0000   1.0000   1.0000   1.0000   1.0000   1.0000
     1.0000   1.0000   1.0000   1.0000   1.0000   1.0000   1.0000   0.0000
     0.0000   0.0000   0.0000   0.0000   0.0000

          k = 0.2500 0.5292-0.3056 (  2754 PWs)   bands (ev):

   -74.6521 -74.6521 -38.1476 -38.1476 -38.0300 -38.0300 -37.9022 -37.9022
    16.0943  16.0943  17.0981  17.0981  17.5309  17.5309  19.1594  19.1594
    20.5161  20.5161  24.4004  24.4004  28.3890

     occupation numbers 
     1.0000   1.0000   1.0000   1.0000   1.0000   1.0000   1.0000   1.0000
     1.0000   1.0000   1.0000   1.0000   1.0000   1.0000   1.0000   1.0000
     0.0000   0.0000   0.0000   0.0000   0.0000

          k = 0.3333 0.5774 0.0000 (  2802 PWs)   bands (ev):

   -74.6506 -74.6506 -38.1130 -38.0585 -38.0585 -38.0006 -37.9760 -37.9760
    16.2055  16.3555  16.3555  16.5391  17.8788  17.8788  18.9506  20.2536
    20.2536  20.4044  24.7400  25.5953  25.5953

     occupation numbers 
     1.0000   1.0000   1.0000   1.0000   1.0000   1.0000   1.0000   1.0000
     1.0000   1.0000   1.0000   1.0000   1.0000   1.0000   1.0000   0.0000
     0.0000   0.0000   0.0000   0.0000   0.0000

          k = 0.3333 0.5774 0.1019 (  2781 PWs)   bands (ev):

   -74.6506 -74.6506 -38.1055 -38.0853 -38.0853 -38.0082 -37.9490 -37.9490
    16.2818  16.4252  16.4252  16.5697  17.7912  17.7912  18.9319  20.1272
    20.3099  20.3099  25.1560  25.6362  25.6362

     occupation numbers 
     1.0000   1.0000   1.0000   1.0000   1.0000   1.0000   1.0000   1.0000
     1.0000   1.0000   1.0000   1.0000   1.0000   1.0000   1.0000   0.0000
     0.0000   0.0000   0.0000   0.0000   0.0000

          k = 0.3333 0.5774 0.2037 (  2772 PWs)   bands (ev):

   -74.6506 -74.6506 -38.1195 -38.1195 -38.0850 -38.0289 -37.9144 -37.9144
    16.4607  16.5907  16.5907  16.6248  17.5985  17.5985  18.9367  19.5705
    20.4142  20.4142  25.7371  25.7371  26.1715

     occupation numbers 
     1.0000   1.0000   1.0000   1.0000   1.0000   1.0000   1.0000   1.0000
     1.0000   1.0000   1.0000   1.0000   1.0000   1.0000   1.0000   0.0000
     0.0000   0.0000   0.0000   0.0000   0.0000

          k = 0.3333 0.5774-0.3056 (  2760 PWs)   bands (ev):

   -74.6506 -74.6506 -38.1328 -38.1328 -38.0570 -38.0570 -37.9009 -37.9009
    16.6074  16.6074  16.6974  16.6974  17.4818  17.4818  19.1198  19.1198
    20.4628  20.4628  25.8006  25.8006  27.5124

     occupation numbers 
     1.0000   1.0000   1.0000   1.0000   1.0000   1.0000   1.0000   1.0000
     1.0000   1.0000   1.0000   1.0000   1.0000   1.0000   1.0000   1.0000
     0.0000   0.0000   0.0000   0.0000   0.0000

     the Fermi energy is    19.2926 ev

!    total energy              =    -753.45432849 Ry
     total all-electron energy =     -5573.811020 Ry
     estimated scf accuracy    <       0.00000005 Ry
     smearing contrib. (-TS)   =      -0.00001613 Ry
     internal energy E=F+TS    =    -753.45431236 Ry

     The total energy is F=E-TS. E is the sum of the following terms:
     one-electron contribution =    -276.87138373 Ry
     hartree contribution      =     162.84566053 Ry
     xc contribution           =     -61.43680550 Ry
     ewald contribution        =    -402.81529377 Ry
     one-center paw contrib.   =    -175.17648989 Ry
      -> PAW hartree energy AE =     222.21872097 Ry
      -> PAW hartree energy PS =    -221.16248057 Ry
      -> PAW xc energy AE      =    -117.68059743 Ry
      -> PAW xc energy PS      =      29.03611209 Ry
      -> total E_H with PAW    =     163.90190093 Ry
      -> total E_XC with PAW   =    -150.08129085 Ry

     total magnetization       =     3.22 Bohr mag/cell
     absolute magnetization    =     3.53 Bohr mag/cell

     convergence has been achieved in   9 iterations

     Writing all to output data dir ./out/Co.save/
 
     init_run     :      0.36s CPU      0.49s WALL (       1 calls)
     electrons    :     23.99s CPU     25.23s WALL (       1 calls)

     Called by init_run:
     wfcinit      :      0.21s CPU      0.31s WALL (       1 calls)
     potinit      :      0.10s CPU      0.13s WALL (       1 calls)
     hinit0       :      0.03s CPU      0.03s WALL (       1 calls)

     Called by electrons:
     c_bands      :     21.30s CPU     22.24s WALL (       9 calls)
     sum_band     :      1.74s CPU      1.83s WALL (       9 calls)
     v_of_rho     :      0.03s CPU      0.03s WALL (      10 calls)
     v_h          :      0.00s CPU      0.00s WALL (      10 calls)
     v_xc         :      0.03s CPU      0.03s WALL (      10 calls)
     newd         :      0.03s CPU      0.05s WALL (      10 calls)
     PAW_pot      :      0.97s CPU      1.18s WALL (      10 calls)
     mix_rho      :      0.01s CPU      0.01s WALL (       9 calls)

     Called by c_bands:
     init_us_2    :      0.11s CPU      0.11s WALL (    2736 calls)
     init_us_2:cp :      0.11s CPU      0.11s WALL (    2736 calls)
     cegterg      :     20.66s CPU     21.58s WALL (    1372 calls)

     Called by sum_band:
     sum_band:wei :      0.01s CPU      0.01s WALL (       9 calls)
     sum_band:loo :      1.64s CPU      1.72s WALL (       9 calls)
     sum_band:buf :      0.01s CPU      0.01s WALL (    1368 calls)
     sum_band:ini :      0.06s CPU      0.05s WALL (    1368 calls)
     sum_band:cal :      0.13s CPU      0.12s WALL (    1368 calls)
     sum_band:bec :      0.00s CPU      0.01s WALL (    1368 calls)
     addusdens    :      0.07s CPU      0.07s WALL (       9 calls)
                                        0.00s GPU  (       9 calls)
     addusd:skk   :      0.00s CPU      0.00s WALL (       9 calls)
                                        0.00s GPU  (       9 calls)

     Called by *egterg:
     cdiaghg      :      5.61s CPU      5.76s WALL (    9553 calls)
     cegterg:over :      0.71s CPU      0.69s WALL (    8337 calls)
     cegterg:upda :      0.10s CPU      0.18s WALL (    8337 calls)
     cegterg:last :      0.31s CPU      0.34s WALL (    5786 calls)
     h_psi        :     12.96s CPU     13.65s WALL (    9709 calls)
     s_psi        :      0.28s CPU      0.25s WALL (    9709 calls)
     g_psi        :      0.05s CPU      0.06s WALL (    8337 calls)

     Called by h_psi:
     h_psi:calbec :      0.63s CPU      0.60s WALL (    9709 calls)
     vloc_psi     :     12.10s CPU     12.71s WALL (    9709 calls)
     add_vuspsi   :      0.20s CPU      0.27s WALL (    9709 calls)

     General routines
     calbec       :      0.74s CPU      0.70s WALL (   11077 calls)
     fft          :      0.02s CPU      0.02s WALL (     244 calls)
     ffts         :      0.00s CPU      0.00s WALL (      38 calls)
     fftw         :     12.69s CPU     13.13s WALL (  287878 calls)
     interpolate  :      0.00s CPU      0.00s WALL (      20 calls)
 
     Parallel routines

     PAW routines
     PAW_pot      :      0.97s CPU      1.18s WALL (      10 calls)
     PAW_symme    :      0.01s CPU      0.01s WALL (      18 calls)
 
     PWSCF        :     24.67s CPU     26.49s WALL

 
   This run was terminated on:   8:43:34  22Mar2024            

=------------------------------------------------------------------------------=
   JOB DONE.
=------------------------------------------------------------------------------=
