
     Program PWSCF v.7.2 starts on 22Mar2024 at  8:24:32 

     This program is part of the open-source Quantum ESPRESSO suite
     for quantum simulation of materials; please cite
         "P. Giannozzi et al., J. Phys.:Condens. Matter 21 395502 (2009);
         "P. Giannozzi et al., J. Phys.:Condens. Matter 29 465901 (2017);
         "P. Giannozzi et al., J. Chem. Phys. 152 154105 (2020);
          URL http://www.quantum-espresso.org", 
     in publications or presentations arising from this work. More details at
     http://www.quantum-espresso.org/quote

     Parallel version (MPI), running on    20 processors

     MPI processes distributed on     1 nodes
     352641 MiB available memory on the printing compute node when the environment starts
 
     Waiting for input...
     Reading input from standard input

     Current dimensions of program PWSCF are:
     Max number of different atomic species (ntypx) = 10
     Max number of k-points (npk) = 120000
     Max angular momentum in pseudopotentials (lmaxx) =  4
     file Co.pbe-spn-kjpaw_psl.0.3.1.UPF: wavefunction(s)  3P 3D renormalized
 
     R & G space division:  proc/nbgrp/npool/nimage =      20
     Subspace diagonalization in iterative solution of the eigenvalue problem:
     a serial algorithm will be used

 
     Parallelization info
     --------------------
     sticks:   dense  smooth     PW     G-vecs:    dense   smooth      PW
     Min          33      33      9                 1190     1149     185
     Max          35      34     10                 1202     1156     192
     Sum         685     673    199                23895    23067    3789
 
     Using Slab Decomposition
 


     bravais-lattice index     =            4
     lattice parameter (alat)  =       4.7338  a.u.
     unit-cell volume          =     148.5244 (a.u.)^3
     number of atoms/cell      =            2
     number of atomic types    =            1
     number of electrons       =        34.00
     number of Kohn-Sham states=           21
     kinetic-energy cutoff     =     110.0000  Ry
     charge density cutoff     =     450.0000  Ry
     scf convergence threshold =      1.0E-06
     mixing beta               =       0.7000
     number of iterations used =            8  plain     mixing
     Exchange-correlation= SLA  PW   PBX  PBC
                           (   1   4   3   4   0   0   0)

     celldm(1)=   4.733764  celldm(2)=   0.000000  celldm(3)=   1.616766
     celldm(4)=   0.000000  celldm(5)=   0.000000  celldm(6)=   0.000000

     crystal axes: (cart. coord. in units of alat)
               a(1) = (   1.000000   0.000000   0.000000 )  
               a(2) = (  -0.500000   0.866025   0.000000 )  
               a(3) = (   0.000000   0.000000   1.616766 )  

     reciprocal axes: (cart. coord. in units 2 pi/alat)
               b(1) = (  1.000000  0.577350  0.000000 )  
               b(2) = (  0.000000  1.154701  0.000000 )  
               b(3) = (  0.000000  0.000000  0.618519 )  


     PseudoPot. # 1 for Co read from file:
     /truba/home/amuhaymin/ZnS/pseudo/QE/Co.pbe-spn-kjpaw_psl.0.3.1.UPF
     MD5 check sum: b0a1ad65bf214e88c1f3d33b20c7d919
     Pseudo is Projector augmented-wave + core cor, Zval = 17.0
     Generated using &quot;atomic&quot; code by A. Dal Corso  v.6.2.2
     Shape of augmentation charge: PSQ
     Using radial grid of 1193 points,  6 beta functions with: 
                l(1) =   0
                l(2) =   0
                l(3) =   1
                l(4) =   1
                l(5) =   2
                l(6) =   2
     Q(r) pseudized with 0 coefficients 


     atomic species   valence    mass     pseudopotential
        Co            17.00    58.93300     Co( 1.00)

     Starting magnetic structure 
     atomic species   magnetization
        Co           0.294

     24 Sym. Ops., with inversion, found (12 have fractional translation)


                                    s                        frac. trans.

      isym =  1     identity                                     

 cryst.   s( 1) = (     1          0          0      )
                  (     0          1          0      )
                  (     0          0          1      )

 cart.    s( 1) = (  1.0000000  0.0000000  0.0000000 )
                  (  0.0000000  1.0000000  0.0000000 )
                  (  0.0000000  0.0000000  1.0000000 )


      isym =  2     180 deg rotation - cart. axis [0,0,1]        

 cryst.   s( 2) = (    -1          0          0      )    f =(  0.0000000 )
                  (     0         -1          0      )       (  0.0000000 )
                  (     0          0          1      )       (  0.5000000 )

 cart.    s( 2) = ( -1.0000000  0.0000000  0.0000000 )    f =(  0.0000000 )
                  (  0.0000000 -1.0000000  0.0000000 )       (  0.0000000 )
                  (  0.0000000  0.0000000  1.0000000 )       (  0.8083832 )


      isym =  3     180 deg rotation - cart. axis [0,1,0]        

 cryst.   s( 3) = (    -1          0          0      )    f =(  0.0000000 )
                  (     1          1          0      )       (  0.0000000 )
                  (     0          0         -1      )       (  0.5000000 )

 cart.    s( 3) = ( -1.0000000  0.0000000  0.0000000 )    f =(  0.0000000 )
                  (  0.0000000  1.0000000  0.0000000 )       (  0.0000000 )
                  (  0.0000000  0.0000000 -1.0000000 )       (  0.8083832 )


      isym =  4     180 deg rotation - cart. axis [1,0,0]        

 cryst.   s( 4) = (     1          0          0      )
                  (    -1         -1          0      )
                  (     0          0         -1      )

 cart.    s( 4) = (  1.0000000  0.0000000  0.0000000 )
                  (  0.0000000 -1.0000000  0.0000000 )
                  (  0.0000000  0.0000000 -1.0000000 )


      isym =  5      60 deg rotation - cryst. axis [0,0,1]       

 cryst.   s( 5) = (     1          1          0      )    f =(  0.0000000 )
                  (    -1          0          0      )       ( -0.0000000 )
                  (     0          0          1      )       (  0.5000000 )

 cart.    s( 5) = (  0.5000000 -0.8660254  0.0000000 )    f =(  0.0000000 )
                  (  0.8660254  0.5000000  0.0000000 )       ( -0.0000000 )
                  (  0.0000000  0.0000000  1.0000000 )       (  0.8083832 )


      isym =  6      60 deg rotation - cryst. axis [0,0,-1]      

 cryst.   s( 6) = (     0         -1          0      )    f =(  0.0000000 )
                  (     1          1          0      )       ( -0.0000000 )
                  (     0          0          1      )       (  0.5000000 )

 cart.    s( 6) = (  0.5000000  0.8660254  0.0000000 )    f =(  0.0000000 )
                  ( -0.8660254  0.5000000  0.0000000 )       ( -0.0000000 )
                  (  0.0000000  0.0000000  1.0000000 )       (  0.8083832 )


      isym =  7     120 deg rotation - cryst. axis [0,0,1]       

 cryst.   s( 7) = (     0          1          0      )
                  (    -1         -1          0      )
                  (     0          0          1      )

 cart.    s( 7) = ( -0.5000000 -0.8660254  0.0000000 )
                  (  0.8660254 -0.5000000  0.0000000 )
                  (  0.0000000  0.0000000  1.0000000 )


      isym =  8     120 deg rotation - cryst. axis [0,0,-1]      

 cryst.   s( 8) = (    -1         -1          0      )
                  (     1          0          0      )
                  (     0          0          1      )

 cart.    s( 8) = ( -0.5000000  0.8660254  0.0000000 )
                  ( -0.8660254 -0.5000000  0.0000000 )
                  (  0.0000000  0.0000000  1.0000000 )


      isym =  9     180 deg rotation - cryst. axis [1,-1,0]      

 cryst.   s( 9) = (     0         -1          0      )    f =(  0.0000000 )
                  (    -1          0          0      )       (  0.0000000 )
                  (     0          0         -1      )       (  0.5000000 )

 cart.    s( 9) = (  0.5000000 -0.8660254  0.0000000 )    f =(  0.0000000 )
                  ( -0.8660254 -0.5000000  0.0000000 )       (  0.0000000 )
                  (  0.0000000  0.0000000 -1.0000000 )       (  0.8083832 )


      isym = 10     180 deg rotation - cryst. axis [2,1,0]       

 cryst.   s(10) = (     1          1          0      )    f =(  0.0000000 )
                  (     0         -1          0      )       ( -0.0000000 )
                  (     0          0         -1      )       (  0.5000000 )

 cart.    s(10) = (  0.5000000  0.8660254  0.0000000 )    f =(  0.0000000 )
                  (  0.8660254 -0.5000000  0.0000000 )       ( -0.0000000 )
                  (  0.0000000  0.0000000 -1.0000000 )       (  0.8083832 )


      isym = 11     180 deg rotation - cryst. axis [0,1,0]       

 cryst.   s(11) = (    -1         -1          0      )
                  (     0          1          0      )
                  (     0          0         -1      )

 cart.    s(11) = ( -0.5000000 -0.8660254  0.0000000 )
                  ( -0.8660254  0.5000000  0.0000000 )
                  (  0.0000000  0.0000000 -1.0000000 )


      isym = 12     180 deg rotation - cryst. axis [1,1,0]       

 cryst.   s(12) = (     0          1          0      )
                  (     1          0          0      )
                  (     0          0         -1      )

 cart.    s(12) = ( -0.5000000  0.8660254  0.0000000 )
                  (  0.8660254  0.5000000  0.0000000 )
                  (  0.0000000  0.0000000 -1.0000000 )


      isym = 13     inversion                                    

 cryst.   s(13) = (    -1          0          0      )
                  (     0         -1          0      )
                  (     0          0         -1      )

 cart.    s(13) = ( -1.0000000  0.0000000  0.0000000 )
                  (  0.0000000 -1.0000000  0.0000000 )
                  (  0.0000000  0.0000000 -1.0000000 )


      isym = 14     inv. 180 deg rotation - cart. axis [0,0,1]   

 cryst.   s(14) = (     1          0          0      )    f =(  0.0000000 )
                  (     0          1          0      )       (  0.0000000 )
                  (     0          0         -1      )       (  0.5000000 )

 cart.    s(14) = (  1.0000000  0.0000000  0.0000000 )    f =(  0.0000000 )
                  (  0.0000000  1.0000000  0.0000000 )       (  0.0000000 )
                  (  0.0000000  0.0000000 -1.0000000 )       (  0.8083832 )


      isym = 15     inv. 180 deg rotation - cart. axis [0,1,0]   

 cryst.   s(15) = (     1          0          0      )    f =(  0.0000000 )
                  (    -1         -1          0      )       (  0.0000000 )
                  (     0          0          1      )       (  0.5000000 )

 cart.    s(15) = (  1.0000000  0.0000000  0.0000000 )    f =(  0.0000000 )
                  (  0.0000000 -1.0000000  0.0000000 )       (  0.0000000 )
                  (  0.0000000  0.0000000  1.0000000 )       (  0.8083832 )


      isym = 16     inv. 180 deg rotation - cart. axis [1,0,0]   

 cryst.   s(16) = (    -1          0          0      )
                  (     1          1          0      )
                  (     0          0          1      )

 cart.    s(16) = ( -1.0000000  0.0000000  0.0000000 )
                  (  0.0000000  1.0000000  0.0000000 )
                  (  0.0000000  0.0000000  1.0000000 )


      isym = 17     inv.  60 deg rotation - cryst. axis [0,0,1]  

 cryst.   s(17) = (    -1         -1          0      )    f =(  0.0000000 )
                  (     1          0          0      )       (  0.0000000 )
                  (     0          0         -1      )       (  0.5000000 )

 cart.    s(17) = ( -0.5000000  0.8660254  0.0000000 )    f =(  0.0000000 )
                  ( -0.8660254 -0.5000000  0.0000000 )       (  0.0000000 )
                  (  0.0000000  0.0000000 -1.0000000 )       (  0.8083832 )


      isym = 18     inv.  60 deg rotation - cryst. axis [0,0,-1] 

 cryst.   s(18) = (     0          1          0      )    f =(  0.0000000 )
                  (    -1         -1          0      )       ( -0.0000000 )
                  (     0          0         -1      )       (  0.5000000 )

 cart.    s(18) = ( -0.5000000 -0.8660254  0.0000000 )    f =(  0.0000000 )
                  (  0.8660254 -0.5000000  0.0000000 )       ( -0.0000000 )
                  (  0.0000000  0.0000000 -1.0000000 )       (  0.8083832 )


      isym = 19     inv. 120 deg rotation - cryst. axis [0,0,1]  

 cryst.   s(19) = (     0         -1          0      )
                  (     1          1          0      )
                  (     0          0         -1      )

 cart.    s(19) = (  0.5000000  0.8660254  0.0000000 )
                  ( -0.8660254  0.5000000  0.0000000 )
                  (  0.0000000  0.0000000 -1.0000000 )


      isym = 20     inv. 120 deg rotation - cryst. axis [0,0,-1] 

 cryst.   s(20) = (     1          1          0      )
                  (    -1          0          0      )
                  (     0          0         -1      )

 cart.    s(20) = (  0.5000000 -0.8660254  0.0000000 )
                  (  0.8660254  0.5000000  0.0000000 )
                  (  0.0000000  0.0000000 -1.0000000 )


      isym = 21     inv. 180 deg rotation - cryst. axis [1,-1,0] 

 cryst.   s(21) = (     0          1          0      )    f =(  0.0000000 )
                  (     1          0          0      )       ( -0.0000000 )
                  (     0          0          1      )       (  0.5000000 )

 cart.    s(21) = ( -0.5000000  0.8660254  0.0000000 )    f =(  0.0000000 )
                  (  0.8660254  0.5000000  0.0000000 )       ( -0.0000000 )
                  (  0.0000000  0.0000000  1.0000000 )       (  0.8083832 )


      isym = 22     inv. 180 deg rotation - cryst. axis [2,1,0]  

 cryst.   s(22) = (    -1         -1          0      )    f =(  0.0000000 )
                  (     0          1          0      )       ( -0.0000000 )
                  (     0          0          1      )       (  0.5000000 )

 cart.    s(22) = ( -0.5000000 -0.8660254  0.0000000 )    f =(  0.0000000 )
                  ( -0.8660254  0.5000000  0.0000000 )       ( -0.0000000 )
                  (  0.0000000  0.0000000  1.0000000 )       (  0.8083832 )


      isym = 23     inv. 180 deg rotation - cryst. axis [0,1,0]  

 cryst.   s(23) = (     1          1          0      )
                  (     0         -1          0      )
                  (     0          0          1      )

 cart.    s(23) = (  0.5000000  0.8660254  0.0000000 )
                  (  0.8660254 -0.5000000  0.0000000 )
                  (  0.0000000  0.0000000  1.0000000 )


      isym = 24     inv. 180 deg rotation - cryst. axis [1,1,0]  

 cryst.   s(24) = (     0         -1          0      )
                  (    -1          0          0      )
                  (     0          0          1      )

 cart.    s(24) = (  0.5000000 -0.8660254  0.0000000 )
                  ( -0.8660254 -0.5000000  0.0000000 )
                  (  0.0000000  0.0000000  1.0000000 )


     point group D_6h(6/mmm)
     there are 12 classes
     the character table:

       E     2C6   2C3   C2    3C2'  3C2'' i     2S3   2S6   s_h   3s_d  3s_v 
A_1g   1.00  1.00  1.00  1.00  1.00  1.00  1.00  1.00  1.00  1.00  1.00  1.00
A_2g   1.00  1.00  1.00  1.00 -1.00 -1.00  1.00  1.00  1.00  1.00 -1.00 -1.00
B_1g   1.00 -1.00  1.00 -1.00  1.00 -1.00  1.00 -1.00  1.00 -1.00  1.00 -1.00
B_2g   1.00 -1.00  1.00 -1.00 -1.00  1.00  1.00 -1.00  1.00 -1.00 -1.00  1.00
E_1g   2.00  1.00 -1.00 -2.00  0.00  0.00  2.00  1.00 -1.00 -2.00  0.00  0.00
E_2g   2.00 -1.00 -1.00  2.00  0.00  0.00  2.00 -1.00 -1.00  2.00  0.00  0.00
A_1u   1.00  1.00  1.00  1.00  1.00  1.00 -1.00 -1.00 -1.00 -1.00 -1.00 -1.00
A_2u   1.00  1.00  1.00  1.00 -1.00 -1.00 -1.00 -1.00 -1.00 -1.00  1.00  1.00
B_1u   1.00 -1.00  1.00 -1.00  1.00 -1.00 -1.00  1.00 -1.00  1.00 -1.00  1.00
B_2u   1.00 -1.00  1.00 -1.00 -1.00  1.00 -1.00  1.00 -1.00  1.00  1.00 -1.00
E_1u   2.00  1.00 -1.00 -2.00  0.00  0.00 -2.00 -1.00  1.00  2.00  0.00  0.00
E_2u   2.00 -1.00 -1.00  2.00  0.00  0.00 -2.00  1.00  1.00 -2.00  0.00  0.00

     the symmetry operations in each class and the name of the first element:

     E        1
          identity                                               
     2C6      5    6
           60 deg rotation - cryst. axis [0,0,1]                 
     2C3      7    8
          120 deg rotation - cryst. axis [0,0,1]                 
     C2       2
          180 deg rotation - cart. axis [0,0,1]                  
     3C2'     4   12   11
          180 deg rotation - cart. axis [1,0,0]                  
     3C2''    3    9   10
          180 deg rotation - cart. axis [0,1,0]                  
     i       13
          inversion                                              
     2S3     17   18
          inv.  60 deg rotation - cryst. axis [0,0,1]            
     2S6     19   20
          inv. 120 deg rotation - cryst. axis [0,0,1]            
     s_h     14
          inv. 180 deg rotation - cart. axis [0,0,1]             
     3s_d    16   24   23
          inv. 180 deg rotation - cart. axis [1,0,0]             
     3s_v    15   21   22
          inv. 180 deg rotation - cart. axis [0,1,0]             

   Cartesian axes

     site n.     atom                  positions (alat units)
         1           Co  tau(   1) = (  -0.0000000   0.5773503   0.4041916  )
         2           Co  tau(   2) = (   0.5000000   0.2886751   1.2125749  )

   Crystallographic axes

     site n.     atom                  positions (cryst. coord.)
         1           Co  tau(   1) = (  0.3333333  0.6666667  0.2500000  )
         2           Co  tau(   2) = (  0.6666667  0.3333333  0.7500000  )

     number of k points=    76  Gaussian smearing, width (Ry)=  0.0010
                       cart. coord. in units 2pi/alat
        k(    1) = (   0.0000000   0.0000000   0.0000000), wk =   0.0011574
        k(    2) = (   0.0000000   0.0000000   0.1030864), wk =   0.0023148
        k(    3) = (   0.0000000   0.0000000   0.2061728), wk =   0.0023148
        k(    4) = (   0.0000000   0.0000000  -0.3092593), wk =   0.0011574
        k(    5) = (   0.0000000   0.0962250   0.0000000), wk =   0.0069444
        k(    6) = (   0.0000000   0.0962250   0.1030864), wk =   0.0138889
        k(    7) = (   0.0000000   0.0962250   0.2061728), wk =   0.0138889
        k(    8) = (   0.0000000   0.0962250  -0.3092593), wk =   0.0069444
        k(    9) = (   0.0000000   0.1924501   0.0000000), wk =   0.0069444
        k(   10) = (   0.0000000   0.1924501   0.1030864), wk =   0.0138889
        k(   11) = (   0.0000000   0.1924501   0.2061728), wk =   0.0138889
        k(   12) = (   0.0000000   0.1924501  -0.3092593), wk =   0.0069444
        k(   13) = (   0.0000000   0.2886751   0.0000000), wk =   0.0069444
        k(   14) = (   0.0000000   0.2886751   0.1030864), wk =   0.0138889
        k(   15) = (   0.0000000   0.2886751   0.2061728), wk =   0.0138889
        k(   16) = (   0.0000000   0.2886751  -0.3092593), wk =   0.0069444
        k(   17) = (   0.0000000   0.3849002   0.0000000), wk =   0.0069444
        k(   18) = (   0.0000000   0.3849002   0.1030864), wk =   0.0138889
        k(   19) = (   0.0000000   0.3849002   0.2061728), wk =   0.0138889
        k(   20) = (   0.0000000   0.3849002  -0.3092593), wk =   0.0069444
        k(   21) = (   0.0000000   0.4811252   0.0000000), wk =   0.0069444
        k(   22) = (   0.0000000   0.4811252   0.1030864), wk =   0.0138889
        k(   23) = (   0.0000000   0.4811252   0.2061728), wk =   0.0138889
        k(   24) = (   0.0000000   0.4811252  -0.3092593), wk =   0.0069444
        k(   25) = (   0.0000000  -0.5773503   0.0000000), wk =   0.0034722
        k(   26) = (   0.0000000  -0.5773503   0.1030864), wk =   0.0069444
        k(   27) = (   0.0000000  -0.5773503   0.2061728), wk =   0.0069444
        k(   28) = (   0.0000000  -0.5773503  -0.3092593), wk =   0.0034722
        k(   29) = (   0.0833333   0.1443376   0.0000000), wk =   0.0069444
        k(   30) = (   0.0833333   0.1443376   0.1030864), wk =   0.0138889
        k(   31) = (   0.0833333   0.1443376   0.2061728), wk =   0.0138889
        k(   32) = (   0.0833333   0.1443376  -0.3092593), wk =   0.0069444
        k(   33) = (   0.0833333   0.2405626   0.0000000), wk =   0.0138889
        k(   34) = (   0.0833333   0.2405626   0.1030864), wk =   0.0277778
        k(   35) = (   0.0833333   0.2405626   0.2061728), wk =   0.0277778
        k(   36) = (   0.0833333   0.2405626  -0.3092593), wk =   0.0138889
        k(   37) = (   0.0833333   0.3367877   0.0000000), wk =   0.0138889
        k(   38) = (   0.0833333   0.3367877   0.1030864), wk =   0.0277778
        k(   39) = (   0.0833333   0.3367877   0.2061728), wk =   0.0277778
        k(   40) = (   0.0833333   0.3367877  -0.3092593), wk =   0.0138889
        k(   41) = (   0.0833333   0.4330127   0.0000000), wk =   0.0138889
        k(   42) = (   0.0833333   0.4330127   0.1030864), wk =   0.0277778
        k(   43) = (   0.0833333   0.4330127   0.2061728), wk =   0.0277778
        k(   44) = (   0.0833333   0.4330127  -0.3092593), wk =   0.0138889
        k(   45) = (   0.0833333   0.5292377   0.0000000), wk =   0.0138889
        k(   46) = (   0.0833333   0.5292377   0.1030864), wk =   0.0277778
        k(   47) = (   0.0833333   0.5292377   0.2061728), wk =   0.0277778
        k(   48) = (   0.0833333   0.5292377  -0.3092593), wk =   0.0138889
        k(   49) = (   0.1666667   0.2886751   0.0000000), wk =   0.0069444
        k(   50) = (   0.1666667   0.2886751   0.1030864), wk =   0.0138889
        k(   51) = (   0.1666667   0.2886751   0.2061728), wk =   0.0138889
        k(   52) = (   0.1666667   0.2886751  -0.3092593), wk =   0.0069444
        k(   53) = (   0.1666667   0.3849002   0.0000000), wk =   0.0138889
        k(   54) = (   0.1666667   0.3849002   0.1030864), wk =   0.0277778
        k(   55) = (   0.1666667   0.3849002   0.2061728), wk =   0.0277778
        k(   56) = (   0.1666667   0.3849002  -0.3092593), wk =   0.0138889
        k(   57) = (   0.1666667   0.4811252   0.0000000), wk =   0.0138889
        k(   58) = (   0.1666667   0.4811252   0.1030864), wk =   0.0277778
        k(   59) = (   0.1666667   0.4811252   0.2061728), wk =   0.0277778
        k(   60) = (   0.1666667   0.4811252  -0.3092593), wk =   0.0138889
        k(   61) = (   0.1666667   0.5773503   0.0000000), wk =   0.0069444
        k(   62) = (   0.1666667   0.5773503   0.1030864), wk =   0.0138889
        k(   63) = (   0.1666667   0.5773503   0.2061728), wk =   0.0138889
        k(   64) = (   0.1666667   0.5773503  -0.3092593), wk =   0.0069444
        k(   65) = (   0.2500000   0.4330127   0.0000000), wk =   0.0069444
        k(   66) = (   0.2500000   0.4330127   0.1030864), wk =   0.0138889
        k(   67) = (   0.2500000   0.4330127   0.2061728), wk =   0.0138889
        k(   68) = (   0.2500000   0.4330127  -0.3092593), wk =   0.0069444
        k(   69) = (   0.2500000   0.5292377   0.0000000), wk =   0.0138889
        k(   70) = (   0.2500000   0.5292377   0.1030864), wk =   0.0277778
        k(   71) = (   0.2500000   0.5292377   0.2061728), wk =   0.0277778
        k(   72) = (   0.2500000   0.5292377  -0.3092593), wk =   0.0138889
        k(   73) = (   0.3333333   0.5773503   0.0000000), wk =   0.0023148
        k(   74) = (   0.3333333   0.5773503   0.1030864), wk =   0.0046296
        k(   75) = (   0.3333333   0.5773503   0.2061728), wk =   0.0046296
        k(   76) = (   0.3333333   0.5773503  -0.3092593), wk =   0.0023148

                       cryst. coord.
        k(    1) = (   0.0000000   0.0000000   0.0000000), wk =   0.0011574
        k(    2) = (   0.0000000   0.0000000   0.1666667), wk =   0.0023148
        k(    3) = (   0.0000000   0.0000000   0.3333333), wk =   0.0023148
        k(    4) = (   0.0000000   0.0000000  -0.5000000), wk =   0.0011574
        k(    5) = (   0.0000000   0.0833333   0.0000000), wk =   0.0069444
        k(    6) = (   0.0000000   0.0833333   0.1666667), wk =   0.0138889
        k(    7) = (   0.0000000   0.0833333   0.3333333), wk =   0.0138889
        k(    8) = (   0.0000000   0.0833333  -0.5000000), wk =   0.0069444
        k(    9) = (   0.0000000   0.1666667   0.0000000), wk =   0.0069444
        k(   10) = (   0.0000000   0.1666667   0.1666667), wk =   0.0138889
        k(   11) = (   0.0000000   0.1666667   0.3333333), wk =   0.0138889
        k(   12) = (   0.0000000   0.1666667  -0.5000000), wk =   0.0069444
        k(   13) = (   0.0000000   0.2500000   0.0000000), wk =   0.0069444
        k(   14) = (   0.0000000   0.2500000   0.1666667), wk =   0.0138889
        k(   15) = (   0.0000000   0.2500000   0.3333333), wk =   0.0138889
        k(   16) = (   0.0000000   0.2500000  -0.5000000), wk =   0.0069444
        k(   17) = (   0.0000000   0.3333333   0.0000000), wk =   0.0069444
        k(   18) = (   0.0000000   0.3333333   0.1666667), wk =   0.0138889
        k(   19) = (   0.0000000   0.3333333   0.3333333), wk =   0.0138889
        k(   20) = (   0.0000000   0.3333333  -0.5000000), wk =   0.0069444
        k(   21) = (   0.0000000   0.4166667   0.0000000), wk =   0.0069444
        k(   22) = (   0.0000000   0.4166667   0.1666667), wk =   0.0138889
        k(   23) = (   0.0000000   0.4166667   0.3333333), wk =   0.0138889
        k(   24) = (   0.0000000   0.4166667  -0.5000000), wk =   0.0069444
        k(   25) = (   0.0000000  -0.5000000   0.0000000), wk =   0.0034722
        k(   26) = (   0.0000000  -0.5000000   0.1666667), wk =   0.0069444
        k(   27) = (   0.0000000  -0.5000000   0.3333333), wk =   0.0069444
        k(   28) = (   0.0000000  -0.5000000  -0.5000000), wk =   0.0034722
        k(   29) = (   0.0833333   0.0833333   0.0000000), wk =   0.0069444
        k(   30) = (   0.0833333   0.0833333   0.1666667), wk =   0.0138889
        k(   31) = (   0.0833333   0.0833333   0.3333333), wk =   0.0138889
        k(   32) = (   0.0833333   0.0833333  -0.5000000), wk =   0.0069444
        k(   33) = (   0.0833333   0.1666667   0.0000000), wk =   0.0138889
        k(   34) = (   0.0833333   0.1666667   0.1666667), wk =   0.0277778
        k(   35) = (   0.0833333   0.1666667   0.3333333), wk =   0.0277778
        k(   36) = (   0.0833333   0.1666667  -0.5000000), wk =   0.0138889
        k(   37) = (   0.0833333   0.2500000   0.0000000), wk =   0.0138889
        k(   38) = (   0.0833333   0.2500000   0.1666667), wk =   0.0277778
        k(   39) = (   0.0833333   0.2500000   0.3333333), wk =   0.0277778
        k(   40) = (   0.0833333   0.2500000  -0.5000000), wk =   0.0138889
        k(   41) = (   0.0833333   0.3333333   0.0000000), wk =   0.0138889
        k(   42) = (   0.0833333   0.3333333   0.1666667), wk =   0.0277778
        k(   43) = (   0.0833333   0.3333333   0.3333333), wk =   0.0277778
        k(   44) = (   0.0833333   0.3333333  -0.5000000), wk =   0.0138889
        k(   45) = (   0.0833333   0.4166667   0.0000000), wk =   0.0138889
        k(   46) = (   0.0833333   0.4166667   0.1666667), wk =   0.0277778
        k(   47) = (   0.0833333   0.4166667   0.3333333), wk =   0.0277778
        k(   48) = (   0.0833333   0.4166667  -0.5000000), wk =   0.0138889
        k(   49) = (   0.1666667   0.1666667   0.0000000), wk =   0.0069444
        k(   50) = (   0.1666667   0.1666667   0.1666667), wk =   0.0138889
        k(   51) = (   0.1666667   0.1666667   0.3333333), wk =   0.0138889
        k(   52) = (   0.1666667   0.1666667  -0.5000000), wk =   0.0069444
        k(   53) = (   0.1666667   0.2500000   0.0000000), wk =   0.0138889
        k(   54) = (   0.1666667   0.2500000   0.1666667), wk =   0.0277778
        k(   55) = (   0.1666667   0.2500000   0.3333333), wk =   0.0277778
        k(   56) = (   0.1666667   0.2500000  -0.5000000), wk =   0.0138889
        k(   57) = (   0.1666667   0.3333333   0.0000000), wk =   0.0138889
        k(   58) = (   0.1666667   0.3333333   0.1666667), wk =   0.0277778
        k(   59) = (   0.1666667   0.3333333   0.3333333), wk =   0.0277778
        k(   60) = (   0.1666667   0.3333333  -0.5000000), wk =   0.0138889
        k(   61) = (   0.1666667   0.4166667   0.0000000), wk =   0.0069444
        k(   62) = (   0.1666667   0.4166667   0.1666667), wk =   0.0138889
        k(   63) = (   0.1666667   0.4166667   0.3333333), wk =   0.0138889
        k(   64) = (   0.1666667   0.4166667  -0.5000000), wk =   0.0069444
        k(   65) = (   0.2500000   0.2500000   0.0000000), wk =   0.0069444
        k(   66) = (   0.2500000   0.2500000   0.1666667), wk =   0.0138889
        k(   67) = (   0.2500000   0.2500000   0.3333333), wk =   0.0138889
        k(   68) = (   0.2500000   0.2500000  -0.5000000), wk =   0.0069444
        k(   69) = (   0.2500000   0.3333333   0.0000000), wk =   0.0138889
        k(   70) = (   0.2500000   0.3333333   0.1666667), wk =   0.0277778
        k(   71) = (   0.2500000   0.3333333   0.3333333), wk =   0.0277778
        k(   72) = (   0.2500000   0.3333333  -0.5000000), wk =   0.0138889
        k(   73) = (   0.3333333   0.3333333   0.0000000), wk =   0.0023148
        k(   74) = (   0.3333333   0.3333333   0.1666667), wk =   0.0046296
        k(   75) = (   0.3333333   0.3333333   0.3333333), wk =   0.0046296
        k(   76) = (   0.3333333   0.3333333  -0.5000000), wk =   0.0023148

     Dense  grid:    23895 G-vectors     FFT dimensions: (  32,  32,  54)

     Smooth grid:    23067 G-vectors     FFT dimensions: (  32,  32,  54)

     Dynamical RAM for                 wfc:       0.05 MB

     Dynamical RAM for     wfc (w. buffer):       7.06 MB

     Dynamical RAM for           str. fact:       0.02 MB

     Dynamical RAM for           local pot:       0.00 MB

     Dynamical RAM for          nlocal pot:       0.08 MB

     Dynamical RAM for                qrad:       1.70 MB

     Dynamical RAM for          rho,v,vnew:       0.25 MB

     Dynamical RAM for               rhoin:       0.08 MB

     Dynamical RAM for            rho*nmix:       0.58 MB

     Dynamical RAM for           G-vectors:       0.08 MB

     Dynamical RAM for          h,s,v(r/c):       0.08 MB

     Dynamical RAM for          <psi|beta>:       0.01 MB

     Dynamical RAM for                 psi:       0.09 MB

     Dynamical RAM for                hpsi:       0.09 MB

     Dynamical RAM for                spsi:       0.09 MB

     Dynamical RAM for      wfcinit/wfcrot:       0.10 MB

     Dynamical RAM for           addusdens:       3.45 MB

     Estimated static dynamical RAM per process >       9.45 MB

     Estimated max dynamical RAM per process >      13.48 MB

     Estimated total dynamical RAM >     269.54 MB

     Check: negative core charge=   -0.000043
     Generating pointlists ...
     new r_m :   0.4098 (alat units)  1.9398 (a.u.) for type    1

     The initial density is read from file :
     ./out/Co.save/charge-density


     starting charge      34.0420, renormalised to      34.0000

     negative rho (up, down):  1.462E-02 7.720E-03
     Starting wfcs from file
     Checking if some PAW data can be deallocated... 

     total cpu time spent up to now is        0.6 secs

     Self-consistent Calculation

     iteration #  1     ecut=   110.00 Ry     beta= 0.70
     Davidson diagonalization with overlap

---- Real-time Memory Report at c_bands before calling an iterative solver
            55 MiB given to the printing process from OS
             0 MiB allocation reported by mallinfo(arena+hblkhd)
        352060 MiB available memory on the node where the printing process lives
------------------
     ethr =  1.00E-05,  avg # of iterations =  7.5

     total cpu time spent up to now is        4.1 secs

     total energy              =    -753.36534674 Ry
     estimated scf accuracy    <       0.01807661 Ry

     total magnetization       =     3.36 Bohr mag/cell
     absolute magnetization    =     3.62 Bohr mag/cell

     iteration #  2     ecut=   110.00 Ry     beta= 0.70
     Davidson diagonalization with overlap

---- Real-time Memory Report at c_bands before calling an iterative solver
            76 MiB given to the printing process from OS
             0 MiB allocation reported by mallinfo(arena+hblkhd)
        351837 MiB available memory on the node where the printing process lives
------------------
     ethr =  5.32E-05,  avg # of iterations =  4.0

     total cpu time spent up to now is        6.0 secs

     total energy              =    -753.42756903 Ry
     estimated scf accuracy    <       0.00985691 Ry

     total magnetization       =     3.36 Bohr mag/cell
     absolute magnetization    =     3.66 Bohr mag/cell

     iteration #  3     ecut=   110.00 Ry     beta= 0.70
     Davidson diagonalization with overlap

---- Real-time Memory Report at c_bands before calling an iterative solver
            77 MiB given to the printing process from OS
             0 MiB allocation reported by mallinfo(arena+hblkhd)
        351826 MiB available memory on the node where the printing process lives
------------------
     ethr =  2.90E-05,  avg # of iterations =  3.2

     total cpu time spent up to now is        7.6 secs

     total energy              =    -753.45383732 Ry
     estimated scf accuracy    <       0.00043786 Ry

     total magnetization       =     3.34 Bohr mag/cell
     absolute magnetization    =     3.66 Bohr mag/cell

     iteration #  4     ecut=   110.00 Ry     beta= 0.70
     Davidson diagonalization with overlap

---- Real-time Memory Report at c_bands before calling an iterative solver
            78 MiB given to the printing process from OS
             0 MiB allocation reported by mallinfo(arena+hblkhd)
        351815 MiB available memory on the node where the printing process lives
------------------
     ethr =  1.29E-06,  avg # of iterations =  5.5

     total cpu time spent up to now is       10.2 secs

     total energy              =    -753.45488551 Ry
     estimated scf accuracy    <       0.00012780 Ry

     total magnetization       =     3.35 Bohr mag/cell
     absolute magnetization    =     3.67 Bohr mag/cell

     iteration #  5     ecut=   110.00 Ry     beta= 0.70
     Davidson diagonalization with overlap

---- Real-time Memory Report at c_bands before calling an iterative solver
            79 MiB given to the printing process from OS
             0 MiB allocation reported by mallinfo(arena+hblkhd)
        351805 MiB available memory on the node where the printing process lives
------------------
     ethr =  3.76E-07,  avg # of iterations =  1.6

     total cpu time spent up to now is       11.4 secs

     total energy              =    -753.45489788 Ry
     estimated scf accuracy    <       0.00003233 Ry

     total magnetization       =     3.35 Bohr mag/cell
     absolute magnetization    =     3.68 Bohr mag/cell

     iteration #  6     ecut=   110.00 Ry     beta= 0.70
     Davidson diagonalization with overlap

---- Real-time Memory Report at c_bands before calling an iterative solver
            80 MiB given to the printing process from OS
             0 MiB allocation reported by mallinfo(arena+hblkhd)
        351794 MiB available memory on the node where the printing process lives
------------------
     ethr =  9.51E-08,  avg # of iterations =  2.3

     total cpu time spent up to now is       12.8 secs

     total energy              =    -753.45490121 Ry
     estimated scf accuracy    <       0.00000325 Ry

     total magnetization       =     3.36 Bohr mag/cell
     absolute magnetization    =     3.68 Bohr mag/cell

     iteration #  7     ecut=   110.00 Ry     beta= 0.70
     Davidson diagonalization with overlap

---- Real-time Memory Report at c_bands before calling an iterative solver
            81 MiB given to the printing process from OS
             0 MiB allocation reported by mallinfo(arena+hblkhd)
        351785 MiB available memory on the node where the printing process lives
------------------
     ethr =  9.55E-09,  avg # of iterations =  6.9

     total cpu time spent up to now is       15.4 secs

     total energy              =    -753.45490415 Ry
     estimated scf accuracy    <       0.00000442 Ry

     total magnetization       =     3.36 Bohr mag/cell
     absolute magnetization    =     3.69 Bohr mag/cell

     iteration #  8     ecut=   110.00 Ry     beta= 0.70
     Davidson diagonalization with overlap

---- Real-time Memory Report at c_bands before calling an iterative solver
            81 MiB given to the printing process from OS
             0 MiB allocation reported by mallinfo(arena+hblkhd)
        351780 MiB available memory on the node where the printing process lives
------------------
     ethr =  9.55E-09,  avg # of iterations =  2.9
 
     Magnetic moment per site  (integrated on atomic sphere of radius R)
     atom   1 (R=0.410)  charge= 15.5966  magn=  1.7547
     atom   2 (R=0.410)  charge= 15.5966  magn=  1.7547

     total cpu time spent up to now is       16.9 secs

     End of self-consistent calculation

 ------ SPIN UP ------------


          k = 0.0000 0.0000 0.0000 (  2875 PWs)   bands (ev):

   -77.7680 -77.7149 -41.1623 -40.8839 -40.8839 -40.8512 -40.8384 -40.8384
     9.4502  13.2335  15.7282  15.7552  15.7552  16.0616  16.0616  16.3868
    16.3868  17.4709  17.4709  18.1394  24.5347

     occupation numbers 
     1.0000   1.0000   1.0000   1.0000   1.0000   1.0000   1.0000   1.0000
     1.0000   1.0000   1.0000   1.0000   1.0000   1.0000   1.0000   1.0000
     1.0000   1.0000   1.0000   1.0000   0.0000

          k = 0.0000 0.0000 0.1031 (  2887 PWs)   bands (ev):

   -77.7644 -77.7185 -41.1418 -40.8808 -40.8808 -40.8724 -40.8414 -40.8414
     9.7247  13.1634  15.6587  15.6898  15.6898  15.9887  15.9887  16.5487
    16.5487  17.1801  17.4551  17.4551  26.0586

     occupation numbers 
     1.0000   1.0000   1.0000   1.0000   1.0000   1.0000   1.0000   1.0000
     1.0000   1.0000   1.0000   1.0000   1.0000   1.0000   1.0000   1.0000
     1.0000   1.0000   1.0000   1.0000   0.0000

          k = 0.0000 0.0000 0.2062 (  2882 PWs)   bands (ev):

   -77.7547 -77.7282 -41.0854 -40.9298 -40.8725 -40.8725 -40.8498 -40.8498
    10.5124  12.7242  15.4977  15.6346  15.6346  15.8282  15.8282  15.8663
    16.8657  16.8657  17.3694  17.3694  29.2651

     occupation numbers 
     1.0000   1.0000   1.0000   1.0000   1.0000   1.0000   1.0000   1.0000
     1.0000   1.0000   1.0000   1.0000   1.0000   1.0000   1.0000   1.0000
     1.0000   1.0000   1.0000   1.0000   0.0000

          k = 0.0000 0.0000-0.3093 (  2858 PWs)   bands (ev):

   -77.7415 -77.7415 -41.0078 -41.0078 -40.8611 -40.8611 -40.8611 -40.8611
    11.6622  11.6622  15.4202  15.4202  15.6856  15.6856  15.6856  15.6856
    17.1673  17.1673  17.1673  17.1673  33.0887

     occupation numbers 
     1.0000   1.0000   1.0000   1.0000   1.0000   1.0000   1.0000   1.0000
     1.0000   1.0000   1.0000   1.0000   1.0000   1.0000   1.0000   1.0000
     1.0000   1.0000   1.0000   1.0000   0.0000

          k = 0.0000 0.0962 0.0000 (  2861 PWs)   bands (ev):

   -77.7650 -77.7136 -41.1556 -40.8986 -40.8887 -40.8541 -40.8537 -40.8408
     9.6892  13.3761  15.5214  15.8664  15.9255  16.0159  16.1599  16.2367
    16.3175  16.7014  17.5003  19.2241  24.5758

     occupation numbers 
     1.0000   1.0000   1.0000   1.0000   1.0000   1.0000   1.0000   1.0000
     1.0000   1.0000   1.0000   1.0000   1.0000   1.0000   1.0000   1.0000
     1.0000   1.0000   1.0000   0.0000   0.0000

          k = 0.0000 0.0962 0.1031 (  2875 PWs)   bands (ev):

   -77.7616 -77.7170 -41.1362 -40.8951 -40.8855 -40.8800 -40.8511 -40.8441
     9.9596  13.3207  15.5189  15.7519  15.7841  15.8381  16.0810  16.3787
    16.5065  16.5970  17.4774  18.4372  26.1682

     occupation numbers 
     1.0000   1.0000   1.0000   1.0000   1.0000   1.0000   1.0000   1.0000
     1.0000   1.0000   1.0000   1.0000   1.0000   1.0000   1.0000   1.0000
     1.0000   1.0000   1.0000   0.0000   0.0000

          k = 0.0000 0.0962 0.2062 (  2875 PWs)   bands (ev):

   -77.7522 -77.7264 -41.0829 -40.9357 -40.8853 -40.8767 -40.8594 -40.8528
    10.7350  12.9101  15.4145  15.4750  15.5619  15.7222  15.9194  15.9928
    16.8414  16.8865  17.3755  17.6664  29.4180

     occupation numbers 
     1.0000   1.0000   1.0000   1.0000   1.0000   1.0000   1.0000   1.0000
     1.0000   1.0000   1.0000   1.0000   1.0000   1.0000   1.0000   1.0000
     1.0000   1.0000   1.0000   1.0000   0.0000

          k = 0.0000 0.0962-0.3093 (  2880 PWs)   bands (ev):

   -77.7393 -77.7393 -41.0097 -41.0097 -40.8723 -40.8723 -40.8648 -40.8648
    11.8665  11.8665  15.2727  15.2727  15.7036  15.7036  15.7748  15.7748
    17.1568  17.1568  17.2581  17.2581  33.2551

     occupation numbers 
     1.0000   1.0000   1.0000   1.0000   1.0000   1.0000   1.0000   1.0000
     1.0000   1.0000   1.0000   1.0000   1.0000   1.0000   1.0000   1.0000
     1.0000   1.0000   1.0000   1.0000   0.0000

          k = 0.0000 0.1925 0.0000 (  2874 PWs)   bands (ev):

   -77.7568 -77.7100 -41.1365 -40.9390 -40.9016 -40.8951 -40.8626 -40.8478
    10.3810  13.7293  15.2545  15.5321  15.8456  16.1464  16.1804  16.2232
    16.3438  16.4356  17.5630  20.7912  24.7197

     occupation numbers 
     1.0000   1.0000   1.0000   1.0000   1.0000   1.0000   1.0000   1.0000
     1.0000   1.0000   1.0000   1.0000   1.0000   1.0000   1.0000   1.0000
     1.0000   1.0000   1.0000   0.0000   0.0000

          k = 0.0000 0.1925 0.1031 (  2879 PWs)   bands (ev):

   -77.7536 -77.7132 -41.1208 -40.9340 -40.9124 -40.8980 -40.8663 -40.8515
    10.6357  13.7185  15.2637  15.2942  15.7287  15.9844  16.1086  16.3205
    16.4925  16.5860  17.5242  19.6523  26.5240

     occupation numbers 
     1.0000   1.0000   1.0000   1.0000   1.0000   1.0000   1.0000   1.0000
     1.0000   1.0000   1.0000   1.0000   1.0000   1.0000   1.0000   1.0000
     1.0000   1.0000   1.0000   0.0000   0.0000

          k = 0.0000 0.1925 0.2062 (  2883 PWs)   bands (ev):

   -77.7451 -77.7217 -41.0780 -40.9592 -40.9180 -40.8882 -40.8791 -40.8613
    11.3631  13.3922  14.9284  15.3463  15.4555  15.9327  15.9355  16.1723
    16.8173  16.9763  17.3886  18.3052  29.8747

     occupation numbers 
     1.0000   1.0000   1.0000   1.0000   1.0000   1.0000   1.0000   1.0000
     1.0000   1.0000   1.0000   1.0000   1.0000   1.0000   1.0000   1.0000
     1.0000   1.0000   1.0000   0.9995   0.0000

          k = 0.0000 0.1925-0.3093 (  2888 PWs)   bands (ev):

   -77.7334 -77.7334 -41.0190 -41.0190 -40.8984 -40.8984 -40.8748 -40.8748
    12.4173  12.4173  15.0437  15.0437  15.6503  15.6503  16.0126  16.0126
    17.1422  17.1422  17.5026  17.5026  33.7062

     occupation numbers 
     1.0000   1.0000   1.0000   1.0000   1.0000   1.0000   1.0000   1.0000
     1.0000   1.0000   1.0000   1.0000   1.0000   1.0000   1.0000   1.0000
     1.0000   1.0000   1.0000   1.0000   0.0000

          k = 0.0000 0.2887 0.0000 (  2882 PWs)   bands (ev):

   -77.7450 -77.7056 -41.1077 -40.9946 -40.9508 -40.9188 -40.8768 -40.8578
    11.4299  14.0150  14.8244  15.0898  15.7530  15.9404  16.1490  16.6356
    16.6415  16.8318  17.6223  22.5608  24.9977

     occupation numbers 
     1.0000   1.0000   1.0000   1.0000   1.0000   1.0000   1.0000   1.0000
     1.0000   1.0000   1.0000   1.0000   1.0000   1.0000   1.0000   1.0000
     1.0000   1.0000   1.0000   0.0000   0.0000

          k = 0.0000 0.2887 0.1031 (  2890 PWs)   bands (ev):

   -77.7424 -77.7082 -41.1007 -40.9853 -40.9642 -40.9147 -40.8799 -40.8619
    11.6430  14.0577  14.6829  15.1393  15.6036  15.9782  16.1551  16.6786
    16.7582  16.7869  17.5691  20.9177  27.1596

     occupation numbers 
     1.0000   1.0000   1.0000   1.0000   1.0000   1.0000   1.0000   1.0000
     1.0000   1.0000   1.0000   1.0000   1.0000   1.0000   1.0000   1.0000
     1.0000   1.0000   1.0000   0.0000   0.0000

          k = 0.0000 0.2887 0.2062 (  2894 PWs)   bands (ev):

   -77.7352 -77.7155 -41.0792 -41.0042 -40.9532 -40.9036 -40.8940 -40.8731
    12.2365  13.8238  14.6012  15.1730  15.4735  16.0003  16.0982  16.5292
    16.9367  17.1360  17.4143  19.0721  30.4951

     occupation numbers 
     1.0000   1.0000   1.0000   1.0000   1.0000   1.0000   1.0000   1.0000
     1.0000   1.0000   1.0000   1.0000   1.0000   1.0000   1.0000   1.0000
     1.0000   1.0000   1.0000   0.0000   0.0000

          k = 0.0000 0.2887-0.3093 (  2904 PWs)   bands (ev):

   -77.7253 -77.7253 -41.0447 -41.0447 -40.9207 -40.9207 -40.8884 -40.8884
    13.0585  13.0585  14.8929  14.8929  15.7076  15.7076  16.2962  16.2962
    17.1844  17.1844  17.8451  17.8451  32.5526

     occupation numbers 
     1.0000   1.0000   1.0000   1.0000   1.0000   1.0000   1.0000   1.0000
     1.0000   1.0000   1.0000   1.0000   1.0000   1.0000   1.0000   1.0000
     1.0000   1.0000   1.0000   1.0000   0.0000

          k = 0.0000 0.3849 0.0000 (  2888 PWs)   bands (ev):

   -77.7325 -77.7020 -41.0741 -41.0507 -41.0055 -40.9356 -40.8960 -40.8682
    12.5822  13.9532  14.3118  15.1920  15.7549  15.8721  15.9755  17.1204
    17.2612  17.3103  17.6630  24.4919  25.0659

     occupation numbers 
     1.0000   1.0000   1.0000   1.0000   1.0000   1.0000   1.0000   1.0000
     1.0000   1.0000   1.0000   1.0000   1.0000   1.0000   1.0000   1.0000
     1.0000   1.0000   1.0000   0.0000   0.0000

          k = 0.0000 0.3849 0.1031 (  2887 PWs)   bands (ev):

   -77.7305 -77.7041 -41.0919 -41.0286 -41.0099 -40.9311 -40.8959 -40.8727
    12.6842  13.9857  14.3427  15.0551  15.7914  15.8454  16.3140  17.1397
    17.1699  17.2473  17.6113  22.1485  27.1724

     occupation numbers 
     1.0000   1.0000   1.0000   1.0000   1.0000   1.0000   1.0000   1.0000
     1.0000   1.0000   1.0000   1.0000   1.0000   1.0000   1.0000   1.0000
     1.0000   1.0000   1.0000   0.0000   0.0000

          k = 0.0000 0.3849 0.2062 (  2895 PWs)   bands (ev):

   -77.7249 -77.7096 -41.0982 -41.0548 -40.9691 -40.9188 -40.9042 -40.8851
    12.9678  13.8074  14.4802  14.9801  15.8854  16.1005  16.6111  16.8611
    17.2423  17.3609  17.4969  19.9560  28.2465

     occupation numbers 
     1.0000   1.0000   1.0000   1.0000   1.0000   1.0000   1.0000   1.0000
     1.0000   1.0000   1.0000   1.0000   1.0000   1.0000   1.0000   1.0000
     1.0000   1.0000   1.0000   0.0000   0.0000

          k = 0.0000 0.3849-0.3093 (  2902 PWs)   bands (ev):

   -77.7173 -77.7173 -41.0838 -41.0838 -40.9293 -40.9293 -40.9020 -40.9020
    13.3773  13.3773  14.7703  14.7703  16.2917  16.2917  16.4693  16.4693
    17.3650  17.3650  18.3240  18.3240  29.3619

     occupation numbers 
     1.0000   1.0000   1.0000   1.0000   1.0000   1.0000   1.0000   1.0000
     1.0000   1.0000   1.0000   1.0000   1.0000   1.0000   1.0000   1.0000
     1.0000   1.0000   0.9138   0.9138   0.0000

          k = 0.0000 0.4811 0.0000 (  2904 PWs)   bands (ev):

   -77.7222 -77.7005 -41.0921 -41.0450 -41.0429 -40.9477 -40.9165 -40.8760
    13.3525  13.7699  14.0056  15.5397  15.6281  15.8528  16.0708  17.4825
    17.6169  17.6847  18.4003  23.2316  26.4877

     occupation numbers 
     1.0000   1.0000   1.0000   1.0000   1.0000   1.0000   1.0000   1.0000
     1.0000   1.0000   1.0000   1.0000   1.0000   1.0000   1.0000   1.0000
     1.0000   1.0000   0.0000   0.0000   0.0000

          k = 0.0000 0.4811 0.1031 (  2899 PWs)   bands (ev):

   -77.7207 -77.7020 -41.1105 -41.0618 -41.0115 -40.9429 -40.9125 -40.8808
    13.2498  13.7689  14.3087  14.9526  15.7388  16.0689  16.6602  17.4228
    17.5173  17.6860  18.2452  22.4725  25.7693

     occupation numbers 
     1.0000   1.0000   1.0000   1.0000   1.0000   1.0000   1.0000   1.0000
     1.0000   1.0000   1.0000   1.0000   1.0000   1.0000   1.0000   1.0000
     1.0000   1.0000   1.0000   0.0000   0.0000

          k = 0.0000 0.4811 0.2062 (  2898 PWs)   bands (ev):

   -77.7168 -77.7059 -41.1244 -41.0926 -40.9663 -40.9298 -40.9129 -40.8940
    13.2232  13.6967  14.4669  14.7908  16.0528  16.3067  17.0204  17.5471
    17.5948  17.6523  17.9468  20.7830  25.8923

     occupation numbers 
     1.0000   1.0000   1.0000   1.0000   1.0000   1.0000   1.0000   1.0000
     1.0000   1.0000   1.0000   1.0000   1.0000   1.0000   1.0000   1.0000
     1.0000   1.0000   1.0000   0.0000   0.0000

          k = 0.0000 0.4811-0.3093 (  2890 PWs)   bands (ev):

   -77.7113 -77.7113 -41.1175 -41.1175 -40.9305 -40.9305 -40.9119 -40.9119
    13.4073  13.4073  14.6523  14.6523  16.5138  16.5138  17.0009  17.0009
    17.6000  17.6000  19.1507  19.1507  26.6697

     occupation numbers 
     1.0000   1.0000   1.0000   1.0000   1.0000   1.0000   1.0000   1.0000
     1.0000   1.0000   1.0000   1.0000   1.0000   1.0000   1.0000   1.0000
     1.0000   1.0000   0.0000   0.0000   0.0000

          k = 0.0000-0.5774 0.0000 (  2886 PWs)   bands (ev):

   -77.7179 -77.7005 -41.1073 -41.0592 -41.0283 -40.9520 -40.9272 -40.8788
    13.6209  13.6259  13.9040  15.5833  15.7824  15.8086  16.1453  17.6134
    17.6913  17.7608  19.5433  21.5166  27.7825

     occupation numbers 
     1.0000   1.0000   1.0000   1.0000   1.0000   1.0000   1.0000   1.0000
     1.0000   1.0000   1.0000   1.0000   1.0000   1.0000   1.0000   1.0000
     1.0000   1.0000   0.0000   0.0000   0.0000

          k = 0.0000-0.5774 0.1031 (  2896 PWs)   bands (ev):

   -77.7167 -77.7016 -41.1219 -41.0753 -41.0036 -40.9472 -40.9211 -40.8838
    13.3548  13.6752  14.3438  14.9251  15.6997  16.1546  16.8561  17.4834
    17.6593  17.7531  19.3446  21.3483  26.8986

     occupation numbers 
     1.0000   1.0000   1.0000   1.0000   1.0000   1.0000   1.0000   1.0000
     1.0000   1.0000   1.0000   1.0000   1.0000   1.0000   1.0000   1.0000
     1.0000   1.0000   0.0000   0.0000   0.0000

          k = 0.0000-0.5774 0.2062 (  2894 PWs)   bands (ev):

   -77.7135 -77.7048 -41.1358 -41.1064 -40.9623 -40.9338 -40.9171 -40.8972
    13.2461  13.6534  14.4911  14.7042  16.0307  16.4474  17.0545  17.6750
    17.7090  17.7322  19.0441  20.7743  25.8294

     occupation numbers 
     1.0000   1.0000   1.0000   1.0000   1.0000   1.0000   1.0000   1.0000
     1.0000   1.0000   1.0000   1.0000   1.0000   1.0000   1.0000   1.0000
     1.0000   1.0000   0.0000   0.0000   0.0000

          k = 0.0000-0.5774-0.3093 (  2892 PWs)   bands (ev):

   -77.7092 -77.7092 -41.1304 -41.1304 -40.9303 -40.9303 -40.9155 -40.9155
    13.3922  13.3922  14.6058  14.6058  16.5177  16.5177  17.2371  17.2371
    17.7034  17.7034  19.8022  19.8022  25.4204

     occupation numbers 
     1.0000   1.0000   1.0000   1.0000   1.0000   1.0000   1.0000   1.0000
     1.0000   1.0000   1.0000   1.0000   1.0000   1.0000   1.0000   1.0000
     1.0000   1.0000   0.0000   0.0000   0.0000

          k = 0.0833 0.1443 0.0000 (  2866 PWs)   bands (ev):

   -77.7594 -77.7111 -41.1427 -40.9236 -40.9036 -40.8766 -40.8597 -40.8475
    10.1554  13.6296  15.3115  15.7726  15.9128  16.0778  16.0934  16.1188
    16.3768  16.4610  17.5368  20.3516  24.6701

     occupation numbers 
     1.0000   1.0000   1.0000   1.0000   1.0000   1.0000   1.0000   1.0000
     1.0000   1.0000   1.0000   1.0000   1.0000   1.0000   1.0000   1.0000
     1.0000   1.0000   1.0000   0.0000   0.0000

          k = 0.0833 0.1443 0.1031 (  2868 PWs)   bands (ev):

   -77.7562 -77.7144 -41.1257 -40.9190 -40.9064 -40.8910 -40.8610 -40.8509
    10.4161  13.6044  15.3364  15.4471  15.7712  15.9472  16.0842  16.2388
    16.5173  16.5696  17.5057  19.3225  26.4029

     occupation numbers 
     1.0000   1.0000   1.0000   1.0000   1.0000   1.0000   1.0000   1.0000
     1.0000   1.0000   1.0000   1.0000   1.0000   1.0000   1.0000   1.0000
     1.0000   1.0000   1.0000   0.0000   0.0000

          k = 0.0833 0.1443 0.2062 (  2888 PWs)   bands (ev):

   -77.7473 -77.7232 -41.0792 -40.9504 -40.9066 -40.8883 -40.8704 -40.8602
    11.1620  13.2504  15.0498  15.3929  15.4667  15.8735  15.9457  16.0935
    16.8458  16.9217  17.3879  18.1201  29.7256

     occupation numbers 
     1.0000   1.0000   1.0000   1.0000   1.0000   1.0000   1.0000   1.0000
     1.0000   1.0000   1.0000   1.0000   1.0000   1.0000   1.0000   1.0000
     1.0000   1.0000   1.0000   1.0000   0.0000

          k = 0.0833 0.1443-0.3093 (  2888 PWs)   bands (ev):

   -77.7353 -77.7353 -41.0151 -41.0151 -40.8906 -40.8906 -40.8720 -40.8720
    12.2475  12.2475  15.1014  15.1014  15.6505  15.6505  15.9504  15.9504
    17.1474  17.1474  17.4262  17.4262  33.5751

     occupation numbers 
     1.0000   1.0000   1.0000   1.0000   1.0000   1.0000   1.0000   1.0000
     1.0000   1.0000   1.0000   1.0000   1.0000   1.0000   1.0000   1.0000
     1.0000   1.0000   1.0000   1.0000   0.0000

          k = 0.0833 0.2406 0.0000 (  2882 PWs)   bands (ev):

   -77.7494 -77.7071 -41.1187 -40.9681 -40.9406 -40.9039 -40.8712 -40.8589
    11.0339  13.9920  15.0454  15.0844  15.7938  15.8999  16.3120  16.3274
    16.5073  16.7830  17.5817  21.9219  24.9020

     occupation numbers 
     1.0000   1.0000   1.0000   1.0000   1.0000   1.0000   1.0000   1.0000
     1.0000   1.0000   1.0000   1.0000   1.0000   1.0000   1.0000   1.0000
     1.0000   1.0000   1.0000   0.0000   0.0000

          k = 0.0833 0.2406 0.1031 (  2880 PWs)   bands (ev):

   -77.7466 -77.7100 -41.1076 -40.9614 -40.9488 -40.9083 -40.8731 -40.8624
    11.2679  14.0255  14.8773  15.0934  15.6731  15.9306  16.1285  16.4432
    16.6965  16.7652  17.5452  20.4814  26.9203

     occupation numbers 
     1.0000   1.0000   1.0000   1.0000   1.0000   1.0000   1.0000   1.0000
     1.0000   1.0000   1.0000   1.0000   1.0000   1.0000   1.0000   1.0000
     1.0000   1.0000   1.0000   0.0000   0.0000

          k = 0.0833 0.2406 0.2062 (  2888 PWs)   bands (ev):

   -77.7389 -77.7177 -41.0765 -40.9854 -40.9387 -40.9063 -40.8830 -40.8723
    11.9293  13.7628  14.6825  15.1953  15.4168  15.8308  16.0776  16.4033
    16.9352  17.0497  17.4274  18.8053  30.3247

     occupation numbers 
     1.0000   1.0000   1.0000   1.0000   1.0000   1.0000   1.0000   1.0000
     1.0000   1.0000   1.0000   1.0000   1.0000   1.0000   1.0000   1.0000
     1.0000   1.0000   1.0000   0.0000   0.0000

          k = 0.0833 0.2406-0.3093 (  2906 PWs)   bands (ev):

   -77.7283 -77.7283 -41.0322 -41.0322 -40.9146 -40.9146 -40.8845 -40.8845
    12.8721  12.8721  14.9465  14.9465  15.5498  15.5498  16.2219  16.2219
    17.1915  17.1915  17.7222  17.7222  33.9055

     occupation numbers 
     1.0000   1.0000   1.0000   1.0000   1.0000   1.0000   1.0000   1.0000
     1.0000   1.0000   1.0000   1.0000   1.0000   1.0000   1.0000   1.0000
     1.0000   1.0000   1.0000   1.0000   0.0000

          k = 0.0833 0.3368 0.0000 (  2892 PWs)   bands (ev):

   -77.7372 -77.7032 -41.0872 -41.0226 -40.9872 -40.9287 -40.8881 -40.8712
    12.1699  14.1145  14.5226  14.9729  15.7163  15.8031  16.1207  16.7217
    16.9981  17.3347  17.6195  23.7350  25.2528

     occupation numbers 
     1.0000   1.0000   1.0000   1.0000   1.0000   1.0000   1.0000   1.0000
     1.0000   1.0000   1.0000   1.0000   1.0000   1.0000   1.0000   1.0000
     1.0000   1.0000   1.0000   0.0000   0.0000

          k = 0.0833 0.3368 0.1031 (  2886 PWs)   bands (ev):

   -77.7350 -77.7055 -41.0902 -41.0108 -40.9925 -40.9285 -40.8887 -40.8744
    12.3349  14.1798  14.4303  15.0201  15.5893  15.9402  16.1014  16.7434
    17.0862  17.2016  17.6270  21.7332  27.6450

     occupation numbers 
     1.0000   1.0000   1.0000   1.0000   1.0000   1.0000   1.0000   1.0000
     1.0000   1.0000   1.0000   1.0000   1.0000   1.0000   1.0000   1.0000
     1.0000   1.0000   1.0000   0.0000   0.0000

          k = 0.0833 0.3368 0.2062 (  2893 PWs)   bands (ev):

   -77.7287 -77.7117 -41.0854 -41.0330 -40.9636 -40.9225 -40.8972 -40.8836
    12.7812  13.9436  14.5331  15.0958  15.5028  15.9676  16.1502  16.7240
    17.1585  17.3176  17.5942  19.6557  29.8775

     occupation numbers 
     1.0000   1.0000   1.0000   1.0000   1.0000   1.0000   1.0000   1.0000
     1.0000   1.0000   1.0000   1.0000   1.0000   1.0000   1.0000   1.0000
     1.0000   1.0000   1.0000   0.0000   0.0000

          k = 0.0833 0.3368-0.3093 (  2900 PWs)   bands (ev):

   -77.7202 -77.7202 -41.0646 -41.0646 -40.9305 -40.9305 -40.8977 -40.8977
    13.3756  13.3756  14.8699  14.8699  15.7170  15.7170  16.4120  16.4120
    17.3856  17.3856  18.1773  18.1773  31.0629

     occupation numbers 
     1.0000   1.0000   1.0000   1.0000   1.0000   1.0000   1.0000   1.0000
     1.0000   1.0000   1.0000   1.0000   1.0000   1.0000   1.0000   1.0000
     1.0000   1.0000   1.0000   1.0000   0.0000

          k = 0.0833 0.4330 0.0000 (  2901 PWs)   bands (ev):

   -77.7256 -77.7008 -41.0710 -41.0539 -41.0281 -40.9481 -40.9089 -40.8818
    13.1801  13.9464  14.1428  15.1925  15.5981  15.9306  15.9904  17.2165
    17.4170  17.6429  18.1154  24.5610  25.7068

     occupation numbers 
     1.0000   1.0000   1.0000   1.0000   1.0000   1.0000   1.0000   1.0000
     1.0000   1.0000   1.0000   1.0000   1.0000   1.0000   1.0000   1.0000
     1.0000   1.0000   1.0000   0.0000   0.0000

          k = 0.0833 0.4330 0.1031 (  2896 PWs)   bands (ev):

   -77.7240 -77.7025 -41.0957 -41.0470 -41.0126 -40.9450 -40.9067 -40.8848
    13.1784  13.9712  14.2877  14.9618  15.6763  16.0027  16.2716  17.1652
    17.4651  17.4769  18.1160  22.8006  26.2851

     occupation numbers 
     1.0000   1.0000   1.0000   1.0000   1.0000   1.0000   1.0000   1.0000
     1.0000   1.0000   1.0000   1.0000   1.0000   1.0000   1.0000   1.0000
     1.0000   1.0000   1.0000   0.0000   0.0000

          k = 0.0833 0.4330 0.2062 (  2891 PWs)   bands (ev):

   -77.7194 -77.7070 -41.1087 -41.0752 -40.9703 -40.9337 -40.9115 -40.8923
    13.2672  13.8427  14.4707  14.9395  15.7834  16.2006  16.6463  16.9110
    17.3372  17.6345  18.1832  20.6700  26.9877

     occupation numbers 
     1.0000   1.0000   1.0000   1.0000   1.0000   1.0000   1.0000   1.0000
     1.0000   1.0000   1.0000   1.0000   1.0000   1.0000   1.0000   1.0000
     1.0000   1.0000   1.0000   0.0000   0.0000

          k = 0.0833 0.4330-0.3093 (  2890 PWs)   bands (ev):

   -77.7132 -77.7132 -41.1003 -41.1003 -40.9387 -40.9387 -40.9068 -40.9068
    13.5127  13.5127  14.7577  14.7577  16.2141  16.2141  16.5911  16.5911
    17.5861  17.5861  19.0135  19.0135  28.0274

     occupation numbers 
     1.0000   1.0000   1.0000   1.0000   1.0000   1.0000   1.0000   1.0000
     1.0000   1.0000   1.0000   1.0000   1.0000   1.0000   1.0000   1.0000
     1.0000   1.0000   0.0000   0.0000   0.0000

          k = 0.0833 0.5292 0.0000 (  2910 PWs)   bands (ev):

   -77.7179 -77.7005 -41.0991 -41.0518 -41.0285 -40.9588 -40.9270 -40.8880
    13.6406  13.7854  13.9530  15.5469  15.5524  15.8032  16.1425  17.5714
    17.6424  17.6532  19.3727  22.2761  27.5906

     occupation numbers 
     1.0000   1.0000   1.0000   1.0000   1.0000   1.0000   1.0000   1.0000
     1.0000   1.0000   1.0000   1.0000   1.0000   1.0000   1.0000   1.0000
     1.0000   1.0000   0.0000   0.0000   0.0000

          k = 0.0833 0.5292 0.1031 (  2895 PWs)   bands (ev):

   -77.7167 -77.7016 -41.1139 -41.0683 -41.0050 -40.9526 -40.9222 -40.8911
    13.4326  13.8031  14.3728  14.9070  15.6039  16.1927  16.5269  17.4324
    17.5992  17.6735  19.3104  22.0270  26.3083

     occupation numbers 
     1.0000   1.0000   1.0000   1.0000   1.0000   1.0000   1.0000   1.0000
     1.0000   1.0000   1.0000   1.0000   1.0000   1.0000   1.0000   1.0000
     1.0000   1.0000   0.0000   0.0000   0.0000

          k = 0.0833 0.5292 0.2062 (  2897 PWs)   bands (ev):

   -77.7135 -77.7048 -41.1279 -41.0992 -40.9699 -40.9348 -40.9236 -40.8974
    13.3470  13.7770  14.4984  14.8077  15.7751  16.5021  16.9062  17.1528
    17.5586  17.7471  19.3615  21.1965  25.5648

     occupation numbers 
     1.0000   1.0000   1.0000   1.0000   1.0000   1.0000   1.0000   1.0000
     1.0000   1.0000   1.0000   1.0000   1.0000   1.0000   1.0000   1.0000
     1.0000   1.0000   0.0000   0.0000   0.0000

          k = 0.0833 0.5292-0.3093 (  2894 PWs)   bands (ev):

   -77.7092 -77.7092 -41.1228 -41.1228 -40.9431 -40.9431 -40.9105 -40.9105
    13.5027  13.5027  14.6758  14.6758  16.3122  16.3122  17.0159  17.0159
    17.6264  17.6264  20.0921  20.0921  25.8366

     occupation numbers 
     1.0000   1.0000   1.0000   1.0000   1.0000   1.0000   1.0000   1.0000
     1.0000   1.0000   1.0000   1.0000   1.0000   1.0000   1.0000   1.0000
     1.0000   1.0000   0.0000   0.0000   0.0000

          k = 0.1667 0.2887 0.0000 (  2890 PWs)   bands (ev):

   -77.7389 -77.7037 -41.0918 -41.0004 -40.9914 -40.9207 -40.8855 -40.8788
    12.0243  14.2851  14.6338  14.7584  15.6473  15.8026  16.2127  16.4908
    16.9861  17.3555  17.5819  23.4790  25.2914

     occupation numbers 
     1.0000   1.0000   1.0000   1.0000   1.0000   1.0000   1.0000   1.0000
     1.0000   1.0000   1.0000   1.0000   1.0000   1.0000   1.0000   1.0000
     1.0000   1.0000   1.0000   0.0000   0.0000

          k = 0.1667 0.2887 0.1031 (  2900 PWs)   bands (ev):

   -77.7366 -77.7060 -41.0904 -40.9986 -40.9864 -40.9284 -40.8827 -40.8823
    12.2105  14.3792  14.4947  14.8100  15.6194  15.8126  16.0938  16.5697
    17.1015  17.1923  17.6396  21.5955  27.6434

     occupation numbers 
     1.0000   1.0000   1.0000   1.0000   1.0000   1.0000   1.0000   1.0000
     1.0000   1.0000   1.0000   1.0000   1.0000   1.0000   1.0000   1.0000
     1.0000   1.0000   1.0000   0.0000   0.0000

          k = 0.1667 0.2887 0.2062 (  2892 PWs)   bands (ev):

   -77.7301 -77.7125 -41.0799 -41.0235 -40.9559 -40.9313 -40.8920 -40.8863
    12.7206  14.0615  14.6352  14.9592  15.4500  15.6795  16.0902  16.6635
    17.1699  17.2976  17.6690  19.5784  30.9851

     occupation numbers 
     1.0000   1.0000   1.0000   1.0000   1.0000   1.0000   1.0000   1.0000
     1.0000   1.0000   1.0000   1.0000   1.0000   1.0000   1.0000   1.0000
     1.0000   1.0000   1.0000   0.0000   0.0000

          k = 0.1667 0.2887-0.3093 (  2906 PWs)   bands (ev):

   -77.7213 -77.7213 -41.0557 -41.0557 -40.9321 -40.9321 -40.8968 -40.8968
    13.4081  13.4081  14.9515  14.9515  15.4010  15.4010  16.3628  16.3628
    17.4344  17.4344  18.1567  18.1567  32.7824

     occupation numbers 
     1.0000   1.0000   1.0000   1.0000   1.0000   1.0000   1.0000   1.0000
     1.0000   1.0000   1.0000   1.0000   1.0000   1.0000   1.0000   1.0000
     1.0000   1.0000   1.0000   1.0000   0.0000

          k = 0.1667 0.3849 0.0000 (  2900 PWs)   bands (ev):

   -77.7276 -77.7010 -41.0598 -41.0433 -41.0228 -40.9467 -40.9049 -40.8979
    13.1141  14.2748  14.2808  14.7283  15.4946  15.9426  16.0248  16.7929
    17.4171  17.5785  18.1401  25.3146  25.6688

     occupation numbers 
     1.0000   1.0000   1.0000   1.0000   1.0000   1.0000   1.0000   1.0000
     1.0000   1.0000   1.0000   1.0000   1.0000   1.0000   1.0000   1.0000
     1.0000   1.0000   1.0000   0.0000   0.0000

          k = 0.1667 0.3849 0.1031 (  2895 PWs)   bands (ev):

   -77.7258 -77.7028 -41.0810 -41.0398 -41.0020 -40.9532 -40.9051 -40.8944
    13.1949  14.2129  14.3742  14.8084  15.5489  15.9217  15.9826  16.8242
    17.3681  17.5035  18.2261  22.8765  27.7246

     occupation numbers 
     1.0000   1.0000   1.0000   1.0000   1.0000   1.0000   1.0000   1.0000
     1.0000   1.0000   1.0000   1.0000   1.0000   1.0000   1.0000   1.0000
     1.0000   1.0000   1.0000   0.0000   0.0000

          k = 0.1667 0.3849 0.2062 (  2889 PWs)   bands (ev):

   -77.7209 -77.7077 -41.0920 -41.0606 -40.9677 -40.9510 -40.9119 -40.8923
    13.4132  14.0145  14.6158  15.0368  15.4728  15.7602  16.1142  16.7869
    17.2755  17.6510  18.4075  20.6838  28.6815

     occupation numbers 
     1.0000   1.0000   1.0000   1.0000   1.0000   1.0000   1.0000   1.0000
     1.0000   1.0000   1.0000   1.0000   1.0000   1.0000   1.0000   1.0000
     1.0000   1.0000   0.0000   0.0000   0.0000

          k = 0.1667 0.3849-0.3093 (  2886 PWs)   bands (ev):

   -77.7143 -77.7143 -41.0833 -41.0833 -40.9503 -40.9503 -40.9042 -40.9042
    13.7132  13.7132  14.9506  14.9506  15.5498  15.5498  16.3808  16.3808
    17.6389  17.6389  19.0997  19.0997  29.8296

     occupation numbers 
     1.0000   1.0000   1.0000   1.0000   1.0000   1.0000   1.0000   1.0000
     1.0000   1.0000   1.0000   1.0000   1.0000   1.0000   1.0000   1.0000
     1.0000   1.0000   0.0000   0.0000   0.0000

          k = 0.1667 0.4811 0.0000 (  2903 PWs)   bands (ev):

   -77.7179 -77.7004 -41.0777 -41.0381 -41.0289 -40.9714 -40.9266 -40.9109
    13.8115  14.0631  14.0797  15.0269  15.4532  15.8201  16.1394  17.1930
    17.5750  17.6301  19.2957  23.9208  27.3055

     occupation numbers 
     1.0000   1.0000   1.0000   1.0000   1.0000   1.0000   1.0000   1.0000
     1.0000   1.0000   1.0000   1.0000   1.0000   1.0000   1.0000   1.0000
     1.0000   1.0000   0.0000   0.0000   0.0000

          k = 0.1667 0.4811 0.1031 (  2899 PWs)   bands (ev):

   -77.7168 -77.7016 -41.0929 -41.0571 -41.0045 -40.9671 -40.9260 -40.9059
    13.6638  14.1417  14.3160  14.8504  15.5044  15.9535  16.2063  17.1767
    17.3845  17.6907  19.3787  23.3863  26.1029

     occupation numbers 
     1.0000   1.0000   1.0000   1.0000   1.0000   1.0000   1.0000   1.0000
     1.0000   1.0000   1.0000   1.0000   1.0000   1.0000   1.0000   1.0000
     1.0000   1.0000   0.0000   0.0000   0.0000

          k = 0.1667 0.4811 0.2062 (  2899 PWs)   bands (ev):

   -77.7136 -77.7048 -41.1082 -41.0841 -40.9844 -40.9523 -40.9258 -40.8985
    13.6273  14.0611  14.5137  15.0476  15.4016  16.0763  16.4181  16.8725
    17.3605  17.7655  19.6904  21.8871  26.1702

     occupation numbers 
     1.0000   1.0000   1.0000   1.0000   1.0000   1.0000   1.0000   1.0000
     1.0000   1.0000   1.0000   1.0000   1.0000   1.0000   1.0000   1.0000
     1.0000   1.0000   0.0000   0.0000   0.0000

          k = 0.1667 0.4811-0.3093 (  2890 PWs)   bands (ev):

   -77.7092 -77.7092 -41.1050 -41.1050 -40.9653 -40.9653 -40.9063 -40.9063
    13.7825  13.7825  14.8527  14.8527  15.8040  15.8040  16.5669  16.5669
    17.6443  17.6443  20.4936  20.4936  27.0464

     occupation numbers 
     1.0000   1.0000   1.0000   1.0000   1.0000   1.0000   1.0000   1.0000
     1.0000   1.0000   1.0000   1.0000   1.0000   1.0000   1.0000   1.0000
     1.0000   1.0000   0.0000   0.0000   0.0000

          k = 0.1667 0.5774 0.0000 (  2900 PWs)   bands (ev):

   -77.7137 -77.7009 -41.0902 -41.0426 -41.0132 -40.9817 -40.9390 -40.9156
    13.9850  13.9855  13.9902  15.2421  15.4717  15.7121  16.2236  17.4643
    17.5734  17.6073  20.5492  22.0859  28.4603

     occupation numbers 
     1.0000   1.0000   1.0000   1.0000   1.0000   1.0000   1.0000   1.0000
     1.0000   1.0000   1.0000   1.0000   1.0000   1.0000   1.0000   1.0000
     1.0000   1.0000   0.0000   0.0000   0.0000

          k = 0.1667 0.5774 0.1031 (  2902 PWs)   bands (ev):

   -77.7128 -77.7018 -41.1021 -41.0601 -41.0072 -40.9631 -40.9388 -40.9107
    13.6916  14.0588  14.4788  14.8309  15.4280  16.0723  16.2951  17.3560
    17.4606  17.6591  20.6496  22.0409  27.4019

     occupation numbers 
     1.0000   1.0000   1.0000   1.0000   1.0000   1.0000   1.0000   1.0000
     1.0000   1.0000   1.0000   1.0000   1.0000   1.0000   1.0000   1.0000
     1.0000   1.0000   0.0000   0.0000   0.0000

          k = 0.1667 0.5774 0.2062 (  2904 PWs)   bands (ev):

   -77.7105 -77.7041 -41.1160 -41.0914 -40.9918 -40.9509 -40.9301 -40.9015
    13.6266  14.0745  14.5493  15.0056  15.3195  16.2732  16.5369  16.9415
    17.4758  17.6973  20.9580  21.8560  26.1235

     occupation numbers 
     1.0000   1.0000   1.0000   1.0000   1.0000   1.0000   1.0000   1.0000
     1.0000   1.0000   1.0000   1.0000   1.0000   1.0000   1.0000   1.0000
     1.0000   1.0000   0.0000   0.0000   0.0000

          k = 0.1667 0.5774-0.3093 (  2898 PWs)   bands (ev):

   -77.7073 -77.7073 -41.1131 -41.1131 -40.9711 -40.9711 -40.9066 -40.9066
    13.7862  13.7862  14.8134  14.8134  15.8419  15.8419  16.7673  16.7673
    17.5844  17.5844  21.4445  21.4445  25.6288

     occupation numbers 
     1.0000   1.0000   1.0000   1.0000   1.0000   1.0000   1.0000   1.0000
     1.0000   1.0000   1.0000   1.0000   1.0000   1.0000   1.0000   1.0000
     1.0000   1.0000   0.0000   0.0000   0.0000

          k = 0.2500 0.4330 0.0000 (  2900 PWs)   bands (ev):

   -77.7180 -77.7004 -41.0591 -41.0392 -41.0290 -40.9720 -40.9281 -40.9265
    13.9370  14.1265  14.4645  14.5151  15.3882  15.8368  16.1470  16.9686
    17.5348  17.6354  19.3028  25.6684  26.4195

     occupation numbers 
     1.0000   1.0000   1.0000   1.0000   1.0000   1.0000   1.0000   1.0000
     1.0000   1.0000   1.0000   1.0000   1.0000   1.0000   1.0000   1.0000
     1.0000   1.0000   0.0000   0.0000   0.0000

          k = 0.2500 0.4330 0.1031 (  2904 PWs)   bands (ev):

   -77.7168 -77.7016 -41.0723 -41.0631 -40.9906 -40.9852 -40.9307 -40.9118
    13.9437  14.0791  14.5266  14.6418  15.5378  15.6958  16.1390  17.0017
    17.3331  17.6983  19.4268  24.1650  26.7005

     occupation numbers 
     1.0000   1.0000   1.0000   1.0000   1.0000   1.0000   1.0000   1.0000
     1.0000   1.0000   1.0000   1.0000   1.0000   1.0000   1.0000   1.0000
     1.0000   1.0000   0.0000   0.0000   0.0000

          k = 0.2500 0.4330 0.2062 (  2899 PWs)   bands (ev):

   -77.7136 -77.7048 -41.0934 -41.0786 -40.9894 -40.9677 -40.9253 -40.8991
    13.9502  14.0256  14.6883  15.0193  15.3793  15.6501  16.1688  16.7878
    17.3301  17.7726  19.8013  22.1580  27.4779

     occupation numbers 
     1.0000   1.0000   1.0000   1.0000   1.0000   1.0000   1.0000   1.0000
     1.0000   1.0000   1.0000   1.0000   1.0000   1.0000   1.0000   1.0000
     1.0000   1.0000   0.0000   0.0000   0.0000

          k = 0.2500 0.4330-0.3093 (  2892 PWs)   bands (ev):

   -77.7092 -77.7092 -41.0940 -41.0940 -40.9776 -40.9776 -40.9051 -40.9051
    13.9792  13.9792  15.0006  15.0006  15.4392  15.4392  16.3705  16.3705
    17.6633  17.6633  20.6444  20.6444  28.4974

     occupation numbers 
     1.0000   1.0000   1.0000   1.0000   1.0000   1.0000   1.0000   1.0000
     1.0000   1.0000   1.0000   1.0000   1.0000   1.0000   1.0000   1.0000
     1.0000   1.0000   0.0000   0.0000   0.0000

          k = 0.2500 0.5292 0.0000 (  2908 PWs)   bands (ev):

   -77.7107 -77.7017 -41.0712 -41.0307 -41.0015 -40.9997 -40.9487 -40.9473
    14.0544  14.2314  14.3329  14.8171  15.4062  15.6415  16.3108  17.2382
    17.5090  17.5791  20.9395  23.4686  25.7746

     occupation numbers 
     1.0000   1.0000   1.0000   1.0000   1.0000   1.0000   1.0000   1.0000
     1.0000   1.0000   1.0000   1.0000   1.0000   1.0000   1.0000   1.0000
     1.0000   1.0000   0.0000   0.0000   0.0000

          k = 0.2500 0.5292 0.1031 (  2911 PWs)   bands (ev):

   -77.7101 -77.7023 -41.0779 -41.0534 -41.0181 -40.9710 -40.9521 -40.9265
    13.9970  14.3586  14.4536  14.7166  15.4348  15.6449  16.3158  17.2429
    17.3108  17.6222  21.1257  23.4930  25.8194

     occupation numbers 
     1.0000   1.0000   1.0000   1.0000   1.0000   1.0000   1.0000   1.0000
     1.0000   1.0000   1.0000   1.0000   1.0000   1.0000   1.0000   1.0000
     1.0000   1.0000   0.0000   0.0000   0.0000

          k = 0.2500 0.5292 0.2062 (  2909 PWs)   bands (ev):

   -77.7085 -77.7039 -41.0938 -41.0800 -41.0165 -40.9778 -40.9246 -40.9060
    14.0136  14.3583  14.6142  14.8985  15.3066  15.6651  16.3589  16.8154
    17.3979  17.6619  21.6201  23.2159  25.7449

     occupation numbers 
     1.0000   1.0000   1.0000   1.0000   1.0000   1.0000   1.0000   1.0000
     1.0000   1.0000   1.0000   1.0000   1.0000   1.0000   1.0000   1.0000
     1.0000   1.0000   0.0000   0.0000   0.0000

          k = 0.2500 0.5292-0.3093 (  2896 PWs)   bands (ev):

   -77.7062 -77.7062 -41.0964 -41.0964 -40.9983 -40.9983 -40.9045 -40.9045
    14.1481  14.1481  14.8986  14.8986  15.4453  15.4453  16.4837  16.4837
    17.5758  17.5758  22.3852  22.3852  26.2819

     occupation numbers 
     1.0000   1.0000   1.0000   1.0000   1.0000   1.0000   1.0000   1.0000
     1.0000   1.0000   1.0000   1.0000   1.0000   1.0000   1.0000   1.0000
     1.0000   1.0000   0.0000   0.0000   0.0000

          k = 0.3333 0.5774 0.0000 (  2898 PWs)   bands (ev):

   -77.7051 -77.7051 -41.0628 -41.0174 -41.0174 -40.9741 -40.9741 -40.9698
    14.0622  14.4241  14.4241  14.7066  15.4777  15.4777  16.4071  17.3809
    17.3809  17.4827  22.6699  23.4618  23.4618

     occupation numbers 
     1.0000   1.0000   1.0000   1.0000   1.0000   1.0000   1.0000   1.0000
     1.0000   1.0000   1.0000   1.0000   1.0000   1.0000   1.0000   1.0000
     1.0000   1.0000   0.0000   0.0000   0.0000

          k = 0.3333 0.5774 0.1031 (  2916 PWs)   bands (ev):

   -77.7051 -77.7051 -41.0566 -41.0453 -41.0453 -40.9760 -40.9461 -40.9461
    14.1550  14.4462  14.4462  14.7257  15.4539  15.4539  16.3795  17.2538
    17.4199  17.4199  23.0646  23.5385  23.5385

     occupation numbers 
     1.0000   1.0000   1.0000   1.0000   1.0000   1.0000   1.0000   1.0000
     1.0000   1.0000   1.0000   1.0000   1.0000   1.0000   1.0000   1.0000
     1.0000   1.0000   0.0000   0.0000   0.0000

          k = 0.3333 0.5774 0.2062 (  2895 PWs)   bands (ev):

   -77.7051 -77.7051 -41.0758 -41.0758 -41.0396 -40.9931 -40.9153 -40.9153
    14.3925  14.4886  14.4886  14.7403  15.4129  15.4129  16.3423  16.7859
    17.4940  17.4940  23.7299  23.7299  24.0767

     occupation numbers 
     1.0000   1.0000   1.0000   1.0000   1.0000   1.0000   1.0000   1.0000
     1.0000   1.0000   1.0000   1.0000   1.0000   1.0000   1.0000   1.0000
     1.0000   1.0000   0.0000   0.0000   0.0000

          k = 0.3333 0.5774-0.3093 (  2910 PWs)   bands (ev):

   -77.7051 -77.7051 -41.0874 -41.0874 -41.0164 -41.0164 -40.9037 -40.9037
    14.5087  14.5087  14.6390  14.6390  15.3957  15.3957  16.4350  16.4350
    17.5293  17.5293  23.8543  23.8543  25.4721

     occupation numbers 
     1.0000   1.0000   1.0000   1.0000   1.0000   1.0000   1.0000   1.0000
     1.0000   1.0000   1.0000   1.0000   1.0000   1.0000   1.0000   1.0000
     1.0000   1.0000   0.0000   0.0000   0.0000

 ------ SPIN DOWN ----------


          k = 0.0000 0.0000 0.0000 (  2875 PWs)   bands (ev):

   -75.6229 -75.5657 -39.0852 -38.7967 -38.7967 -38.7477 -38.7477 -38.7450
     9.4512  14.2136  17.4343  17.4661  17.4661  17.8289  17.8289  18.0811
    18.2467  18.2467  19.4563  19.4563  25.6051

     occupation numbers 
     1.0000   1.0000   1.0000   1.0000   1.0000   1.0000   1.0000   1.0000
     1.0000   1.0000   1.0000   1.0000   1.0000   1.0000   1.0000   1.0000
     1.0000   1.0000   0.0000   0.0000   0.0000

          k = 0.0000 0.0000 0.1031 (  2887 PWs)   bands (ev):

   -75.6191 -75.5695 -39.0627 -38.7934 -38.7934 -38.7681 -38.7509 -38.7509
     9.7271  13.9749  17.3428  17.3993  17.3993  17.5025  17.7456  17.7456
    18.4235  18.4235  19.4410  19.4410  26.9180

     occupation numbers 
     1.0000   1.0000   1.0000   1.0000   1.0000   1.0000   1.0000   1.0000
     1.0000   1.0000   1.0000   1.0000   1.0000   1.0000   1.0000   1.0000
     0.0000   0.0000   0.0000   0.0000   0.0000

          k = 0.0000 0.0000 0.2062 (  2882 PWs)   bands (ev):

   -75.6086 -75.5800 -39.0011 -38.8311 -38.7844 -38.7844 -38.7599 -38.7599
    10.5255  13.0769  16.8849  17.1100  17.3423  17.3423  17.5628  17.5628
    18.7789  18.7789  19.3480  19.3480  29.8841

     occupation numbers 
     1.0000   1.0000   1.0000   1.0000   1.0000   1.0000   1.0000   1.0000
     1.0000   1.0000   1.0000   1.0000   1.0000   1.0000   1.0000   1.0000
     0.0000   0.0000   0.0000   0.0000   0.0000

          k = 0.0000 0.0000-0.3093 (  2858 PWs)   bands (ev):

   -75.5943 -75.5943 -38.9164 -38.9164 -38.7722 -38.7722 -38.7722 -38.7722
    11.7376  11.7376  16.8686  16.8686  17.4011  17.4011  17.4011  17.4011
    19.1204  19.1204  19.1204  19.1204  33.5258

     occupation numbers 
     1.0000   1.0000   1.0000   1.0000   1.0000   1.0000   1.0000   1.0000
     1.0000   1.0000   1.0000   1.0000   1.0000   1.0000   1.0000   1.0000
     0.0000   0.0000   0.0000   0.0000   0.0000

          k = 0.0000 0.0962 0.0000 (  2861 PWs)   bands (ev):

   -75.6197 -75.5642 -39.0778 -38.8128 -38.8019 -38.7644 -38.7503 -38.7481
     9.6914  14.3774  17.1830  17.4778  17.5893  17.6605  17.7660  17.9379
    18.1647  18.1780  19.4917  20.2773  25.6221

     occupation numbers 
     1.0000   1.0000   1.0000   1.0000   1.0000   1.0000   1.0000   1.0000
     1.0000   1.0000   1.0000   1.0000   1.0000   1.0000   1.0000   1.0000
     1.0000   1.0000   0.0000   0.0000   0.0000

          k = 0.0000 0.0962 0.1031 (  2875 PWs)   bands (ev):

   -75.6160 -75.5679 -39.0566 -38.8090 -38.7985 -38.7816 -38.7565 -38.7538
     9.9636  14.1518  17.0555  17.1806  17.4645  17.5058  17.7790  17.8468
    18.3707  18.3875  19.4676  19.9372  27.0009

     occupation numbers 
     1.0000   1.0000   1.0000   1.0000   1.0000   1.0000   1.0000   1.0000
     1.0000   1.0000   1.0000   1.0000   1.0000   1.0000   1.0000   1.0000
     0.0002   0.0000   0.0000   0.0000   0.0000

          k = 0.0000 0.0962 0.2062 (  2875 PWs)   bands (ev):

   -75.6059 -75.5781 -38.9986 -38.8390 -38.7983 -38.7891 -38.7690 -38.7632
    10.7515  13.2703  16.6670  17.0977  17.2379  17.4404  17.5892  17.6626
    18.7479  18.7832  19.3546  19.5366  30.0207

     occupation numbers 
     1.0000   1.0000   1.0000   1.0000   1.0000   1.0000   1.0000   1.0000
     1.0000   1.0000   1.0000   1.0000   1.0000   1.0000   1.0000   1.0000
     0.0000   0.0000   0.0000   0.0000   0.0000

          k = 0.0000 0.0962-0.3093 (  2880 PWs)   bands (ev):

   -75.5920 -75.5920 -38.9189 -38.9189 -38.7838 -38.7838 -38.7761 -38.7761
    11.9474  11.9474  16.7736  16.7736  17.3682  17.3682  17.4997  17.4997
    19.1066  19.1066  19.1824  19.1824  33.6856

     occupation numbers 
     1.0000   1.0000   1.0000   1.0000   1.0000   1.0000   1.0000   1.0000
     1.0000   1.0000   1.0000   1.0000   1.0000   1.0000   1.0000   1.0000
     0.0000   0.0000   0.0000   0.0000   0.0000

          k = 0.0000 0.1925 0.0000 (  2874 PWs)   bands (ev):

   -75.6108 -75.5604 -39.0567 -38.8571 -38.8160 -38.8097 -38.7578 -38.7573
    10.3907  14.7993  16.6618  16.8332  17.5416  17.9391  17.9638  17.9858
    18.0152  18.2442  19.5664  21.7142  25.6906

     occupation numbers 
     1.0000   1.0000   1.0000   1.0000   1.0000   1.0000   1.0000   1.0000
     1.0000   1.0000   1.0000   1.0000   1.0000   1.0000   1.0000   1.0000
     1.0000   1.0000   0.0000   0.0000   0.0000

          k = 0.0000 0.1925 0.1031 (  2879 PWs)   bands (ev):

   -75.6074 -75.5638 -39.0399 -38.8513 -38.8245 -38.8122 -38.7655 -38.7618
    10.6504  14.6173  16.4098  16.8718  17.4320  17.7197  17.7452  18.1065
    18.3350  18.3926  19.5224  20.9320  27.2800

     occupation numbers 
     1.0000   1.0000   1.0000   1.0000   1.0000   1.0000   1.0000   1.0000
     1.0000   1.0000   1.0000   1.0000   1.0000   1.0000   1.0000   1.0000
     0.5867   0.0000   0.0000   0.0000   0.0000

          k = 0.0000 0.1925 0.2062 (  2883 PWs)   bands (ev):

   -75.5982 -75.5730 -38.9940 -38.8697 -38.8330 -38.8015 -38.7855 -38.7724
    11.4004  13.7914  16.2889  16.9563  17.0734  17.5338  17.6832  17.9398
    18.7100  18.8394  19.3673  19.9964  30.4326

     occupation numbers 
     1.0000   1.0000   1.0000   1.0000   1.0000   1.0000   1.0000   1.0000
     1.0000   1.0000   1.0000   1.0000   1.0000   1.0000   1.0000   1.0000
     0.0000   0.0000   0.0000   0.0000   0.0000

          k = 0.0000 0.1925-0.3093 (  2888 PWs)   bands (ev):

   -75.5856 -75.5856 -38.9314 -38.9314 -38.8099 -38.8099 -38.7870 -38.7870
    12.5353  12.5353  16.5745  16.5745  17.2570  17.2570  17.7640  17.7640
    19.0839  19.0839  19.3570  19.3570  34.1229

     occupation numbers 
     1.0000   1.0000   1.0000   1.0000   1.0000   1.0000   1.0000   1.0000
     1.0000   1.0000   1.0000   1.0000   1.0000   1.0000   1.0000   1.0000
     0.0000   0.0000   0.0000   0.0000   0.0000

[...]
    19.5999  19.6703  20.7591  23.2227  28.1034

     occupation numbers 
     1.0000   1.0000   1.0000   1.0000   1.0000   1.0000   1.0000   1.0000
     1.0000   1.0000   1.0000   1.0000   1.0000   1.0000   1.0000   0.0000
     0.0000   0.0000   0.0000   0.0000   0.0000

          k = 0.0833 0.5292 0.1031 (  2895 PWs)   bands (ev):

   -75.5676 -75.5513 -39.0463 -38.9972 -38.9157 -38.8708 -38.8249 -38.8032
    14.3888  15.0192  15.5543  16.0690  17.2913  17.7820  17.8328  19.3971
    19.5530  19.6402  20.6260  22.8962  27.0365

     occupation numbers 
     1.0000   1.0000   1.0000   1.0000   1.0000   1.0000   1.0000   1.0000
     1.0000   1.0000   1.0000   1.0000   1.0000   1.0000   1.0000   0.0000
     0.0000   0.0000   0.0000   0.0000   0.0000

          k = 0.0833 0.5292 0.2062 (  2897 PWs)   bands (ev):

   -75.5642 -75.5548 -39.0602 -39.0295 -38.8817 -38.8479 -38.8329 -38.8057
    14.3774  14.8554  15.8520  16.1639  17.3384  18.0848  18.2793  18.9405
    19.5034  19.7297  20.4147  21.9812  26.4814

     occupation numbers 
     1.0000   1.0000   1.0000   1.0000   1.0000   1.0000   1.0000   1.0000
     1.0000   1.0000   1.0000   1.0000   1.0000   1.0000   1.0000   0.0000
     0.0000   0.0000   0.0000   0.0000   0.0000

          k = 0.0833 0.5292-0.3093 (  2894 PWs)   bands (ev):

   -75.5595 -75.5595 -39.0545 -39.0545 -38.8552 -38.8552 -38.8192 -38.8192
    14.5565  14.5565  16.1181  16.1181  17.8270  17.8270  18.5872  18.5872
    19.5844  19.5844  20.9430  20.9430  26.7342

     occupation numbers 
     1.0000   1.0000   1.0000   1.0000   1.0000   1.0000   1.0000   1.0000
     1.0000   1.0000   1.0000   1.0000   1.0000   1.0000   0.0000   0.0000
     0.0000   0.0000   0.0000   0.0000   0.0000

          k = 0.1667 0.2887 0.0000 (  2890 PWs)   bands (ev):

   -75.5916 -75.5535 -39.0076 -38.9241 -38.9150 -38.8369 -38.7915 -38.7821
    12.0955  15.5048  15.8374  16.1937  17.3472  17.4183  17.9109  18.2975
    18.8296  19.1820  19.5877  24.2652  26.0581

     occupation numbers 
     1.0000   1.0000   1.0000   1.0000   1.0000   1.0000   1.0000   1.0000
     1.0000   1.0000   1.0000   1.0000   1.0000   1.0000   1.0000   1.0000
     0.0000   0.0000   0.0000   0.0000   0.0000

          k = 0.1667 0.2887 0.1031 (  2900 PWs)   bands (ev):

   -75.5890 -75.5561 -39.0084 -38.9217 -38.9066 -38.8431 -38.7957 -38.7819
    12.3083  15.4310  15.7410  16.2588  17.2617  17.4457  17.8011  18.3794
    18.9565  19.0639  19.5935  22.6263  28.2441

     occupation numbers 
     1.0000   1.0000   1.0000   1.0000   1.0000   1.0000   1.0000   1.0000
     1.0000   1.0000   1.0000   1.0000   1.0000   1.0000   1.0000   0.0000
     0.0000   0.0000   0.0000   0.0000   0.0000

          k = 0.1667 0.2887 0.2062 (  2892 PWs)   bands (ev):

   -75.5821 -75.5630 -39.0005 -38.9456 -38.8700 -38.8453 -38.8057 -38.7907
    12.9124  14.7419  15.9881  16.4248  17.0096  17.2812  17.8547  18.4447
    19.0686  19.1804  19.5438  20.9286  31.4715

     occupation numbers 
     1.0000   1.0000   1.0000   1.0000   1.0000   1.0000   1.0000   1.0000
     1.0000   1.0000   1.0000   1.0000   1.0000   1.0000   1.0000   0.0000
     0.0000   0.0000   0.0000   0.0000   0.0000

          k = 0.1667 0.2887-0.3093 (  2906 PWs)   bands (ev):

   -75.5726 -75.5726 -38.9773 -38.9773 -38.8438 -38.8438 -38.8080 -38.8080
    13.7943  13.7943  16.3611  16.3611  16.9700  16.9700  18.1546  18.1546
    19.3695  19.3695  19.7718  19.7718  33.2069

     occupation numbers 
     1.0000   1.0000   1.0000   1.0000   1.0000   1.0000   1.0000   1.0000
     1.0000   1.0000   1.0000   1.0000   1.0000   1.0000   1.0000   1.0000
     0.0000   0.0000   0.0000   0.0000   0.0000

          k = 0.1667 0.3849 0.0000 (  2900 PWs)   bands (ev):

   -75.5793 -75.5507 -38.9725 -38.9715 -38.9489 -38.8654 -38.8123 -38.8032
    13.3410  15.5428  15.5825  15.9993  17.1503  17.5521  17.6825  18.6319
    19.3256  19.5835  19.8872  26.0146  26.2921

     occupation numbers 
     1.0000   1.0000   1.0000   1.0000   1.0000   1.0000   1.0000   1.0000
     1.0000   1.0000   1.0000   1.0000   1.0000   1.0000   1.0000   0.0000
     0.0000   0.0000   0.0000   0.0000   0.0000

          k = 0.1667 0.3849 0.1031 (  2895 PWs)   bands (ev):

   -75.5774 -75.5526 -39.0035 -38.9661 -38.9189 -38.8704 -38.8180 -38.7967
    13.4916  15.4040  15.6852  16.1014  17.1272  17.5172  17.6372  18.6681
    19.3175  19.4266  19.9967  23.7073  28.3471

     occupation numbers 
     1.0000   1.0000   1.0000   1.0000   1.0000   1.0000   1.0000   1.0000
     1.0000   1.0000   1.0000   1.0000   1.0000   1.0000   1.0000   0.0000
     0.0000   0.0000   0.0000   0.0000   0.0000

          k = 0.1667 0.3849 0.2062 (  2889 PWs)   bands (ev):

   -75.5721 -75.5578 -39.0174 -38.9870 -38.8817 -38.8655 -38.8258 -38.7963
    13.9041  15.0190  15.9663  16.3146  16.9935  17.2363  17.8237  18.6249
    19.1758  19.6086  20.0773  21.7353  29.2885

     occupation numbers 
     1.0000   1.0000   1.0000   1.0000   1.0000   1.0000   1.0000   1.0000
     1.0000   1.0000   1.0000   1.0000   1.0000   1.0000   1.0000   0.0000
     0.0000   0.0000   0.0000   0.0000   0.0000

          k = 0.1667 0.3849-0.3093 (  2886 PWs)   bands (ev):

   -75.5650 -75.5650 -39.0096 -39.0096 -38.8649 -38.8649 -38.8124 -38.8124
    14.4669  14.4669  16.3042  16.3042  16.9651  16.9651  18.1822  18.1822
    19.6090  19.6090  20.4262  20.4262  30.3939

     occupation numbers 
     1.0000   1.0000   1.0000   1.0000   1.0000   1.0000   1.0000   1.0000
     1.0000   1.0000   1.0000   1.0000   1.0000   1.0000   1.0000   1.0000
     0.0000   0.0000   0.0000   0.0000   0.0000

          k = 0.1667 0.4811 0.0000 (  2903 PWs)   bands (ev):

   -75.5689 -75.5500 -39.0092 -38.9655 -38.9385 -38.8923 -38.8269 -38.8264
    14.4477  15.3682  15.3709  16.0373  17.0921  17.4263  17.7839  19.0751
    19.5792  19.5811  20.7762  24.6787  27.8996

     occupation numbers 
     1.0000   1.0000   1.0000   1.0000   1.0000   1.0000   1.0000   1.0000
     1.0000   1.0000   1.0000   1.0000   1.0000   1.0000   1.0000   0.0000
     0.0000   0.0000   0.0000   0.0000   0.0000

          k = 0.1667 0.4811 0.1031 (  2899 PWs)   bands (ev):

   -75.5676 -75.5513 -39.0226 -38.9842 -38.9186 -38.8840 -38.8373 -38.8120
    14.4721  15.3179  15.5321  16.0805  17.1052  17.4041  17.8422  19.0650
    19.3452  19.6556  20.8276  24.0853  26.8715

     occupation numbers 
     1.0000   1.0000   1.0000   1.0000   1.0000   1.0000   1.0000   1.0000
     1.0000   1.0000   1.0000   1.0000   1.0000   1.0000   1.0000   0.0000
     0.0000   0.0000   0.0000   0.0000   0.0000

          k = 0.1667 0.4811 0.2062 (  2899 PWs)   bands (ev):

   -75.5642 -75.5547 -39.0378 -39.0125 -38.9019 -38.8660 -38.8373 -38.8030
    14.5872  15.1144  15.8606  16.3564  16.9407  17.3737  18.0472  18.7474
    19.2782  19.7519  20.9774  22.6658  26.9858

     occupation numbers 
     1.0000   1.0000   1.0000   1.0000   1.0000   1.0000   1.0000   1.0000
     1.0000   1.0000   1.0000   1.0000   1.0000   1.0000   1.0000   0.0000
     0.0000   0.0000   0.0000   0.0000   0.0000

          k = 0.1667 0.4811-0.3093 (  2890 PWs)   bands (ev):

   -75.5595 -75.5595 -39.0344 -39.0344 -38.8822 -38.8822 -38.8126 -38.8126
    14.8198  14.8198  16.2678  16.2678  17.1110  17.1110  18.3194  18.3194
    19.6016  19.6016  21.5008  21.5008  27.7899

     occupation numbers 
     1.0000   1.0000   1.0000   1.0000   1.0000   1.0000   1.0000   1.0000
     1.0000   1.0000   1.0000   1.0000   1.0000   1.0000   0.9673   0.9673
     0.0000   0.0000   0.0000   0.0000   0.0000

          k = 0.1667 0.5774 0.0000 (  2900 PWs)   bands (ev):

   -75.5643 -75.5506 -39.0229 -38.9704 -38.9213 -38.9035 -38.8403 -38.8314
    14.9205  15.2330  15.3152  16.0900  17.1329  17.2700  17.8877  19.3863
    19.5620  19.5772  21.6675  23.1228  28.8819

     occupation numbers 
     1.0000   1.0000   1.0000   1.0000   1.0000   1.0000   1.0000   1.0000
     1.0000   1.0000   1.0000   1.0000   1.0000   1.0000   1.0000   0.0000
     0.0000   0.0000   0.0000   0.0000   0.0000

          k = 0.1667 0.5774 0.1031 (  2902 PWs)   bands (ev):

   -75.5634 -75.5515 -39.0336 -38.9880 -38.9230 -38.8772 -38.8489 -38.8190
    14.7832  15.2767  15.6725  15.9250  17.0631  17.4375  17.9550  19.3164
    19.3844  19.6248  21.6987  23.0291  28.0107

     occupation numbers 
     1.0000   1.0000   1.0000   1.0000   1.0000   1.0000   1.0000   1.0000
     1.0000   1.0000   1.0000   1.0000   1.0000   1.0000   1.0000   0.0000
     0.0000   0.0000   0.0000   0.0000   0.0000

          k = 0.1667 0.5774 0.2062 (  2904 PWs)   bands (ev):

   -75.5609 -75.5540 -39.0470 -39.0205 -38.9103 -38.8662 -38.8387 -38.8066
    14.7483  15.1724  15.9255  16.2713  16.8534  17.5445  18.1916  18.8182
    19.4095  19.6705  21.8288  22.7160  26.9168

     occupation numbers 
     1.0000   1.0000   1.0000   1.0000   1.0000   1.0000   1.0000   1.0000
     1.0000   1.0000   1.0000   1.0000   1.0000   1.0000   1.0000   0.0000
     0.0000   0.0000   0.0000   0.0000   0.0000

          k = 0.1667 0.5774-0.3093 (  2898 PWs)   bands (ev):

   -75.5574 -75.5574 -39.0436 -39.0436 -38.8888 -38.8888 -38.8122 -38.8122
    14.9042  14.9042  16.2602  16.2602  17.1625  17.1625  18.4795  18.4795
    19.5380  19.5380  22.2189  22.2189  26.5368

     occupation numbers 
     1.0000   1.0000   1.0000   1.0000   1.0000   1.0000   1.0000   1.0000
     1.0000   1.0000   1.0000   1.0000   1.0000   1.0000   0.0000   0.0000
     0.0000   0.0000   0.0000   0.0000   0.0000

          k = 0.2500 0.4330 0.0000 (  2900 PWs)   bands (ev):

   -75.5689 -75.5500 -38.9888 -38.9667 -38.9387 -38.8931 -38.8451 -38.8267
    14.4505  15.4440  15.7043  15.7245  17.0015  17.4520  17.7874  18.8381
    19.5328  19.5848  20.8138  26.2343  27.0367

     occupation numbers 
     1.0000   1.0000   1.0000   1.0000   1.0000   1.0000   1.0000   1.0000
     1.0000   1.0000   1.0000   1.0000   1.0000   1.0000   1.0000   0.0000
     0.0000   0.0000   0.0000   0.0000   0.0000

          k = 0.2500 0.4330 0.1031 (  2904 PWs)   bands (ev):

   -75.5677 -75.5513 -38.9969 -38.9924 -38.9050 -38.9032 -38.8475 -38.8140
    14.5341  15.3606  15.7721  15.9095  17.0433  17.2772  17.7887  18.8749
    19.2894  19.6641  20.9174  24.8206  27.3233

     occupation numbers 
     1.0000   1.0000   1.0000   1.0000   1.0000   1.0000   1.0000   1.0000
     1.0000   1.0000   1.0000   1.0000   1.0000   1.0000   1.0000   0.0000
     0.0000   0.0000   0.0000   0.0000   0.0000

          k = 0.2500 0.4330 0.2062 (  2899 PWs)   bands (ev):

   -75.5642 -75.5547 -39.0201 -39.0068 -38.9096 -38.8835 -38.8363 -38.8024
    14.7478  15.2171  15.9907  16.2632  16.8977  17.0163  17.8662  18.6521
    19.2388  19.7603  21.1510  22.9786  28.1000

     occupation numbers 
     1.0000   1.0000   1.0000   1.0000   1.0000   1.0000   1.0000   1.0000
     1.0000   1.0000   1.0000   1.0000   1.0000   1.0000   1.0000   0.0000
     0.0000   0.0000   0.0000   0.0000   0.0000

          k = 0.2500 0.4330-0.3093 (  2892 PWs)   bands (ev):

   -75.5595 -75.5595 -39.0217 -39.0217 -38.8969 -38.8969 -38.8107 -38.8107
    15.0043  15.0043  16.3248  16.3248  16.7903  16.7903  18.1584  18.1584
    19.6249  19.6249  21.7115  21.7115  29.1062

     occupation numbers 
     1.0000   1.0000   1.0000   1.0000   1.0000   1.0000   1.0000   1.0000
     1.0000   1.0000   1.0000   1.0000   1.0000   1.0000   1.0000   1.0000
     0.0000   0.0000   0.0000   0.0000   0.0000

          k = 0.2500 0.5292 0.0000 (  2908 PWs)   bands (ev):

   -75.5611 -75.5514 -39.0019 -38.9574 -38.9234 -38.9085 -38.8661 -38.8509
    15.1753  15.4124  15.5449  15.8004  17.0027  17.2139  17.9842  19.1390
    19.5028  19.5270  22.0721  24.2820  26.3568

     occupation numbers 
     1.0000   1.0000   1.0000   1.0000   1.0000   1.0000   1.0000   1.0000
     1.0000   1.0000   1.0000   1.0000   1.0000   1.0000   1.0000   0.0000
     0.0000   0.0000   0.0000   0.0000   0.0000

          k = 0.2500 0.5292 0.1031 (  2911 PWs)   bands (ev):

   -75.5605 -75.5520 -39.0072 -38.9791 -38.9401 -38.8843 -38.8663 -38.8311
    15.1477  15.5171  15.6291  15.8709  16.9790  17.1147  17.9917  19.1568
    19.2549  19.5807  22.2329  24.2634  26.4296

     occupation numbers 
     1.0000   1.0000   1.0000   1.0000   1.0000   1.0000   1.0000   1.0000
     1.0000   1.0000   1.0000   1.0000   1.0000   1.0000   1.0000   0.0000
     0.0000   0.0000   0.0000   0.0000   0.0000

          k = 0.2500 0.5292 0.2062 (  2909 PWs)   bands (ev):

   -75.5587 -75.5538 -39.0219 -39.0071 -38.9397 -38.8977 -38.8314 -38.8099
    15.1914  15.4780  15.9035  16.2155  16.7324  16.9714  18.0561  18.6891
    19.3245  19.6287  22.6125  23.9172  26.5037

     occupation numbers 
     1.0000   1.0000   1.0000   1.0000   1.0000   1.0000   1.0000   1.0000
     1.0000   1.0000   1.0000   1.0000   1.0000   1.0000   1.0000   0.0000
     0.0000   0.0000   0.0000   0.0000   0.0000

          k = 0.2500 0.5292-0.3093 (  2896 PWs)   bands (ev):

   -75.5563 -75.5563 -39.0244 -39.0244 -38.9204 -38.9204 -38.8090 -38.8090
    15.3246  15.3246  16.2960  16.2960  16.6885  16.6885  18.2598  18.2598
    19.5262  19.5262  23.1990  23.1990  27.0418

     occupation numbers 
     1.0000   1.0000   1.0000   1.0000   1.0000   1.0000   1.0000   1.0000
     1.0000   1.0000   1.0000   1.0000   1.0000   1.0000   1.0000   1.0000
     0.0000   0.0000   0.0000   0.0000   0.0000

          k = 0.3333 0.5774 0.0000 (  2898 PWs)   bands (ev):

   -75.5551 -75.5551 -38.9926 -38.9430 -38.9430 -38.8906 -38.8786 -38.8786
    15.4454  15.5294  15.5294  15.7324  17.0442  17.0442  18.0903  19.3042
    19.3042  19.4725  23.5048  24.2711  24.2711

     occupation numbers 
     1.0000   1.0000   1.0000   1.0000   1.0000   1.0000   1.0000   1.0000
     1.0000   1.0000   1.0000   1.0000   1.0000   1.0000   1.0000   0.0000
     0.0000   0.0000   0.0000   0.0000   0.0000

          k = 0.3333 0.5774 0.1031 (  2916 PWs)   bands (ev):

   -75.5551 -75.5551 -38.9858 -38.9692 -38.9692 -38.8975 -38.8523 -38.8523
    15.5175  15.6047  15.6047  15.7651  16.9587  16.9587  18.0690  19.2007
    19.3506  19.3506  23.9161  24.3224  24.3224

     occupation numbers 
     1.0000   1.0000   1.0000   1.0000   1.0000   1.0000   1.0000   1.0000
     1.0000   1.0000   1.0000   1.0000   1.0000   1.0000   1.0000   0.0000
     0.0000   0.0000   0.0000   0.0000   0.0000

          k = 0.3333 0.5774 0.2062 (  2895 PWs)   bands (ev):

   -75.5551 -75.5551 -39.0011 -39.0011 -38.9672 -38.9162 -38.8201 -38.8201
    15.6854  15.7846  15.7846  15.8264  16.7663  16.7663  18.0650  18.6614
    19.4352  19.4352  24.4500  24.4500  24.9150

     occupation numbers 
     1.0000   1.0000   1.0000   1.0000   1.0000   1.0000   1.0000   1.0000
     1.0000   1.0000   1.0000   1.0000   1.0000   1.0000   1.0000   0.0000
     0.0000   0.0000   0.0000   0.0000   0.0000

          k = 0.3333 0.5774-0.3093 (  2910 PWs)   bands (ev):

   -75.5551 -75.5551 -39.0134 -39.0134 -38.9417 -38.9417 -38.8077 -38.8077
    15.8194  15.8194  15.9027  15.9027  16.6455  16.6455  18.2319  18.2319
    19.4737  19.4737  24.5313  24.5313  26.2333

     occupation numbers 
     1.0000   1.0000   1.0000   1.0000   1.0000   1.0000   1.0000   1.0000
     1.0000   1.0000   1.0000   1.0000   1.0000   1.0000   1.0000   1.0000
     0.0000   0.0000   0.0000   0.0000   0.0000

     the Fermi energy is    18.3371 ev

!    total energy              =    -753.45490503 Ry
     total all-electron energy =     -5573.811596 Ry
     estimated scf accuracy    <       0.00000006 Ry
     smearing contrib. (-TS)   =      -0.00002123 Ry
     internal energy E=F+TS    =    -753.45488380 Ry

     The total energy is F=E-TS. E is the sum of the following terms:
     one-electron contribution =    -285.96481852 Ry
     hartree contribution      =     166.21617590 Ry
     xc contribution           =     -61.38321356 Ry
     ewald contribution        =    -397.14858802 Ry
     one-center paw contrib.   =    -175.17443961 Ry
      -> PAW hartree energy AE =     221.91255963 Ry
      -> PAW hartree energy PS =    -220.85740034 Ry
      -> PAW xc energy AE      =    -117.66718726 Ry
      -> PAW xc energy PS      =      29.02480816 Ry
      -> total E_H with PAW    =     167.27133520 Ry
      -> total E_XC with PAW   =    -150.02559266 Ry

     total magnetization       =     3.36 Bohr mag/cell
     absolute magnetization    =     3.69 Bohr mag/cell

     convergence has been achieved in   8 iterations

     Writing all to output data dir ./out/Co.save/
 
     init_run     :      0.44s CPU      0.54s WALL (       1 calls)
     electrons    :     15.48s CPU     16.31s WALL (       1 calls)

     Called by init_run:
     wfcinit      :      0.28s CPU      0.35s WALL (       1 calls)
     potinit      :      0.10s CPU      0.12s WALL (       1 calls)
     hinit0       :      0.04s CPU      0.04s WALL (       1 calls)

     Called by electrons:
     c_bands      :     13.29s CPU     13.90s WALL (       8 calls)
     sum_band     :      1.47s CPU      1.56s WALL (       8 calls)
     v_of_rho     :      0.03s CPU      0.03s WALL (       9 calls)
     v_h          :      0.00s CPU      0.00s WALL (       9 calls)
     v_xc         :      0.02s CPU      0.02s WALL (       9 calls)
     newd         :      0.04s CPU      0.04s WALL (       9 calls)
     PAW_pot      :      0.75s CPU      0.87s WALL (       9 calls)
     mix_rho      :      0.00s CPU      0.01s WALL (       8 calls)

     Called by c_bands:
     init_us_2    :      0.09s CPU      0.10s WALL (    2432 calls)
     init_us_2:cp :      0.09s CPU      0.09s WALL (    2432 calls)
     cegterg      :     12.69s CPU     13.19s WALL (    1216 calls)

     Called by sum_band:
     sum_band:wei :      0.01s CPU      0.01s WALL (       8 calls)
     sum_band:loo :      1.39s CPU      1.48s WALL (       8 calls)
     sum_band:buf :      0.01s CPU      0.01s WALL (    1216 calls)
     sum_band:ini :      0.05s CPU      0.05s WALL (    1216 calls)
     sum_band:cal :      0.12s CPU      0.12s WALL (    1216 calls)
     sum_band:bec :      0.00s CPU      0.01s WALL (    1216 calls)
     addusdens    :      0.05s CPU      0.06s WALL (       8 calls)
                                        0.00s GPU  (       8 calls)
     addusd:skk   :      0.00s CPU      0.00s WALL (       8 calls)
                                        0.00s GPU  (       8 calls)

     Called by *egterg:
     cdiaghg      :      2.96s CPU      3.04s WALL (    6215 calls)
     cegterg:over :      0.43s CPU      0.40s WALL (    5151 calls)
     cegterg:upda :      0.05s CPU      0.10s WALL (    5151 calls)
     cegterg:last :      0.16s CPU      0.19s WALL (    3778 calls)
     h_psi        :      8.56s CPU      8.94s WALL (    6367 calls)
     s_psi        :      0.17s CPU      0.14s WALL (    6367 calls)
     g_psi        :      0.02s CPU      0.03s WALL (    5151 calls)

     Called by h_psi:
     h_psi:calbec :      0.49s CPU      0.45s WALL (    6367 calls)
     vloc_psi     :      7.96s CPU      8.30s WALL (    6367 calls)
     add_vuspsi   :      0.08s CPU      0.15s WALL (    6367 calls)

     General routines
     calbec       :      0.61s CPU      0.56s WALL (    7583 calls)
     fft          :      0.02s CPU      0.02s WALL (     219 calls)
     ffts         :      0.00s CPU      0.00s WALL (      34 calls)
     fftw         :      8.65s CPU      8.90s WALL (  199850 calls)
     interpolate  :      0.00s CPU      0.00s WALL (      18 calls)
 
     Parallel routines

     PAW routines
     PAW_pot      :      0.75s CPU      0.87s WALL (       9 calls)
     PAW_symme    :      0.01s CPU      0.01s WALL (      16 calls)
 
     PWSCF        :     16.26s CPU     17.62s WALL

 
   This run was terminated on:   8:24:50  22Mar2024            

=------------------------------------------------------------------------------=
   JOB DONE.
=------------------------------------------------------------------------------=
