
     Program PWSCF v.7.2 starts on 22Mar2024 at  8:25:59 

     This program is part of the open-source Quantum ESPRESSO suite
     for quantum simulation of materials; please cite
         "P. Giannozzi et al., J. Phys.:Condens. Matter 21 395502 (2009);
         "P. Giannozzi et al., J. Phys.:Condens. Matter 29 465901 (2017);
         "P. Giannozzi et al., J. Chem. Phys. 152 154105 (2020);
          URL http://www.quantum-espresso.org", 
     in publications or presentations arising from this work. More details at
     http://www.quantum-espresso.org/quote

     Parallel version (MPI), running on    20 processors

     MPI processes distributed on     1 nodes
     352612 MiB available memory on the printing compute node when the environment starts
 
     Waiting for input...
     Reading input from standard input

     Current dimensions of program PWSCF are:
     Max number of different atomic species (ntypx) = 10
     Max number of k-points (npk) = 120000
     Max angular momentum in pseudopotentials (lmaxx) =  4
     file Co.pbe-spn-kjpaw_psl.0.3.1.UPF: wavefunction(s)  3P 3D renormalized
 
     R & G space division:  proc/nbgrp/npool/nimage =      20
     Subspace diagonalization in iterative solution of the eigenvalue problem:
     a serial algorithm will be used

 
     Parallelization info
     --------------------
     sticks:   dense  smooth     PW     G-vecs:    dense   smooth      PW
     Min          33      33      9                 1200     1155     185
     Max          36      34     10                 1205     1164     192
     Sum         691     673    199                24045    23199    3789
 
     Using Slab Decomposition
 


     bravais-lattice index     =            4
     lattice parameter (alat)  =       4.7432  a.u.
     unit-cell volume          =     149.1179 (a.u.)^3
     number of atoms/cell      =            2
     number of atomic types    =            1
     number of electrons       =        34.00
     number of Kohn-Sham states=           21
     kinetic-energy cutoff     =     110.0000  Ry
     charge density cutoff     =     450.0000  Ry
     scf convergence threshold =      1.0E-06
     mixing beta               =       0.7000
     number of iterations used =            8  plain     mixing
     Exchange-correlation= SLA  PW   PBX  PBC
                           (   1   4   3   4   0   0   0)

     celldm(1)=   4.743213  celldm(2)=   0.000000  celldm(3)=   1.613546
     celldm(4)=   0.000000  celldm(5)=   0.000000  celldm(6)=   0.000000

     crystal axes: (cart. coord. in units of alat)
               a(1) = (   1.000000   0.000000   0.000000 )  
               a(2) = (  -0.500000   0.866025   0.000000 )  
               a(3) = (   0.000000   0.000000   1.613546 )  

     reciprocal axes: (cart. coord. in units 2 pi/alat)
               b(1) = (  1.000000  0.577350  0.000000 )  
               b(2) = (  0.000000  1.154701  0.000000 )  
               b(3) = (  0.000000  0.000000  0.619753 )  


     PseudoPot. # 1 for Co read from file:
     /truba/home/amuhaymin/ZnS/pseudo/QE/Co.pbe-spn-kjpaw_psl.0.3.1.UPF
     MD5 check sum: b0a1ad65bf214e88c1f3d33b20c7d919
     Pseudo is Projector augmented-wave + core cor, Zval = 17.0
     Generated using &quot;atomic&quot; code by A. Dal Corso  v.6.2.2
     Shape of augmentation charge: PSQ
     Using radial grid of 1193 points,  6 beta functions with: 
                l(1) =   0
                l(2) =   0
                l(3) =   1
                l(4) =   1
                l(5) =   2
                l(6) =   2
     Q(r) pseudized with 0 coefficients 


     atomic species   valence    mass     pseudopotential
        Co            17.00    58.93300     Co( 1.00)

     Starting magnetic structure 
     atomic species   magnetization
        Co           0.294

     24 Sym. Ops., with inversion, found (12 have fractional translation)


                                    s                        frac. trans.

      isym =  1     identity                                     

 cryst.   s( 1) = (     1          0          0      )
                  (     0          1          0      )
                  (     0          0          1      )

 cart.    s( 1) = (  1.0000000  0.0000000  0.0000000 )
                  (  0.0000000  1.0000000  0.0000000 )
                  (  0.0000000  0.0000000  1.0000000 )


      isym =  2     180 deg rotation - cart. axis [0,0,1]        

 cryst.   s( 2) = (    -1          0          0      )    f =(  0.0000000 )
                  (     0         -1          0      )       ( -0.0000000 )
                  (     0          0          1      )       (  0.5000000 )

 cart.    s( 2) = ( -1.0000000  0.0000000  0.0000000 )    f =(  0.0000000 )
                  (  0.0000000 -1.0000000  0.0000000 )       ( -0.0000000 )
                  (  0.0000000  0.0000000  1.0000000 )       (  0.8067729 )


      isym =  3     180 deg rotation - cart. axis [0,1,0]        

 cryst.   s( 3) = (    -1          0          0      )    f =(  0.0000000 )
                  (     1          1          0      )       (  0.0000000 )
                  (     0          0         -1      )       (  0.5000000 )

 cart.    s( 3) = ( -1.0000000  0.0000000  0.0000000 )    f =(  0.0000000 )
                  (  0.0000000  1.0000000  0.0000000 )       (  0.0000000 )
                  (  0.0000000  0.0000000 -1.0000000 )       (  0.8067729 )


      isym =  4     180 deg rotation - cart. axis [1,0,0]        

 cryst.   s( 4) = (     1          0          0      )
                  (    -1         -1          0      )
                  (     0          0         -1      )

 cart.    s( 4) = (  1.0000000  0.0000000  0.0000000 )
                  (  0.0000000 -1.0000000  0.0000000 )
                  (  0.0000000  0.0000000 -1.0000000 )


      isym =  5      60 deg rotation - cryst. axis [0,0,1]       

 cryst.   s( 5) = (     1          1          0      )    f =(  0.0000000 )
                  (    -1          0          0      )       ( -0.0000000 )
                  (     0          0          1      )       (  0.5000000 )

 cart.    s( 5) = (  0.5000000 -0.8660254  0.0000000 )    f =(  0.0000000 )
                  (  0.8660254  0.5000000  0.0000000 )       ( -0.0000000 )
                  (  0.0000000  0.0000000  1.0000000 )       (  0.8067729 )


      isym =  6      60 deg rotation - cryst. axis [0,0,-1]      

 cryst.   s( 6) = (     0         -1          0      )    f =(  0.0000000 )
                  (     1          1          0      )       ( -0.0000000 )
                  (     0          0          1      )       (  0.5000000 )

 cart.    s( 6) = (  0.5000000  0.8660254  0.0000000 )    f =(  0.0000000 )
                  ( -0.8660254  0.5000000  0.0000000 )       ( -0.0000000 )
                  (  0.0000000  0.0000000  1.0000000 )       (  0.8067729 )


      isym =  7     120 deg rotation - cryst. axis [0,0,1]       

 cryst.   s( 7) = (     0          1          0      )
                  (    -1         -1          0      )
                  (     0          0          1      )

 cart.    s( 7) = ( -0.5000000 -0.8660254  0.0000000 )
                  (  0.8660254 -0.5000000  0.0000000 )
                  (  0.0000000  0.0000000  1.0000000 )


      isym =  8     120 deg rotation - cryst. axis [0,0,-1]      

 cryst.   s( 8) = (    -1         -1          0      )
                  (     1          0          0      )
                  (     0          0          1      )

 cart.    s( 8) = ( -0.5000000  0.8660254  0.0000000 )
                  ( -0.8660254 -0.5000000  0.0000000 )
                  (  0.0000000  0.0000000  1.0000000 )


      isym =  9     180 deg rotation - cryst. axis [1,-1,0]      

 cryst.   s( 9) = (     0         -1          0      )    f =( -0.0000000 )
                  (    -1          0          0      )       ( -0.0000000 )
                  (     0          0         -1      )       (  0.5000000 )

 cart.    s( 9) = (  0.5000000 -0.8660254  0.0000000 )    f =( -0.0000000 )
                  ( -0.8660254 -0.5000000  0.0000000 )       ( -0.0000000 )
                  (  0.0000000  0.0000000 -1.0000000 )       (  0.8067729 )


      isym = 10     180 deg rotation - cryst. axis [2,1,0]       

 cryst.   s(10) = (     1          1          0      )    f =(  0.0000000 )
                  (     0         -1          0      )       ( -0.0000000 )
                  (     0          0         -1      )       (  0.5000000 )

 cart.    s(10) = (  0.5000000  0.8660254  0.0000000 )    f =(  0.0000000 )
                  (  0.8660254 -0.5000000  0.0000000 )       ( -0.0000000 )
                  (  0.0000000  0.0000000 -1.0000000 )       (  0.8067729 )


      isym = 11     180 deg rotation - cryst. axis [0,1,0]       

 cryst.   s(11) = (    -1         -1          0      )
                  (     0          1          0      )
                  (     0          0         -1      )

 cart.    s(11) = ( -0.5000000 -0.8660254  0.0000000 )
                  ( -0.8660254  0.5000000  0.0000000 )
                  (  0.0000000  0.0000000 -1.0000000 )


      isym = 12     180 deg rotation - cryst. axis [1,1,0]       

 cryst.   s(12) = (     0          1          0      )
                  (     1          0          0      )
                  (     0          0         -1      )

 cart.    s(12) = ( -0.5000000  0.8660254  0.0000000 )
                  (  0.8660254  0.5000000  0.0000000 )
                  (  0.0000000  0.0000000 -1.0000000 )


      isym = 13     inversion                                    

 cryst.   s(13) = (    -1          0          0      )
                  (     0         -1          0      )
                  (     0          0         -1      )

 cart.    s(13) = ( -1.0000000  0.0000000  0.0000000 )
                  (  0.0000000 -1.0000000  0.0000000 )
                  (  0.0000000  0.0000000 -1.0000000 )


      isym = 14     inv. 180 deg rotation - cart. axis [0,0,1]   

 cryst.   s(14) = (     1          0          0      )    f =(  0.0000000 )
                  (     0          1          0      )       (  0.0000000 )
                  (     0          0         -1      )       (  0.5000000 )

 cart.    s(14) = (  1.0000000  0.0000000  0.0000000 )    f =(  0.0000000 )
                  (  0.0000000  1.0000000  0.0000000 )       (  0.0000000 )
                  (  0.0000000  0.0000000 -1.0000000 )       (  0.8067729 )


      isym = 15     inv. 180 deg rotation - cart. axis [0,1,0]   

 cryst.   s(15) = (     1          0          0      )    f =(  0.0000000 )
                  (    -1         -1          0      )       ( -0.0000000 )
                  (     0          0          1      )       (  0.5000000 )

 cart.    s(15) = (  1.0000000  0.0000000  0.0000000 )    f =(  0.0000000 )
                  (  0.0000000 -1.0000000  0.0000000 )       ( -0.0000000 )
                  (  0.0000000  0.0000000  1.0000000 )       (  0.8067729 )


      isym = 16     inv. 180 deg rotation - cart. axis [1,0,0]   

 cryst.   s(16) = (    -1          0          0      )
                  (     1          1          0      )
                  (     0          0          1      )

 cart.    s(16) = ( -1.0000000  0.0000000  0.0000000 )
                  (  0.0000000  1.0000000  0.0000000 )
                  (  0.0000000  0.0000000  1.0000000 )


      isym = 17     inv.  60 deg rotation - cryst. axis [0,0,1]  

 cryst.   s(17) = (    -1         -1          0      )    f =(  0.0000000 )
                  (     1          0          0      )       ( -0.0000000 )
                  (     0          0         -1      )       (  0.5000000 )

 cart.    s(17) = ( -0.5000000  0.8660254  0.0000000 )    f =(  0.0000000 )
                  ( -0.8660254 -0.5000000  0.0000000 )       ( -0.0000000 )
                  (  0.0000000  0.0000000 -1.0000000 )       (  0.8067729 )


      isym = 18     inv.  60 deg rotation - cryst. axis [0,0,-1] 

 cryst.   s(18) = (     0          1          0      )    f =( -0.0000000 )
                  (    -1         -1          0      )       ( -0.0000000 )
                  (     0          0         -1      )       (  0.5000000 )

 cart.    s(18) = ( -0.5000000 -0.8660254  0.0000000 )    f =(  0.0000000 )
                  (  0.8660254 -0.5000000  0.0000000 )       ( -0.0000000 )
                  (  0.0000000  0.0000000 -1.0000000 )       (  0.8067729 )


      isym = 19     inv. 120 deg rotation - cryst. axis [0,0,1]  

 cryst.   s(19) = (     0         -1          0      )
                  (     1          1          0      )
                  (     0          0         -1      )

 cart.    s(19) = (  0.5000000  0.8660254  0.0000000 )
                  ( -0.8660254  0.5000000  0.0000000 )
                  (  0.0000000  0.0000000 -1.0000000 )


      isym = 20     inv. 120 deg rotation - cryst. axis [0,0,-1] 

 cryst.   s(20) = (     1          1          0      )
                  (    -1          0          0      )
                  (     0          0         -1      )

 cart.    s(20) = (  0.5000000 -0.8660254  0.0000000 )
                  (  0.8660254  0.5000000  0.0000000 )
                  (  0.0000000  0.0000000 -1.0000000 )


      isym = 21     inv. 180 deg rotation - cryst. axis [1,-1,0] 

 cryst.   s(21) = (     0          1          0      )    f =(  0.0000000 )
                  (     1          0          0      )       ( -0.0000000 )
                  (     0          0          1      )       (  0.5000000 )

 cart.    s(21) = ( -0.5000000  0.8660254  0.0000000 )    f =(  0.0000000 )
                  (  0.8660254  0.5000000  0.0000000 )       ( -0.0000000 )
                  (  0.0000000  0.0000000  1.0000000 )       (  0.8067729 )


      isym = 22     inv. 180 deg rotation - cryst. axis [2,1,0]  

 cryst.   s(22) = (    -1         -1          0      )    f =(  0.0000000 )
                  (     0          1          0      )       ( -0.0000000 )
                  (     0          0          1      )       (  0.5000000 )

 cart.    s(22) = ( -0.5000000 -0.8660254  0.0000000 )    f =(  0.0000000 )
                  ( -0.8660254  0.5000000  0.0000000 )       ( -0.0000000 )
                  (  0.0000000  0.0000000  1.0000000 )       (  0.8067729 )


      isym = 23     inv. 180 deg rotation - cryst. axis [0,1,0]  

 cryst.   s(23) = (     1          1          0      )
                  (     0         -1          0      )
                  (     0          0          1      )

 cart.    s(23) = (  0.5000000  0.8660254  0.0000000 )
                  (  0.8660254 -0.5000000  0.0000000 )
                  (  0.0000000  0.0000000  1.0000000 )


      isym = 24     inv. 180 deg rotation - cryst. axis [1,1,0]  

 cryst.   s(24) = (     0         -1          0      )
                  (    -1          0          0      )
                  (     0          0          1      )

 cart.    s(24) = (  0.5000000 -0.8660254  0.0000000 )
                  ( -0.8660254 -0.5000000  0.0000000 )
                  (  0.0000000  0.0000000  1.0000000 )


     point group D_6h(6/mmm)
     there are 12 classes
     the character table:

       E     2C6   2C3   C2    3C2'  3C2'' i     2S3   2S6   s_h   3s_d  3s_v 
A_1g   1.00  1.00  1.00  1.00  1.00  1.00  1.00  1.00  1.00  1.00  1.00  1.00
A_2g   1.00  1.00  1.00  1.00 -1.00 -1.00  1.00  1.00  1.00  1.00 -1.00 -1.00
B_1g   1.00 -1.00  1.00 -1.00  1.00 -1.00  1.00 -1.00  1.00 -1.00  1.00 -1.00
B_2g   1.00 -1.00  1.00 -1.00 -1.00  1.00  1.00 -1.00  1.00 -1.00 -1.00  1.00
E_1g   2.00  1.00 -1.00 -2.00  0.00  0.00  2.00  1.00 -1.00 -2.00  0.00  0.00
E_2g   2.00 -1.00 -1.00  2.00  0.00  0.00  2.00 -1.00 -1.00  2.00  0.00  0.00
A_1u   1.00  1.00  1.00  1.00  1.00  1.00 -1.00 -1.00 -1.00 -1.00 -1.00 -1.00
A_2u   1.00  1.00  1.00  1.00 -1.00 -1.00 -1.00 -1.00 -1.00 -1.00  1.00  1.00
B_1u   1.00 -1.00  1.00 -1.00  1.00 -1.00 -1.00  1.00 -1.00  1.00 -1.00  1.00
B_2u   1.00 -1.00  1.00 -1.00 -1.00  1.00 -1.00  1.00 -1.00  1.00  1.00 -1.00
E_1u   2.00  1.00 -1.00 -2.00  0.00  0.00 -2.00 -1.00  1.00  2.00  0.00  0.00
E_2u   2.00 -1.00 -1.00  2.00  0.00  0.00 -2.00  1.00  1.00 -2.00  0.00  0.00

     the symmetry operations in each class and the name of the first element:

     E        1
          identity                                               
     2C6      5    6
           60 deg rotation - cryst. axis [0,0,1]                 
     2C3      7    8
          120 deg rotation - cryst. axis [0,0,1]                 
     C2       2
          180 deg rotation - cart. axis [0,0,1]                  
     3C2'     4   12   11
          180 deg rotation - cart. axis [1,0,0]                  
     3C2''    3    9   10
          180 deg rotation - cart. axis [0,1,0]                  
     i       13
          inversion                                              
     2S3     17   18
          inv.  60 deg rotation - cryst. axis [0,0,1]            
     2S6     19   20
          inv. 120 deg rotation - cryst. axis [0,0,1]            
     s_h     14
          inv. 180 deg rotation - cart. axis [0,0,1]             
     3s_d    16   24   23
          inv. 180 deg rotation - cart. axis [1,0,0]             
     3s_v    15   21   22
          inv. 180 deg rotation - cart. axis [0,1,0]             

   Cartesian axes

     site n.     atom                  positions (alat units)
         1           Co  tau(   1) = (  -0.0000000   0.5773503   0.4033865  )
         2           Co  tau(   2) = (   0.5000000   0.2886751   1.2101594  )

   Crystallographic axes

     site n.     atom                  positions (cryst. coord.)
         1           Co  tau(   1) = (  0.3333333  0.6666667  0.2500000  )
         2           Co  tau(   2) = (  0.6666667  0.3333333  0.7500000  )

     number of k points=    76  Gaussian smearing, width (Ry)=  0.0010
                       cart. coord. in units 2pi/alat
        k(    1) = (   0.0000000   0.0000000   0.0000000), wk =   0.0011574
        k(    2) = (   0.0000000   0.0000000   0.1032922), wk =   0.0023148
        k(    3) = (   0.0000000   0.0000000   0.2065844), wk =   0.0023148
        k(    4) = (   0.0000000   0.0000000  -0.3098765), wk =   0.0011574
        k(    5) = (   0.0000000   0.0962250   0.0000000), wk =   0.0069444
        k(    6) = (   0.0000000   0.0962250   0.1032922), wk =   0.0138889
        k(    7) = (   0.0000000   0.0962250   0.2065844), wk =   0.0138889
        k(    8) = (   0.0000000   0.0962250  -0.3098765), wk =   0.0069444
        k(    9) = (   0.0000000   0.1924501   0.0000000), wk =   0.0069444
        k(   10) = (   0.0000000   0.1924501   0.1032922), wk =   0.0138889
        k(   11) = (   0.0000000   0.1924501   0.2065844), wk =   0.0138889
        k(   12) = (   0.0000000   0.1924501  -0.3098765), wk =   0.0069444
        k(   13) = (   0.0000000   0.2886751   0.0000000), wk =   0.0069444
        k(   14) = (   0.0000000   0.2886751   0.1032922), wk =   0.0138889
        k(   15) = (   0.0000000   0.2886751   0.2065844), wk =   0.0138889
        k(   16) = (   0.0000000   0.2886751  -0.3098765), wk =   0.0069444
        k(   17) = (   0.0000000   0.3849002   0.0000000), wk =   0.0069444
        k(   18) = (   0.0000000   0.3849002   0.1032922), wk =   0.0138889
        k(   19) = (   0.0000000   0.3849002   0.2065844), wk =   0.0138889
        k(   20) = (   0.0000000   0.3849002  -0.3098765), wk =   0.0069444
        k(   21) = (   0.0000000   0.4811252   0.0000000), wk =   0.0069444
        k(   22) = (   0.0000000   0.4811252   0.1032922), wk =   0.0138889
        k(   23) = (   0.0000000   0.4811252   0.2065844), wk =   0.0138889
        k(   24) = (   0.0000000   0.4811252  -0.3098765), wk =   0.0069444
        k(   25) = (   0.0000000  -0.5773503   0.0000000), wk =   0.0034722
        k(   26) = (   0.0000000  -0.5773503   0.1032922), wk =   0.0069444
        k(   27) = (   0.0000000  -0.5773503   0.2065844), wk =   0.0069444
        k(   28) = (   0.0000000  -0.5773503  -0.3098765), wk =   0.0034722
        k(   29) = (   0.0833333   0.1443376   0.0000000), wk =   0.0069444
        k(   30) = (   0.0833333   0.1443376   0.1032922), wk =   0.0138889
        k(   31) = (   0.0833333   0.1443376   0.2065844), wk =   0.0138889
        k(   32) = (   0.0833333   0.1443376  -0.3098765), wk =   0.0069444
        k(   33) = (   0.0833333   0.2405626   0.0000000), wk =   0.0138889
        k(   34) = (   0.0833333   0.2405626   0.1032922), wk =   0.0277778
        k(   35) = (   0.0833333   0.2405626   0.2065844), wk =   0.0277778
        k(   36) = (   0.0833333   0.2405626  -0.3098765), wk =   0.0138889
        k(   37) = (   0.0833333   0.3367877   0.0000000), wk =   0.0138889
        k(   38) = (   0.0833333   0.3367877   0.1032922), wk =   0.0277778
        k(   39) = (   0.0833333   0.3367877   0.2065844), wk =   0.0277778
        k(   40) = (   0.0833333   0.3367877  -0.3098765), wk =   0.0138889
        k(   41) = (   0.0833333   0.4330127   0.0000000), wk =   0.0138889
        k(   42) = (   0.0833333   0.4330127   0.1032922), wk =   0.0277778
        k(   43) = (   0.0833333   0.4330127   0.2065844), wk =   0.0277778
        k(   44) = (   0.0833333   0.4330127  -0.3098765), wk =   0.0138889
        k(   45) = (   0.0833333   0.5292377   0.0000000), wk =   0.0138889
        k(   46) = (   0.0833333   0.5292377   0.1032922), wk =   0.0277778
        k(   47) = (   0.0833333   0.5292377   0.2065844), wk =   0.0277778
        k(   48) = (   0.0833333   0.5292377  -0.3098765), wk =   0.0138889
        k(   49) = (   0.1666667   0.2886751   0.0000000), wk =   0.0069444
        k(   50) = (   0.1666667   0.2886751   0.1032922), wk =   0.0138889
        k(   51) = (   0.1666667   0.2886751   0.2065844), wk =   0.0138889
        k(   52) = (   0.1666667   0.2886751  -0.3098765), wk =   0.0069444
        k(   53) = (   0.1666667   0.3849002   0.0000000), wk =   0.0138889
        k(   54) = (   0.1666667   0.3849002   0.1032922), wk =   0.0277778
        k(   55) = (   0.1666667   0.3849002   0.2065844), wk =   0.0277778
        k(   56) = (   0.1666667   0.3849002  -0.3098765), wk =   0.0138889
        k(   57) = (   0.1666667   0.4811252   0.0000000), wk =   0.0138889
        k(   58) = (   0.1666667   0.4811252   0.1032922), wk =   0.0277778
        k(   59) = (   0.1666667   0.4811252   0.2065844), wk =   0.0277778
        k(   60) = (   0.1666667   0.4811252  -0.3098765), wk =   0.0138889
        k(   61) = (   0.1666667   0.5773503   0.0000000), wk =   0.0069444
        k(   62) = (   0.1666667   0.5773503   0.1032922), wk =   0.0138889
        k(   63) = (   0.1666667   0.5773503   0.2065844), wk =   0.0138889
        k(   64) = (   0.1666667   0.5773503  -0.3098765), wk =   0.0069444
        k(   65) = (   0.2500000   0.4330127   0.0000000), wk =   0.0069444
        k(   66) = (   0.2500000   0.4330127   0.1032922), wk =   0.0138889
        k(   67) = (   0.2500000   0.4330127   0.2065844), wk =   0.0138889
        k(   68) = (   0.2500000   0.4330127  -0.3098765), wk =   0.0069444
        k(   69) = (   0.2500000   0.5292377   0.0000000), wk =   0.0138889
        k(   70) = (   0.2500000   0.5292377   0.1032922), wk =   0.0277778
        k(   71) = (   0.2500000   0.5292377   0.2065844), wk =   0.0277778
        k(   72) = (   0.2500000   0.5292377  -0.3098765), wk =   0.0138889
        k(   73) = (   0.3333333   0.5773503   0.0000000), wk =   0.0023148
        k(   74) = (   0.3333333   0.5773503   0.1032922), wk =   0.0046296
        k(   75) = (   0.3333333   0.5773503   0.2065844), wk =   0.0046296
        k(   76) = (   0.3333333   0.5773503  -0.3098765), wk =   0.0023148

                       cryst. coord.
        k(    1) = (   0.0000000   0.0000000   0.0000000), wk =   0.0011574
        k(    2) = (   0.0000000   0.0000000   0.1666667), wk =   0.0023148
        k(    3) = (   0.0000000   0.0000000   0.3333333), wk =   0.0023148
        k(    4) = (   0.0000000   0.0000000  -0.5000000), wk =   0.0011574
        k(    5) = (   0.0000000   0.0833333   0.0000000), wk =   0.0069444
        k(    6) = (   0.0000000   0.0833333   0.1666667), wk =   0.0138889
        k(    7) = (   0.0000000   0.0833333   0.3333333), wk =   0.0138889
        k(    8) = (   0.0000000   0.0833333  -0.5000000), wk =   0.0069444
        k(    9) = (   0.0000000   0.1666667   0.0000000), wk =   0.0069444
        k(   10) = (   0.0000000   0.1666667   0.1666667), wk =   0.0138889
        k(   11) = (   0.0000000   0.1666667   0.3333333), wk =   0.0138889
        k(   12) = (   0.0000000   0.1666667  -0.5000000), wk =   0.0069444
        k(   13) = (   0.0000000   0.2500000   0.0000000), wk =   0.0069444
        k(   14) = (   0.0000000   0.2500000   0.1666667), wk =   0.0138889
        k(   15) = (   0.0000000   0.2500000   0.3333333), wk =   0.0138889
        k(   16) = (   0.0000000   0.2500000  -0.5000000), wk =   0.0069444
        k(   17) = (   0.0000000   0.3333333   0.0000000), wk =   0.0069444
        k(   18) = (   0.0000000   0.3333333   0.1666667), wk =   0.0138889
        k(   19) = (   0.0000000   0.3333333   0.3333333), wk =   0.0138889
        k(   20) = (   0.0000000   0.3333333  -0.5000000), wk =   0.0069444
        k(   21) = (   0.0000000   0.4166667   0.0000000), wk =   0.0069444
        k(   22) = (   0.0000000   0.4166667   0.1666667), wk =   0.0138889
        k(   23) = (   0.0000000   0.4166667   0.3333333), wk =   0.0138889
        k(   24) = (   0.0000000   0.4166667  -0.5000000), wk =   0.0069444
        k(   25) = (   0.0000000  -0.5000000   0.0000000), wk =   0.0034722
        k(   26) = (   0.0000000  -0.5000000   0.1666667), wk =   0.0069444
        k(   27) = (   0.0000000  -0.5000000   0.3333333), wk =   0.0069444
        k(   28) = (   0.0000000  -0.5000000  -0.5000000), wk =   0.0034722
        k(   29) = (   0.0833333   0.0833333   0.0000000), wk =   0.0069444
        k(   30) = (   0.0833333   0.0833333   0.1666667), wk =   0.0138889
        k(   31) = (   0.0833333   0.0833333   0.3333333), wk =   0.0138889
        k(   32) = (   0.0833333   0.0833333  -0.5000000), wk =   0.0069444
        k(   33) = (   0.0833333   0.1666667   0.0000000), wk =   0.0138889
        k(   34) = (   0.0833333   0.1666667   0.1666667), wk =   0.0277778
        k(   35) = (   0.0833333   0.1666667   0.3333333), wk =   0.0277778
        k(   36) = (   0.0833333   0.1666667  -0.5000000), wk =   0.0138889
        k(   37) = (   0.0833333   0.2500000   0.0000000), wk =   0.0138889
        k(   38) = (   0.0833333   0.2500000   0.1666667), wk =   0.0277778
        k(   39) = (   0.0833333   0.2500000   0.3333333), wk =   0.0277778
        k(   40) = (   0.0833333   0.2500000  -0.5000000), wk =   0.0138889
        k(   41) = (   0.0833333   0.3333333   0.0000000), wk =   0.0138889
        k(   42) = (   0.0833333   0.3333333   0.1666667), wk =   0.0277778
        k(   43) = (   0.0833333   0.3333333   0.3333333), wk =   0.0277778
        k(   44) = (   0.0833333   0.3333333  -0.5000000), wk =   0.0138889
        k(   45) = (   0.0833333   0.4166667   0.0000000), wk =   0.0138889
        k(   46) = (   0.0833333   0.4166667   0.1666667), wk =   0.0277778
        k(   47) = (   0.0833333   0.4166667   0.3333333), wk =   0.0277778
        k(   48) = (   0.0833333   0.4166667  -0.5000000), wk =   0.0138889
        k(   49) = (   0.1666667   0.1666667   0.0000000), wk =   0.0069444
        k(   50) = (   0.1666667   0.1666667   0.1666667), wk =   0.0138889
        k(   51) = (   0.1666667   0.1666667   0.3333333), wk =   0.0138889
        k(   52) = (   0.1666667   0.1666667  -0.5000000), wk =   0.0069444
        k(   53) = (   0.1666667   0.2500000   0.0000000), wk =   0.0138889
        k(   54) = (   0.1666667   0.2500000   0.1666667), wk =   0.0277778
        k(   55) = (   0.1666667   0.2500000   0.3333333), wk =   0.0277778
        k(   56) = (   0.1666667   0.2500000  -0.5000000), wk =   0.0138889
        k(   57) = (   0.1666667   0.3333333   0.0000000), wk =   0.0138889
        k(   58) = (   0.1666667   0.3333333   0.1666667), wk =   0.0277778
        k(   59) = (   0.1666667   0.3333333   0.3333333), wk =   0.0277778
        k(   60) = (   0.1666667   0.3333333  -0.5000000), wk =   0.0138889
        k(   61) = (   0.1666667   0.4166667   0.0000000), wk =   0.0069444
        k(   62) = (   0.1666667   0.4166667   0.1666667), wk =   0.0138889
        k(   63) = (   0.1666667   0.4166667   0.3333333), wk =   0.0138889
        k(   64) = (   0.1666667   0.4166667  -0.5000000), wk =   0.0069444
        k(   65) = (   0.2500000   0.2500000   0.0000000), wk =   0.0069444
        k(   66) = (   0.2500000   0.2500000   0.1666667), wk =   0.0138889
        k(   67) = (   0.2500000   0.2500000   0.3333333), wk =   0.0138889
        k(   68) = (   0.2500000   0.2500000  -0.5000000), wk =   0.0069444
        k(   69) = (   0.2500000   0.3333333   0.0000000), wk =   0.0138889
        k(   70) = (   0.2500000   0.3333333   0.1666667), wk =   0.0277778
        k(   71) = (   0.2500000   0.3333333   0.3333333), wk =   0.0277778
        k(   72) = (   0.2500000   0.3333333  -0.5000000), wk =   0.0138889
        k(   73) = (   0.3333333   0.3333333   0.0000000), wk =   0.0023148
        k(   74) = (   0.3333333   0.3333333   0.1666667), wk =   0.0046296
        k(   75) = (   0.3333333   0.3333333   0.3333333), wk =   0.0046296
        k(   76) = (   0.3333333   0.3333333  -0.5000000), wk =   0.0023148

     Dense  grid:    24045 G-vectors     FFT dimensions: (  36,  36,  54)

     Smooth grid:    23199 G-vectors     FFT dimensions: (  32,  32,  54)

     Dynamical RAM for                 wfc:       0.05 MB

     Dynamical RAM for     wfc (w. buffer):       7.11 MB

     Dynamical RAM for           str. fact:       0.02 MB

     Dynamical RAM for           local pot:       0.00 MB

     Dynamical RAM for          nlocal pot:       0.08 MB

     Dynamical RAM for                qrad:       1.70 MB

     Dynamical RAM for          rho,v,vnew:       0.29 MB

     Dynamical RAM for               rhoin:       0.10 MB

     Dynamical RAM for            rho*nmix:       0.59 MB

     Dynamical RAM for           G-vectors:       0.08 MB

     Dynamical RAM for          h,s,v(r/c):       0.08 MB

     Dynamical RAM for          <psi|beta>:       0.01 MB

     Dynamical RAM for                 psi:       0.09 MB

     Dynamical RAM for                hpsi:       0.09 MB

     Dynamical RAM for                spsi:       0.09 MB

     Dynamical RAM for      wfcinit/wfcrot:       0.10 MB

     Dynamical RAM for           addusdens:       3.48 MB

     Estimated static dynamical RAM per process >       9.59 MB

     Estimated max dynamical RAM per process >      13.65 MB

     Estimated total dynamical RAM >     272.99 MB

     Check: negative core charge=   -0.000042
     Generating pointlists ...
     new r_m :   0.4092 (alat units)  1.9411 (a.u.) for type    1

     The initial density is read from file :
     ./out/Co.save/charge-density


     starting charge      34.0420, renormalised to      34.0000
     Starting wfcs from file
     Checking if some PAW data can be deallocated... 

     total cpu time spent up to now is        0.6 secs

     Self-consistent Calculation

     iteration #  1     ecut=   110.00 Ry     beta= 0.70
     Davidson diagonalization with overlap

---- Real-time Memory Report at c_bands before calling an iterative solver
            57 MiB given to the printing process from OS
             0 MiB allocation reported by mallinfo(arena+hblkhd)
        352023 MiB available memory on the node where the printing process lives
------------------
     ethr =  1.00E-05,  avg # of iterations =  2.7

     total cpu time spent up to now is        2.4 secs

     total energy              =    -753.45394476 Ry
     estimated scf accuracy    <       0.00079761 Ry

     total magnetization       =     3.34 Bohr mag/cell
     absolute magnetization    =     3.67 Bohr mag/cell

     iteration #  2     ecut=   110.00 Ry     beta= 0.70
     Davidson diagonalization with overlap

---- Real-time Memory Report at c_bands before calling an iterative solver
            79 MiB given to the printing process from OS
             0 MiB allocation reported by mallinfo(arena+hblkhd)
        351802 MiB available memory on the node where the printing process lives
------------------
     ethr =  2.35E-06,  avg # of iterations =  4.5

     total cpu time spent up to now is        4.4 secs

     total energy              =    -753.45423775 Ry
     estimated scf accuracy    <       0.00195804 Ry

     total magnetization       =     3.36 Bohr mag/cell
     absolute magnetization    =     3.69 Bohr mag/cell

     iteration #  3     ecut=   110.00 Ry     beta= 0.70
     Davidson diagonalization with overlap

---- Real-time Memory Report at c_bands before calling an iterative solver
            80 MiB given to the printing process from OS
             0 MiB allocation reported by mallinfo(arena+hblkhd)
        351793 MiB available memory on the node where the printing process lives
------------------
     ethr =  2.35E-06,  avg # of iterations =  4.0

     total cpu time spent up to now is        6.1 secs

     total energy              =    -753.45472364 Ry
     estimated scf accuracy    <       0.00000334 Ry

     total magnetization       =     3.36 Bohr mag/cell
     absolute magnetization    =     3.69 Bohr mag/cell

     iteration #  4     ecut=   110.00 Ry     beta= 0.70
     Davidson diagonalization with overlap

---- Real-time Memory Report at c_bands before calling an iterative solver
            81 MiB given to the printing process from OS
             0 MiB allocation reported by mallinfo(arena+hblkhd)
        351781 MiB available memory on the node where the printing process lives
------------------
     ethr =  9.81E-09,  avg # of iterations =  7.7

     total cpu time spent up to now is        9.0 secs

     total energy              =    -753.45474641 Ry
     estimated scf accuracy    <       0.00000590 Ry

     total magnetization       =     3.36 Bohr mag/cell
     absolute magnetization    =     3.69 Bohr mag/cell

     iteration #  5     ecut=   110.00 Ry     beta= 0.70
     Davidson diagonalization with overlap

---- Real-time Memory Report at c_bands before calling an iterative solver
            82 MiB given to the printing process from OS
             0 MiB allocation reported by mallinfo(arena+hblkhd)
        351769 MiB available memory on the node where the printing process lives
------------------
     ethr =  9.81E-09,  avg # of iterations =  3.6
 
     Magnetic moment per site  (integrated on atomic sphere of radius R)
     atom   1 (R=0.409)  charge= 15.5957  magn=  1.7556
     atom   2 (R=0.409)  charge= 15.5957  magn=  1.7556

     total cpu time spent up to now is       10.7 secs

     End of self-consistent calculation

 ------ SPIN UP ------------


          k = 0.0000 0.0000 0.0000 (  2875 PWs)   bands (ev):

   -77.8498 -77.7972 -41.2425 -40.9688 -40.9688 -40.9341 -40.9234 -40.9234
     9.3864  13.1683  15.6586  15.6747  15.6747  15.9813  15.9813  16.2973
    16.2973  17.3824  17.3824  18.0768  24.4429

     occupation numbers 
     1.0000   1.0000   1.0000   1.0000   1.0000   1.0000   1.0000   1.0000
     1.0000   1.0000   1.0000   1.0000   1.0000   1.0000   1.0000   1.0000
     1.0000   1.0000   1.0000   1.0000   0.0000

          k = 0.0000 0.0000 0.1033 (  2893 PWs)   bands (ev):

   -77.8463 -77.8007 -41.2221 -40.9657 -40.9657 -40.9551 -40.9264 -40.9264
     9.6608  13.0989  15.5889  15.6082  15.6082  15.9079  15.9079  16.4604
    16.4604  17.1131  17.3670  17.3670  25.9711

     occupation numbers 
     1.0000   1.0000   1.0000   1.0000   1.0000   1.0000   1.0000   1.0000
     1.0000   1.0000   1.0000   1.0000   1.0000   1.0000   1.0000   1.0000
     1.0000   1.0000   1.0000   1.0000   0.0000

          k = 0.0000 0.0000 0.2066 (  2900 PWs)   bands (ev):

   -77.8367 -77.8104 -41.1662 -41.0120 -40.9574 -40.9574 -40.9347 -40.9347
    10.4486  12.6610  15.4275  15.5522  15.5522  15.7465  15.7465  15.7955
    16.7784  16.7784  17.2820  17.2820  29.1819

     occupation numbers 
     1.0000   1.0000   1.0000   1.0000   1.0000   1.0000   1.0000   1.0000
     1.0000   1.0000   1.0000   1.0000   1.0000   1.0000   1.0000   1.0000
     1.0000   1.0000   1.0000   1.0000   0.0000

          k = 0.0000 0.0000-0.3099 (  2882 PWs)   bands (ev):

   -77.8235 -77.8235 -41.0893 -41.0893 -40.9461 -40.9461 -40.9461 -40.9461
    11.5988  11.5988  15.3492  15.3492  15.6032  15.6032  15.6032  15.6032
    17.0802  17.0802  17.0802  17.0802  33.0087

     occupation numbers 
     1.0000   1.0000   1.0000   1.0000   1.0000   1.0000   1.0000   1.0000
     1.0000   1.0000   1.0000   1.0000   1.0000   1.0000   1.0000   1.0000
     1.0000   1.0000   1.0000   1.0000   0.0000

          k = 0.0000 0.0962 0.0000 (  2875 PWs)   bands (ev):

   -77.8469 -77.7959 -41.2358 -40.9832 -40.9735 -40.9384 -40.9370 -40.9258
     9.6243  13.3097  15.4450  15.7850  15.8514  15.9368  16.0787  16.1503
    16.2283  16.6241  17.4118  19.1474  24.4842

     occupation numbers 
     1.0000   1.0000   1.0000   1.0000   1.0000   1.0000   1.0000   1.0000
     1.0000   1.0000   1.0000   1.0000   1.0000   1.0000   1.0000   1.0000
     1.0000   1.0000   1.0000   0.0000   0.0000

          k = 0.0000 0.0962 0.1033 (  2893 PWs)   bands (ev):

   -77.8435 -77.7993 -41.2166 -40.9797 -40.9703 -40.9631 -40.9355 -40.9290
     9.8947  13.2550  15.4419  15.6768  15.7013  15.7594  15.9993  16.3011
    16.4188  16.5145  17.3893  18.3538  26.0807

     occupation numbers 
     1.0000   1.0000   1.0000   1.0000   1.0000   1.0000   1.0000   1.0000
     1.0000   1.0000   1.0000   1.0000   1.0000   1.0000   1.0000   1.0000
     1.0000   1.0000   1.0000   0.0000   0.0000

          k = 0.0000 0.0962 0.2066 (  2881 PWs)   bands (ev):

   -77.8342 -77.8087 -41.1638 -41.0180 -40.9699 -40.9616 -40.9440 -40.9377
    10.6702  12.8458  15.3395  15.4028  15.4817  15.6388  15.8368  15.9161
    16.7545  16.7999  17.2882  17.5787  29.3343

     occupation numbers 
     1.0000   1.0000   1.0000   1.0000   1.0000   1.0000   1.0000   1.0000
     1.0000   1.0000   1.0000   1.0000   1.0000   1.0000   1.0000   1.0000
     1.0000   1.0000   1.0000   1.0000   0.0000

          k = 0.0000 0.0962-0.3099 (  2888 PWs)   bands (ev):

   -77.8214 -77.8214 -41.0913 -41.0913 -40.9569 -40.9569 -40.9497 -40.9497
    11.8021  11.8021  15.1994  15.1994  15.6243  15.6243  15.6916  15.6916
    17.0699  17.0699  17.1710  17.1710  33.1742

     occupation numbers 
     1.0000   1.0000   1.0000   1.0000   1.0000   1.0000   1.0000   1.0000
     1.0000   1.0000   1.0000   1.0000   1.0000   1.0000   1.0000   1.0000
     1.0000   1.0000   1.0000   1.0000   0.0000

          k = 0.0000 0.1925 0.0000 (  2890 PWs)   bands (ev):

   -77.8388 -77.7925 -41.2169 -41.0227 -40.9862 -40.9789 -40.9455 -40.9326
    10.3131  13.6598  15.1778  15.4579  15.7694  16.0581  16.0965  16.1476
    16.2619  16.3518  17.4747  20.7078  24.6286

     occupation numbers 
     1.0000   1.0000   1.0000   1.0000   1.0000   1.0000   1.0000   1.0000
     1.0000   1.0000   1.0000   1.0000   1.0000   1.0000   1.0000   1.0000
     1.0000   1.0000   1.0000   0.0000   0.0000

          k = 0.0000 0.1925 0.1033 (  2892 PWs)   bands (ev):

   -77.8357 -77.7956 -41.2015 -41.0177 -40.9957 -40.9826 -40.9495 -40.9362
    10.5680  13.6497  15.1900  15.2175  15.6533  15.8981  16.0326  16.2362
    16.4068  16.5033  17.4363  19.5653  26.4362

     occupation numbers 
     1.0000   1.0000   1.0000   1.0000   1.0000   1.0000   1.0000   1.0000
     1.0000   1.0000   1.0000   1.0000   1.0000   1.0000   1.0000   1.0000
     1.0000   1.0000   1.0000   0.0000   0.0000

          k = 0.0000 0.1925 0.2066 (  2895 PWs)   bands (ev):

   -77.8272 -77.8041 -41.1591 -41.0417 -41.0017 -40.9728 -40.9626 -40.9460
    11.2957  13.3254  14.8552  15.2676  15.3823  15.8494  15.8562  16.0874
    16.7312  16.8911  17.3014  18.2164  29.7893

     occupation numbers 
     1.0000   1.0000   1.0000   1.0000   1.0000   1.0000   1.0000   1.0000
     1.0000   1.0000   1.0000   1.0000   1.0000   1.0000   1.0000   1.0000
     1.0000   1.0000   1.0000   0.9996   0.0000

          k = 0.0000 0.1925-0.3099 (  2900 PWs)   bands (ev):

   -77.8157 -77.8157 -41.1007 -41.1007 -40.9820 -40.9820 -40.9594 -40.9594
    12.3506  12.3506  14.9698  14.9698  15.5732  15.5732  15.9270  15.9270
    17.0557  17.0557  17.4152  17.4152  33.6211

     occupation numbers 
     1.0000   1.0000   1.0000   1.0000   1.0000   1.0000   1.0000   1.0000
     1.0000   1.0000   1.0000   1.0000   1.0000   1.0000   1.0000   1.0000
     1.0000   1.0000   1.0000   1.0000   0.0000

          k = 0.0000 0.2887 0.0000 (  2910 PWs)   bands (ev):

   -77.8273 -77.7882 -41.1886 -41.0771 -41.0335 -41.0031 -40.9597 -40.9424
    11.3583  13.9436  14.7544  15.0121  15.6793  15.8533  16.0693  16.5480
    16.5621  16.7443  17.5345  22.4716  24.9070

     occupation numbers 
     1.0000   1.0000   1.0000   1.0000   1.0000   1.0000   1.0000   1.0000
     1.0000   1.0000   1.0000   1.0000   1.0000   1.0000   1.0000   1.0000
     1.0000   1.0000   1.0000   0.0000   0.0000

          k = 0.0000 0.2887 0.1033 (  2895 PWs)   bands (ev):

   -77.8247 -77.7909 -41.1817 -41.0678 -41.0468 -40.9990 -40.9628 -40.9464
    11.5718  13.9871  14.6129  15.0612  15.5299  15.8908  16.0766  16.5914
    16.6769  16.6989  17.4815  20.8273  27.0701

     occupation numbers 
     1.0000   1.0000   1.0000   1.0000   1.0000   1.0000   1.0000   1.0000
     1.0000   1.0000   1.0000   1.0000   1.0000   1.0000   1.0000   1.0000
     1.0000   1.0000   1.0000   0.0000   0.0000

          k = 0.0000 0.2887 0.2066 (  2898 PWs)   bands (ev):

   -77.8176 -77.7980 -41.1605 -41.0864 -41.0358 -40.9880 -40.9768 -40.9576
    12.1665  13.7559  14.5288  15.0971  15.3980  15.9224  16.0103  16.4413
    16.8494  17.0514  17.3271  18.9819  30.4010

     occupation numbers 
     1.0000   1.0000   1.0000   1.0000   1.0000   1.0000   1.0000   1.0000
     1.0000   1.0000   1.0000   1.0000   1.0000   1.0000   1.0000   1.0000
     1.0000   1.0000   1.0000   0.0000   0.0000

          k = 0.0000 0.2887-0.3099 (  2924 PWs)   bands (ev):

   -77.8078 -77.8078 -41.1264 -41.1264 -41.0034 -41.0034 -40.9728 -40.9728
    12.9901  12.9901  14.8200  14.8200  15.6296  15.6296  16.2081  16.2081
    17.0974  17.0974  17.7572  17.7572  32.4114

     occupation numbers 
     1.0000   1.0000   1.0000   1.0000   1.0000   1.0000   1.0000   1.0000
     1.0000   1.0000   1.0000   1.0000   1.0000   1.0000   1.0000   1.0000
     1.0000   1.0000   1.0000   1.0000   0.0000

          k = 0.0000 0.3849 0.0000 (  2896 PWs)   bands (ev):

   -77.8150 -77.7848 -41.1553 -41.1320 -41.0870 -41.0196 -40.9788 -40.9525
    12.5086  13.8834  14.2440  15.1120  15.6688  15.7978  15.8988  17.0286
    17.1699  17.2241  17.5756  24.3970  24.9681

     occupation numbers 
     1.0000   1.0000   1.0000   1.0000   1.0000   1.0000   1.0000   1.0000
     1.0000   1.0000   1.0000   1.0000   1.0000   1.0000   1.0000   1.0000
     1.0000   1.0000   1.0000   0.0000   0.0000

          k = 0.0000 0.3849 0.1033 (  2898 PWs)   bands (ev):

   -77.8130 -77.7869 -41.1730 -41.1100 -41.0915 -41.0151 -40.9786 -40.9570
    12.6118  13.9173  14.2732  14.9785  15.7148  15.7590  16.2346  17.0488
    17.0783  17.1613  17.5234  22.0550  27.0495

     occupation numbers 
     1.0000   1.0000   1.0000   1.0000   1.0000   1.0000   1.0000   1.0000
     1.0000   1.0000   1.0000   1.0000   1.0000   1.0000   1.0000   1.0000
     1.0000   1.0000   1.0000   0.0000   0.0000

          k = 0.0000 0.3849 0.2066 (  2909 PWs)   bands (ev):

   -77.8075 -77.7924 -41.1792 -41.1361 -41.0511 -41.0029 -40.9868 -40.9693
    12.8980  13.7403  14.4090  14.9083  15.8045  16.0134  16.5275  16.7717
    17.1511  17.2750  17.4076  19.8641  28.1084

     occupation numbers 
     1.0000   1.0000   1.0000   1.0000   1.0000   1.0000   1.0000   1.0000
     1.0000   1.0000   1.0000   1.0000   1.0000   1.0000   1.0000   1.0000
     1.0000   1.0000   1.0000   0.0000   0.0000

          k = 0.0000 0.3849-0.3099 (  2914 PWs)   bands (ev):

   -77.7999 -77.7999 -41.1650 -41.1650 -41.0116 -41.0116 -40.9861 -40.9861
    13.3094  13.3094  14.6998  14.6998  16.2083  16.2083  16.3812  16.3812
    17.2746  17.2746  18.2348  18.2348  29.2251

     occupation numbers 
     1.0000   1.0000   1.0000   1.0000   1.0000   1.0000   1.0000   1.0000
     1.0000   1.0000   1.0000   1.0000   1.0000   1.0000   1.0000   1.0000
     1.0000   1.0000   0.9252   0.9251   0.0000

          k = 0.0000 0.4811 0.0000 (  2912 PWs)   bands (ev):

   -77.8049 -77.7834 -41.1725 -41.1257 -41.1245 -41.0314 -40.9992 -40.9600
    13.2810  13.7015  13.9389  15.4566  15.5427  15.7785  15.9944  17.3874
    17.5225  17.5977  18.3052  23.1170  26.3871

     occupation numbers 
     1.0000   1.0000   1.0000   1.0000   1.0000   1.0000   1.0000   1.0000
     1.0000   1.0000   1.0000   1.0000   1.0000   1.0000   1.0000   1.0000
     1.0000   1.0000   0.0000   0.0000   0.0000

          k = 0.0000 0.4811 0.1033 (  2906 PWs)   bands (ev):

   -77.8035 -77.7849 -41.1910 -41.1425 -41.0932 -41.0267 -40.9951 -40.9648
    13.1803  13.7021  14.2394  14.8774  15.6532  15.9906  16.5777  17.3319
    17.4236  17.5941  18.1511  22.3689  25.6479

     occupation numbers 
     1.0000   1.0000   1.0000   1.0000   1.0000   1.0000   1.0000   1.0000
     1.0000   1.0000   1.0000   1.0000   1.0000   1.0000   1.0000   1.0000
     1.0000   1.0000   1.0000   0.0000   0.0000

          k = 0.0000 0.4811 0.2066 (  2914 PWs)   bands (ev):

   -77.7996 -77.7888 -41.2048 -41.1732 -41.0482 -41.0137 -40.9953 -40.9779
    13.1557  13.6300  14.3962  14.7216  15.9666  16.2236  16.9323  17.4526
    17.5059  17.5587  17.8567  20.6871  25.7623

     occupation numbers 
     1.0000   1.0000   1.0000   1.0000   1.0000   1.0000   1.0000   1.0000
     1.0000   1.0000   1.0000   1.0000   1.0000   1.0000   1.0000   1.0000
     1.0000   1.0000   1.0000   0.0000   0.0000

          k = 0.0000 0.4811-0.3099 (  2908 PWs)   bands (ev):

   -77.7942 -77.7942 -41.1980 -41.1980 -41.0128 -41.0128 -40.9958 -40.9958
    13.3404  13.3404  14.5834  14.5834  16.4267  16.4267  16.9137  16.9137
    17.5058  17.5058  19.0583  19.0583  26.5401

     occupation numbers 
     1.0000   1.0000   1.0000   1.0000   1.0000   1.0000   1.0000   1.0000
     1.0000   1.0000   1.0000   1.0000   1.0000   1.0000   1.0000   1.0000
     1.0000   1.0000   0.0000   0.0000   0.0000

          k = 0.0000-0.5774 0.0000 (  2906 PWs)   bands (ev):

   -77.8007 -77.7835 -41.1874 -41.1397 -41.1101 -41.0358 -41.0098 -40.9628
    13.5497  13.5592  13.8376  15.4982  15.6972  15.7351  16.0688  17.5169
    17.6045  17.6651  19.4425  21.4035  27.6779

     occupation numbers 
     1.0000   1.0000   1.0000   1.0000   1.0000   1.0000   1.0000   1.0000
     1.0000   1.0000   1.0000   1.0000   1.0000   1.0000   1.0000   1.0000
     1.0000   1.0000   0.0000   0.0000   0.0000

          k = 0.0000-0.5774 0.1033 (  2920 PWs)   bands (ev):

   -77.7995 -77.7846 -41.2021 -41.1557 -41.0854 -41.0309 -41.0036 -40.9677
    13.2869  13.6088  14.2749  14.8500  15.6144  16.0763  16.7718  17.3942
    17.5653  17.6575  19.2464  21.2381  26.7849

     occupation numbers 
     1.0000   1.0000   1.0000   1.0000   1.0000   1.0000   1.0000   1.0000
     1.0000   1.0000   1.0000   1.0000   1.0000   1.0000   1.0000   1.0000
     1.0000   1.0000   0.0000   0.0000   0.0000

          k = 0.0000-0.5774 0.2066 (  2902 PWs)   bands (ev):

   -77.7964 -77.7878 -41.2160 -41.1867 -41.0443 -41.0176 -40.9995 -40.9811
    13.1796  13.5870  14.4199  14.6364  15.9447  16.3640  16.9672  17.5793
    17.6190  17.6365  18.9520  20.6718  25.7026

     occupation numbers 
     1.0000   1.0000   1.0000   1.0000   1.0000   1.0000   1.0000   1.0000
     1.0000   1.0000   1.0000   1.0000   1.0000   1.0000   1.0000   1.0000
     1.0000   1.0000   0.0000   0.0000   0.0000

          k = 0.0000-0.5774-0.3099 (  2908 PWs)   bands (ev):

   -77.7921 -77.7921 -41.2106 -41.2106 -41.0126 -41.0126 -40.9994 -40.9994
    13.3258  13.3258  14.5374  14.5374  16.4310  16.4310  17.1491  17.1491
    17.6076  17.6076  19.7076  19.7076  25.2940

     occupation numbers 
     1.0000   1.0000   1.0000   1.0000   1.0000   1.0000   1.0000   1.0000
     1.0000   1.0000   1.0000   1.0000   1.0000   1.0000   1.0000   1.0000
     1.0000   1.0000   0.0000   0.0000   0.0000

          k = 0.0833 0.1443 0.0000 (  2872 PWs)   bands (ev):

   -77.8414 -77.7935 -41.2231 -41.0077 -40.9880 -40.9609 -40.9426 -40.9323
    10.0885  13.5610  15.2350  15.6965  15.8346  16.0040  16.0103  16.0322
    16.2939  16.3771  17.4486  20.2698  24.5790

     occupation numbers 
     1.0000   1.0000   1.0000   1.0000   1.0000   1.0000   1.0000   1.0000
     1.0000   1.0000   1.0000   1.0000   1.0000   1.0000   1.0000   1.0000
     1.0000   1.0000   1.0000   0.0000   0.0000

          k = 0.0833 0.1443 0.1033 (  2879 PWs)   bands (ev):

   -77.8382 -77.7968 -41.2063 -41.0031 -40.9903 -40.9751 -40.9446 -40.9357
    10.3492  13.5364  15.2591  15.3726  15.6952  15.8632  16.0075  16.1554
    16.4336  16.4840  17.4179  19.2365  26.3152

     occupation numbers 
     1.0000   1.0000   1.0000   1.0000   1.0000   1.0000   1.0000   1.0000
     1.0000   1.0000   1.0000   1.0000   1.0000   1.0000   1.0000   1.0000
     1.0000   1.0000   1.0000   0.0000   0.0000

          k = 0.0833 0.1443 0.2066 (  2894 PWs)   bands (ev):

   -77.8295 -77.8055 -41.1602 -41.0329 -40.9906 -40.9727 -40.9544 -40.9450
    11.0954  13.1843  14.9762  15.3140  15.3936  15.7895  15.8681  16.0091
    16.7594  16.8361  17.3009  18.0316  29.6408

     occupation numbers 
     1.0000   1.0000   1.0000   1.0000   1.0000   1.0000   1.0000   1.0000
     1.0000   1.0000   1.0000   1.0000   1.0000   1.0000   1.0000   1.0000
     1.0000   1.0000   1.0000   1.0000   0.0000

          k = 0.0833 0.1443-0.3099 (  2892 PWs)   bands (ev):

   -77.8175 -77.8175 -41.0968 -41.0968 -40.9746 -40.9746 -40.9567 -40.9567
    12.1814  12.1814  15.0274  15.0274  15.5732  15.5732  15.8654  15.8654
    17.0608  17.0608  17.3389  17.3389  33.4921

     occupation numbers 
     1.0000   1.0000   1.0000   1.0000   1.0000   1.0000   1.0000   1.0000
     1.0000   1.0000   1.0000   1.0000   1.0000   1.0000   1.0000   1.0000
     1.0000   1.0000   1.0000   1.0000   0.0000

          k = 0.0833 0.2406 0.0000 (  2896 PWs)   bands (ev):

   -77.8316 -77.7897 -41.1994 -41.0511 -41.0239 -40.9880 -40.9541 -40.9434
    10.9635  13.9201  14.9694  15.0130  15.7183  15.8155  16.2280  16.2513
    16.4208  16.6966  17.4942  21.8346  24.8112

     occupation numbers 
     1.0000   1.0000   1.0000   1.0000   1.0000   1.0000   1.0000   1.0000
     1.0000   1.0000   1.0000   1.0000   1.0000   1.0000   1.0000   1.0000
     1.0000   1.0000   1.0000   0.0000   0.0000

          k = 0.0833 0.2406 0.1033 (  2897 PWs)   bands (ev):

   -77.8288 -77.7925 -41.1884 -41.0445 -41.0318 -40.9925 -40.9562 -40.9469
    11.1977  13.9543  14.8064  15.0169  15.5967  15.8513  16.0443  16.3607
    16.6102  16.6799  17.4579  20.3920  26.8316

     occupation numbers 
     1.0000   1.0000   1.0000   1.0000   1.0000   1.0000   1.0000   1.0000
     1.0000   1.0000   1.0000   1.0000   1.0000   1.0000   1.0000   1.0000
     1.0000   1.0000   1.0000   0.0000   0.0000

          k = 0.0833 0.2406 0.2066 (  2899 PWs)   bands (ev):

   -77.8212 -77.8002 -41.1577 -41.0678 -41.0218 -40.9902 -40.9665 -40.9567
    11.8599  13.6944  14.6098  15.1176  15.3434  15.7548  15.9905  16.3162
    16.8485  16.9646  17.3405  18.7154  30.2371

     occupation numbers 
     1.0000   1.0000   1.0000   1.0000   1.0000   1.0000   1.0000   1.0000
     1.0000   1.0000   1.0000   1.0000   1.0000   1.0000   1.0000   1.0000
     1.0000   1.0000   1.0000   0.0000   0.0000

          k = 0.0833 0.2406-0.3099 (  2912 PWs)   bands (ev):

   -77.8107 -77.8107 -41.1140 -41.1140 -40.9977 -40.9977 -40.9689 -40.9689
    12.8037  12.8037  14.8725  14.8725  15.4739  15.4739  16.1345  16.1345
    17.1047  17.1047  17.6344  17.6344  33.7974

     occupation numbers 
     1.0000   1.0000   1.0000   1.0000   1.0000   1.0000   1.0000   1.0000
     1.0000   1.0000   1.0000   1.0000   1.0000   1.0000   1.0000   1.0000
     1.0000   1.0000   1.0000   1.0000   0.0000

          k = 0.0833 0.3368 0.0000 (  2903 PWs)   bands (ev):

   -77.8197 -77.7859 -41.1683 -41.1045 -41.0693 -41.0126 -40.9709 -40.9555
    12.0962  14.0427  14.4537  14.8953  15.6334  15.7291  16.0394  16.6407
    16.9077  17.2436  17.5326  23.6420  25.1606

     occupation numbers 
     1.0000   1.0000   1.0000   1.0000   1.0000   1.0000   1.0000   1.0000
     1.0000   1.0000   1.0000   1.0000   1.0000   1.0000   1.0000   1.0000
     1.0000   1.0000   1.0000   0.0000   0.0000

          k = 0.0833 0.3368 0.1033 (  2898 PWs)   bands (ev):

   -77.8174 -77.7882 -41.1714 -41.0927 -41.0746 -41.0124 -40.9717 -40.9585
    12.2619  14.1089  14.3607  14.9427  15.5136  15.8563  16.0220  16.6605
    16.9962  17.1124  17.5388  21.6406  27.5500

     occupation numbers 
     1.0000   1.0000   1.0000   1.0000   1.0000   1.0000   1.0000   1.0000
     1.0000   1.0000   1.0000   1.0000   1.0000   1.0000   1.0000   1.0000
     1.0000   1.0000   1.0000   0.0000   0.0000

          k = 0.0833 0.3368 0.2066 (  2905 PWs)   bands (ev):

   -77.8113 -77.7944 -41.1667 -41.1147 -41.0458 -41.0062 -40.9805 -40.9675
    12.7102  13.8757  14.4608  15.0210  15.4263  15.8871  16.0653  16.6357
    17.0710  17.2291  17.5051  19.5640  29.7384

     occupation numbers 
     1.0000   1.0000   1.0000   1.0000   1.0000   1.0000   1.0000   1.0000
     1.0000   1.0000   1.0000   1.0000   1.0000   1.0000   1.0000   1.0000
     1.0000   1.0000   1.0000   0.0000   0.0000

          k = 0.0833 0.3368-0.3099 (  2910 PWs)   bands (ev):

   -77.8028 -77.8028 -41.1461 -41.1461 -41.0131 -41.0131 -40.9816 -40.9816
    13.3066  13.3066  14.7975  14.7975  15.6381  15.6381  16.3244  16.3244
    17.2960  17.2960  18.0880  18.0880  30.9220

     occupation numbers 
     1.0000   1.0000   1.0000   1.0000   1.0000   1.0000   1.0000   1.0000
     1.0000   1.0000   1.0000   1.0000   1.0000   1.0000   1.0000   1.0000
     1.0000   1.0000   1.0000   1.0000   0.0000

          k = 0.0833 0.4330 0.0000 (  2912 PWs)   bands (ev):

   -77.8083 -77.7837 -41.1519 -41.1354 -41.1092 -41.0318 -40.9916 -40.9658
    13.1062  13.8765  14.0751  15.1118  15.5155  15.8528  15.9150  17.1289
    17.3234  17.5565  18.0191  24.4491  25.6081

     occupation numbers 
     1.0000   1.0000   1.0000   1.0000   1.0000   1.0000   1.0000   1.0000
     1.0000   1.0000   1.0000   1.0000   1.0000   1.0000   1.0000   1.0000
     1.0000   1.0000   1.0000   0.0000   0.0000

          k = 0.0833 0.4330 0.1033 (  2906 PWs)   bands (ev):

   -77.8067 -77.7853 -41.1765 -41.1281 -41.0942 -41.0286 -40.9894 -40.9687
    13.1065  13.9029  14.2174  14.8859  15.5941  15.9221  16.1921  17.0774
    17.3786  17.3837  18.0203  22.7028  26.1555

     occupation numbers 
     1.0000   1.0000   1.0000   1.0000   1.0000   1.0000   1.0000   1.0000
     1.0000   1.0000   1.0000   1.0000   1.0000   1.0000   1.0000   1.0000
     1.0000   1.0000   1.0000   0.0000   0.0000

          k = 0.0833 0.4330 0.2066 (  2898 PWs)   bands (ev):

   -77.8022 -77.7899 -41.1895 -41.1561 -41.0523 -41.0171 -40.9946 -40.9758
    13.1980  13.7750  14.3995  14.8685  15.7012  16.1157  16.5622  16.8232
    17.2493  17.5424  18.0882  20.5749  26.8532

     occupation numbers 
     1.0000   1.0000   1.0000   1.0000   1.0000   1.0000   1.0000   1.0000
     1.0000   1.0000   1.0000   1.0000   1.0000   1.0000   1.0000   1.0000
     1.0000   1.0000   1.0000   0.0000   0.0000

          k = 0.0833 0.4330-0.3099 (  2900 PWs)   bands (ev):

   -77.7960 -77.7960 -41.1811 -41.1811 -41.0213 -41.0213 -40.9903 -40.9903
    13.4448  13.4448  14.6875  14.6875  16.1303  16.1303  16.5044  16.5044
    17.4945  17.4945  18.9198  18.9198  27.8942

     occupation numbers 
     1.0000   1.0000   1.0000   1.0000   1.0000   1.0000   1.0000   1.0000
     1.0000   1.0000   1.0000   1.0000   1.0000   1.0000   1.0000   1.0000
     1.0000   1.0000   0.0000   0.0000   0.0000

          k = 0.0833 0.5292 0.0000 (  2918 PWs)   bands (ev):

   -77.8007 -77.7834 -41.1794 -41.1324 -41.1103 -41.0423 -41.0096 -40.9718
    13.5696  13.7162  13.8859  15.4631  15.4687  15.7288  16.0658  17.4782
    17.5481  17.5671  19.2703  22.1603  27.4864

     occupation numbers 
     1.0000   1.0000   1.0000   1.0000   1.0000   1.0000   1.0000   1.0000
     1.0000   1.0000   1.0000   1.0000   1.0000   1.0000   1.0000   1.0000
     1.0000   1.0000   0.0000   0.0000   0.0000

          k = 0.0833 0.5292 0.1033 (  2909 PWs)   bands (ev):

   -77.7996 -77.7846 -41.1943 -41.1489 -41.0868 -41.0361 -41.0048 -40.9748
    13.3638  13.7356  14.3026  14.8315  15.5211  16.1128  16.4439  17.3444
    17.5082  17.5797  19.2093  21.9160  26.1925

     occupation numbers 
     1.0000   1.0000   1.0000   1.0000   1.0000   1.0000   1.0000   1.0000
     1.0000   1.0000   1.0000   1.0000   1.0000   1.0000   1.0000   1.0000
     1.0000   1.0000   0.0000   0.0000   0.0000

          k = 0.0833 0.5292 0.2066 (  2910 PWs)   bands (ev):

   -77.7964 -77.7877 -41.2083 -41.1797 -41.0521 -41.0180 -41.0064 -40.9809
    13.2796  13.7096  14.4269  14.7386  15.6920  16.4168  16.8210  17.0626
    17.4672  17.6550  19.2632  21.0941  25.4392

     occupation numbers 
     1.0000   1.0000   1.0000   1.0000   1.0000   1.0000   1.0000   1.0000
     1.0000   1.0000   1.0000   1.0000   1.0000   1.0000   1.0000   1.0000
     1.0000   1.0000   0.0000   0.0000   0.0000

          k = 0.0833 0.5292-0.3099 (  2906 PWs)   bands (ev):

   -77.7921 -77.7921 -41.2032 -41.2032 -41.0258 -41.0258 -40.9937 -40.9937
    13.4355  13.4355  14.6065  14.6065  16.2279  16.2279  16.9269  16.9269
    17.5345  17.5345  19.9941  19.9941  25.7093

     occupation numbers 
     1.0000   1.0000   1.0000   1.0000   1.0000   1.0000   1.0000   1.0000
     1.0000   1.0000   1.0000   1.0000   1.0000   1.0000   1.0000   1.0000
     1.0000   1.0000   0.0000   0.0000   0.0000

          k = 0.1667 0.2887 0.0000 (  2902 PWs)   bands (ev):

   -77.8213 -77.7864 -41.1728 -41.0827 -41.0738 -41.0045 -40.9683 -40.9629
    11.9504  14.2104  14.5642  14.6841  15.5660  15.7276  16.1293  16.4137
    16.8959  17.2638  17.4957  23.3866  25.1997

     occupation numbers 
     1.0000   1.0000   1.0000   1.0000   1.0000   1.0000   1.0000   1.0000
     1.0000   1.0000   1.0000   1.0000   1.0000   1.0000   1.0000   1.0000
     1.0000   1.0000   1.0000   0.0000   0.0000

          k = 0.1667 0.2887 0.1033 (  2911 PWs)   bands (ev):

   -77.8190 -77.7887 -41.1716 -41.0808 -41.0687 -41.0121 -40.9667 -40.9653
    12.1372  14.3046  14.4257  14.7354  15.5405  15.7376  16.0092  16.4891
    17.0115  17.1033  17.5513  21.5029  27.5520

     occupation numbers 
     1.0000   1.0000   1.0000   1.0000   1.0000   1.0000   1.0000   1.0000
     1.0000   1.0000   1.0000   1.0000   1.0000   1.0000   1.0000   1.0000
     1.0000   1.0000   1.0000   0.0000   0.0000

          k = 0.1667 0.2887 0.2066 (  2904 PWs)   bands (ev):

   -77.8126 -77.7951 -41.1613 -41.1054 -41.0383 -41.0148 -40.9761 -40.9696
    12.6489  13.9929  14.5606  14.8841  15.3748  15.6048  16.0042  16.5757
    17.0841  17.2076  17.5796  19.4864  30.8891

     occupation numbers 
     1.0000   1.0000   1.0000   1.0000   1.0000   1.0000   1.0000   1.0000
     1.0000   1.0000   1.0000   1.0000   1.0000   1.0000   1.0000   1.0000
     1.0000   1.0000   1.0000   0.0000   0.0000

          k = 0.1667 0.2887-0.3099 (  2910 PWs)   bands (ev):

   -77.8039 -77.8039 -41.1373 -41.1373 -41.0149 -41.0149 -40.9806 -40.9806
    13.3384  13.3384  14.8766  14.8766  15.3264  15.3264  16.2758  16.2758
    17.3446  17.3446  18.0671  18.0671  32.6401

     occupation numbers 
     1.0000   1.0000   1.0000   1.0000   1.0000   1.0000   1.0000   1.0000
     1.0000   1.0000   1.0000   1.0000   1.0000   1.0000   1.0000   1.0000
     1.0000   1.0000   1.0000   1.0000   0.0000

          k = 0.1667 0.3849 0.0000 (  2915 PWs)   bands (ev):

   -77.8102 -77.7839 -41.1412 -41.1248 -41.1044 -41.0301 -40.9877 -40.9816
    13.0376  14.2016  14.2118  14.6521  15.4151  15.8672  15.9439  16.7124
    17.3243  17.4934  18.0417  25.2165  25.5684

     occupation numbers 
     1.0000   1.0000   1.0000   1.0000   1.0000   1.0000   1.0000   1.0000
     1.0000   1.0000   1.0000   1.0000   1.0000   1.0000   1.0000   1.0000
     1.0000   1.0000   1.0000   0.0000   0.0000

          k = 0.1667 0.3849 0.1033 (  2910 PWs)   bands (ev):

   -77.8084 -77.7857 -41.1622 -41.1212 -41.0838 -41.0365 -40.9885 -40.9776
    13.1198  14.1436  14.3017  14.7323  15.4710  15.8429  15.9027  16.7419
    17.2824  17.4107  18.1288  22.7797  27.5942

     occupation numbers 
     1.0000   1.0000   1.0000   1.0000   1.0000   1.0000   1.0000   1.0000
     1.0000   1.0000   1.0000   1.0000   1.0000   1.0000   1.0000   1.0000
     1.0000   1.0000   1.0000   0.0000   0.0000

          k = 0.1667 0.3849 0.2066 (  2900 PWs)   bands (ev):

   -77.8036 -77.7905 -41.1732 -41.1419 -41.0499 -41.0339 -40.9954 -40.9754
    13.3411  13.9457  14.5429  14.9614  15.3967  15.6811  16.0314  16.7007
    17.1892  17.5583  18.3107  20.5878  28.5424

     occupation numbers 
     1.0000   1.0000   1.0000   1.0000   1.0000   1.0000   1.0000   1.0000
     1.0000   1.0000   1.0000   1.0000   1.0000   1.0000   1.0000   1.0000
     1.0000   1.0000   0.0000   0.0000   0.0000

          k = 0.1667 0.3849-0.3099 (  2898 PWs)   bands (ev):

   -77.7971 -77.7971 -41.1645 -41.1645 -41.0330 -41.0330 -40.9873 -40.9873
    13.6436  13.6436  14.8775  14.8775  15.4718  15.4718  16.2957  16.2957
    17.5477  17.5477  19.0041  19.0041  29.6922

     occupation numbers 
     1.0000   1.0000   1.0000   1.0000   1.0000   1.0000   1.0000   1.0000
     1.0000   1.0000   1.0000   1.0000   1.0000   1.0000   1.0000   1.0000
     1.0000   1.0000   0.0000   0.0000   0.0000

          k = 0.1667 0.4811 0.0000 (  2920 PWs)   bands (ev):

   -77.8008 -77.7834 -41.1585 -41.1191 -41.1106 -41.0544 -41.0093 -40.9943
    13.7363  13.9943  14.0084  14.9469  15.3736  15.7426  16.0627  17.1073
    17.4906  17.5371  19.1904  23.7996  27.2015

     occupation numbers 
     1.0000   1.0000   1.0000   1.0000   1.0000   1.0000   1.0000   1.0000
     1.0000   1.0000   1.0000   1.0000   1.0000   1.0000   1.0000   1.0000
     1.0000   1.0000   0.0000   0.0000   0.0000

          k = 0.1667 0.4811 0.1033 (  2911 PWs)   bands (ev):

   -77.7996 -77.7846 -41.1737 -41.1381 -41.0864 -41.0500 -41.0088 -40.9890
    13.5924  14.0716  14.2430  14.7741  15.4251  15.8740  16.1266  17.0905
    17.2999  17.5979  19.2739  23.2757  25.9810

     occupation numbers 
     1.0000   1.0000   1.0000   1.0000   1.0000   1.0000   1.0000   1.0000
     1.0000   1.0000   1.0000   1.0000   1.0000   1.0000   1.0000   1.0000
     1.0000   1.0000   0.0000   0.0000   0.0000

          k = 0.1667 0.4811 0.2066 (  2911 PWs)   bands (ev):

   -77.7964 -77.7877 -41.1890 -41.1650 -41.0668 -41.0348 -41.0088 -40.9814
    13.5578  13.9913  14.4414  14.9748  15.3226  15.9947  16.3344  16.7869
    17.2729  17.6729  19.5869  21.7844  26.0400

     occupation numbers 
     1.0000   1.0000   1.0000   1.0000   1.0000   1.0000   1.0000   1.0000
     1.0000   1.0000   1.0000   1.0000   1.0000   1.0000   1.0000   1.0000
     1.0000   1.0000   0.0000   0.0000   0.0000

          k = 0.1667 0.4811-0.3099 (  2902 PWs)   bands (ev):

   -77.7921 -77.7921 -41.1858 -41.1858 -41.0479 -41.0479 -40.9892 -40.9892
    13.7134  13.7134  14.7811  14.7811  15.7234  15.7234  16.4814  16.4814
    17.5533  17.5533  20.3913  20.3913  26.9167

     occupation numbers 
     1.0000   1.0000   1.0000   1.0000   1.0000   1.0000   1.0000   1.0000
     1.0000   1.0000   1.0000   1.0000   1.0000   1.0000   1.0000   1.0000
     1.0000   1.0000   0.0000   0.0000   0.0000

          k = 0.1667 0.5774 0.0000 (  2920 PWs)   bands (ev):

   -77.7966 -77.7839 -41.1708 -41.1234 -41.0951 -41.0646 -41.0215 -40.9988
    13.9111  13.9149  13.9214  15.1602  15.3905  15.6373  16.1463  17.3748
    17.4894  17.5159  20.4401  21.9663  28.3192

     occupation numbers 
     1.0000   1.0000   1.0000   1.0000   1.0000   1.0000   1.0000   1.0000
     1.0000   1.0000   1.0000   1.0000   1.0000   1.0000   1.0000   1.0000
     1.0000   1.0000   0.0000   0.0000   0.0000

          k = 0.1667 0.5774 0.1033 (  2914 PWs)   bands (ev):

   -77.7957 -77.7848 -41.1826 -41.1410 -41.0894 -41.0459 -41.0214 -40.9938
    13.6219  13.9889  14.4053  14.7547  15.3493  15.9919  16.2146  17.2712
    17.3711  17.5683  20.5419  21.9233  27.2838

     occupation numbers 
     1.0000   1.0000   1.0000   1.0000   1.0000   1.0000   1.0000   1.0000
     1.0000   1.0000   1.0000   1.0000   1.0000   1.0000   1.0000   1.0000
     1.0000   1.0000   0.0000   0.0000   0.0000

          k = 0.1667 0.5774 0.2066 (  2905 PWs)   bands (ev):

   -77.7934 -77.7871 -41.1965 -41.1722 -41.0742 -41.0336 -41.0128 -40.9844
    13.5579  14.0050  14.4766  14.9337  15.2406  16.1910  16.4517  16.8557
    17.3860  17.6065  20.8531  21.7444  25.9954

     occupation numbers 
     1.0000   1.0000   1.0000   1.0000   1.0000   1.0000   1.0000   1.0000
     1.0000   1.0000   1.0000   1.0000   1.0000   1.0000   1.0000   1.0000
     1.0000   1.0000   0.0000   0.0000   0.0000

          k = 0.1667 0.5774-0.3099 (  2910 PWs)   bands (ev):

   -77.7902 -77.7902 -41.1938 -41.1938 -41.0537 -41.0536 -40.9894 -40.9894
    13.7174  13.7174  14.7421  14.7421  15.7614  15.7614  16.6803  16.6803
    17.4939  17.4939  21.3390  21.3390  25.5028

     occupation numbers 
     1.0000   1.0000   1.0000   1.0000   1.0000   1.0000   1.0000   1.0000
     1.0000   1.0000   1.0000   1.0000   1.0000   1.0000   1.0000   1.0000
     1.0000   1.0000   0.0000   0.0000   0.0000

          k = 0.2500 0.4330 0.0000 (  2906 PWs)   bands (ev):

   -77.8008 -77.7834 -41.1402 -41.1205 -41.1108 -41.0547 -41.0110 -41.0091
    13.8589  14.0566  14.3883  14.4415  15.3108  15.7579  16.0699  16.8867
    17.4513  17.5429  19.1963  25.5479  26.2851

     occupation numbers 
     1.0000   1.0000   1.0000   1.0000   1.0000   1.0000   1.0000   1.0000
     1.0000   1.0000   1.0000   1.0000   1.0000   1.0000   1.0000   1.0000
     1.0000   1.0000   0.0000   0.0000   0.0000

          k = 0.2500 0.4330 0.1033 (  2910 PWs)   bands (ev):

   -77.7996 -77.7845 -41.1535 -41.1442 -41.0724 -41.0679 -41.0137 -40.9945
    13.8671  14.0093  14.4535  14.5656  15.4597  15.6180  16.0605  16.9182
    17.2494  17.6056  19.3209  24.0596  26.5666

     occupation numbers 
     1.0000   1.0000   1.0000   1.0000   1.0000   1.0000   1.0000   1.0000
     1.0000   1.0000   1.0000   1.0000   1.0000   1.0000   1.0000   1.0000
     1.0000   1.0000   0.0000   0.0000   0.0000

          k = 0.2500 0.4330 0.2066 (  2917 PWs)   bands (ev):

   -77.7964 -77.7877 -41.1745 -41.1596 -41.0720 -41.0499 -41.0082 -40.9819
    13.8771  13.9562  14.6149  14.9428  15.3031  15.5723  16.0877  16.7035
    17.2430  17.6798  19.6963  22.0548  27.3454

     occupation numbers 
     1.0000   1.0000   1.0000   1.0000   1.0000   1.0000   1.0000   1.0000
     1.0000   1.0000   1.0000   1.0000   1.0000   1.0000   1.0000   1.0000
     1.0000   1.0000   0.0000   0.0000   0.0000

          k = 0.2500 0.4330-0.3099 (  2904 PWs)   bands (ev):

   -77.7921 -77.7921 -41.1750 -41.1750 -41.0601 -41.0601 -40.9879 -40.9879
    13.9088  13.9088  14.9265  14.9265  15.3618  15.3618  16.2874  16.2874
    17.5722  17.5722  20.5407  20.5407  28.3665

     occupation numbers 
     1.0000   1.0000   1.0000   1.0000   1.0000   1.0000   1.0000   1.0000
     1.0000   1.0000   1.0000   1.0000   1.0000   1.0000   1.0000   1.0000
     1.0000   1.0000   0.0000   0.0000   0.0000

          k = 0.2500 0.5292 0.0000 (  2918 PWs)   bands (ev):

   -77.7937 -77.7847 -41.1523 -41.1120 -41.0835 -41.0819 -41.0312 -41.0298
    13.9837  14.1548  14.2585  14.7391  15.3288  15.5651  16.2327  17.1531
    17.4265  17.4892  20.8258  23.3438  25.6422

     occupation numbers 
     1.0000   1.0000   1.0000   1.0000   1.0000   1.0000   1.0000   1.0000
     1.0000   1.0000   1.0000   1.0000   1.0000   1.0000   1.0000   1.0000
     1.0000   1.0000   0.0000   0.0000   0.0000

          k = 0.2500 0.5292 0.1033 (  2918 PWs)   bands (ev):

   -77.7931 -77.7853 -41.1589 -41.1347 -41.1003 -41.0531 -41.0346 -41.0091
    13.9257  14.2836  14.3791  14.6403  15.3579  15.5676  16.2364  17.1578
    17.2270  17.5319  21.0125  23.3710  25.6917

     occupation numbers 
     1.0000   1.0000   1.0000   1.0000   1.0000   1.0000   1.0000   1.0000
     1.0000   1.0000   1.0000   1.0000   1.0000   1.0000   1.0000   1.0000
     1.0000   1.0000   0.0000   0.0000   0.0000

          k = 0.2500 0.5292 0.2066 (  2919 PWs)   bands (ev):

   -77.7914 -77.7869 -41.1748 -41.1611 -41.0986 -41.0599 -41.0071 -40.9887
    13.9428  14.2855  14.5408  14.8217  15.2319  15.5867  16.2772  16.7321
    17.3094  17.5708  21.5081  23.1022  25.6208

     occupation numbers 
     1.0000   1.0000   1.0000   1.0000   1.0000   1.0000   1.0000   1.0000
     1.0000   1.0000   1.0000   1.0000   1.0000   1.0000   1.0000   1.0000
     1.0000   1.0000   0.0000   0.0000   0.0000

          k = 0.2500 0.5292-0.3099 (  2910 PWs)   bands (ev):

   -77.7892 -77.7892 -41.1775 -41.1775 -41.0804 -41.0804 -40.9872 -40.9872
    14.0770  14.0770  14.8246  14.8246  15.3680  15.3680  16.4008  16.4008
    17.4851  17.4851  22.2742  22.2742  26.1569

     occupation numbers 
     1.0000   1.0000   1.0000   1.0000   1.0000   1.0000   1.0000   1.0000
     1.0000   1.0000   1.0000   1.0000   1.0000   1.0000   1.0000   1.0000
     1.0000   1.0000   0.0000   0.0000   0.0000

          k = 0.3333 0.5774 0.0000 (  2934 PWs)   bands (ev):

   -77.7881 -77.7881 -41.1443 -41.0991 -41.0991 -41.0564 -41.0564 -41.0517
    13.9905  14.3466  14.3466  14.6314  15.4016  15.4016  16.3284  17.2943
    17.2943  17.4009  22.5521  23.3347  23.3347

     occupation numbers 
     1.0000   1.0000   1.0000   1.0000   1.0000   1.0000   1.0000   1.0000
     1.0000   1.0000   1.0000   1.0000   1.0000   1.0000   1.0000   1.0000
     1.0000   1.0000   0.0000   0.0000   0.0000

          k = 0.3333 0.5774 0.1033 (  2916 PWs)   bands (ev):

   -77.7881 -77.7881 -41.1381 -41.1269 -41.1269 -41.0579 -41.0285 -41.0285
    14.0831  14.3697  14.3697  14.6508  15.3776  15.3776  16.3005  17.1717
    17.3324  17.3324  22.9473  23.4129  23.4129

     occupation numbers 
     1.0000   1.0000   1.0000   1.0000   1.0000   1.0000   1.0000   1.0000
     1.0000   1.0000   1.0000   1.0000   1.0000   1.0000   1.0000   1.0000
     1.0000   1.0000   0.0000   0.0000   0.0000

          k = 0.3333 0.5774 0.2066 (  2907 PWs)   bands (ev):

   -77.7881 -77.7881 -41.1572 -41.1572 -41.1212 -41.0750 -40.9979 -40.9979
    14.3200  14.4142  14.4142  14.6663  15.3361  15.3361  16.2623  16.7037
    17.4044  17.4044  23.6081  23.6081  23.9597

     occupation numbers 
     1.0000   1.0000   1.0000   1.0000   1.0000   1.0000   1.0000   1.0000
     1.0000   1.0000   1.0000   1.0000   1.0000   1.0000   1.0000   1.0000
     1.0000   1.0000   0.0000   0.0000   0.0000

          k = 0.3333 0.5774-0.3099 (  2922 PWs)   bands (ev):

   -77.7881 -77.7881 -41.1687 -41.1687 -41.0981 -41.0981 -40.9864 -40.9864
    14.4353  14.4353  14.5659  14.5659  15.3187  15.3187  16.3537  16.3537
    17.4386  17.4386  23.7354  23.7354  25.3550

     occupation numbers 
     1.0000   1.0000   1.0000   1.0000   1.0000   1.0000   1.0000   1.0000
     1.0000   1.0000   1.0000   1.0000   1.0000   1.0000   1.0000   1.0000
     1.0000   1.0000   0.0000   0.0000   0.0000

 ------ SPIN DOWN ----------


          k = 0.0000 0.0000 0.0000 (  2875 PWs)   bands (ev):

   -75.7052 -75.6485 -39.1658 -38.8819 -38.8819 -38.8330 -38.8330 -38.8286
     9.3854  14.1495  17.3666  17.3851  17.3851  17.7484  17.7484  18.0164
    18.1544  18.1544  19.3654  19.3654  25.5099

     occupation numbers 
     1.0000   1.0000   1.0000   1.0000   1.0000   1.0000   1.0000   1.0000
     1.0000   1.0000   1.0000   1.0000   1.0000   1.0000   1.0000   1.0000
     1.0000   1.0000   0.0000   0.0000   0.0000

          k = 0.0000 0.0000 0.1033 (  2893 PWs)   bands (ev):

   -75.7015 -75.6523 -39.1435 -38.8786 -38.8786 -38.8516 -38.8363 -38.8363
     9.6613  13.9109  17.2749  17.3170  17.3170  17.4349  17.6644  17.6644
    18.3327  18.3327  19.3506  19.3506  26.8262

     occupation numbers 
     1.0000   1.0000   1.0000   1.0000   1.0000   1.0000   1.0000   1.0000
     1.0000   1.0000   1.0000   1.0000   1.0000   1.0000   1.0000   1.0000
     0.0000   0.0000   0.0000   0.0000   0.0000

          k = 0.0000 0.0000 0.2066 (  2900 PWs)   bands (ev):

   -75.6911 -75.6627 -39.0825 -38.9139 -38.8697 -38.8697 -38.8452 -38.8452
    10.4596  13.0123  16.8155  17.0419  17.2590  17.2590  17.4804  17.4804
    18.6894  18.6894  19.2585  19.2585  29.7967

     occupation numbers 
     1.0000   1.0000   1.0000   1.0000   1.0000   1.0000   1.0000   1.0000
     1.0000   1.0000   1.0000   1.0000   1.0000   1.0000   1.0000   1.0000
     0.0000   0.0000   0.0000   0.0000   0.0000

          k = 0.0000 0.0000-0.3099 (  2882 PWs)   bands (ev):

   -75.6769 -75.6769 -38.9985 -38.9985 -38.8575 -38.8575 -38.8575 -38.8575
    11.6721  11.6721  16.7998  16.7998  17.3179  17.3179  17.3179  17.3179
    19.0313  19.0313  19.0313  19.0313  33.4418

     occupation numbers 
     1.0000   1.0000   1.0000   1.0000   1.0000   1.0000   1.0000   1.0000
     1.0000   1.0000   1.0000   1.0000   1.0000   1.0000   1.0000   1.0000
     0.0000   0.0000   0.0000   0.0000   0.0000

          k = 0.0000 0.0962 0.0000 (  2875 PWs)   bands (ev):

   -75.7021 -75.6471 -39.1585 -38.8977 -38.8871 -38.8494 -38.8356 -38.8317
     9.6245  14.3120  17.1068  17.4087  17.5074  17.5874  17.6868  17.8564
    18.0728  18.0881  19.4008  20.1888  25.5271

     occupation numbers 
     1.0000   1.0000   1.0000   1.0000   1.0000   1.0000   1.0000   1.0000
     1.0000   1.0000   1.0000   1.0000   1.0000   1.0000   1.0000   1.0000
     1.0000   1.0000   0.0000   0.0000   0.0000

          k = 0.0000 0.0962 0.1033 (  2893 PWs)   bands (ev):

   -75.6984 -75.6508 -39.1375 -38.8939 -38.8837 -38.8657 -38.8408 -38.8390
     9.8967  14.0867  16.9848  17.1040  17.3903  17.4223  17.7009  17.7646
    18.2807  18.2987  19.3772  19.8468  26.9092

     occupation numbers 
     1.0000   1.0000   1.0000   1.0000   1.0000   1.0000   1.0000   1.0000
     1.0000   1.0000   1.0000   1.0000   1.0000   1.0000   1.0000   1.0000
     0.0004   0.0000   0.0000   0.0000   0.0000

          k = 0.0000 0.0962 0.2066 (  2881 PWs)   bands (ev):

   -75.6884 -75.6609 -39.0801 -38.9220 -38.8832 -38.8742 -38.8538 -38.8485
    10.6846  13.2048  16.5961  17.0282  17.1561  17.3560  17.5094  17.5793
    18.6589  18.6947  19.2652  19.4465  29.9329

     occupation numbers 
     1.0000   1.0000   1.0000   1.0000   1.0000   1.0000   1.0000   1.0000
     1.0000   1.0000   1.0000   1.0000   1.0000   1.0000   1.0000   1.0000
     0.0000   0.0000   0.0000   0.0000   0.0000

          k = 0.0000 0.0962-0.3099 (  2888 PWs)   bands (ev):

   -75.6747 -75.6747 -39.0011 -39.0011 -38.8687 -38.8687 -38.8614 -38.8614
    11.8809  11.8809  16.7030  16.7030  17.2875  17.2875  17.4155  17.4155
    19.0177  19.0177  19.0934  19.0934  33.6007

     occupation numbers 
     1.0000   1.0000   1.0000   1.0000   1.0000   1.0000   1.0000   1.0000
     1.0000   1.0000   1.0000   1.0000   1.0000   1.0000   1.0000   1.0000
     0.0000   0.0000   0.0000   0.0000   0.0000

          k = 0.0000 0.1925 0.0000 (  2890 PWs)   bands (ev):

   -75.6934 -75.6434 -39.1377 -38.9410 -38.9010 -38.8938 -38.8429 -38.8409
    10.3209  14.7306  16.5929  16.7564  17.4656  17.8546  17.8729  17.9117
    17.9287  18.1600  19.4758  21.6235  25.5962

     occupation numbers 
     1.0000   1.0000   1.0000   1.0000   1.0000   1.0000   1.0000   1.0000
     1.0000   1.0000   1.0000   1.0000   1.0000   1.0000   1.0000   1.0000
     1.0000   1.0000   0.0000   0.0000   0.0000

          k = 0.0000 0.1925 0.1033 (  2892 PWs)   bands (ev):

   -75.6901 -75.6468 -39.1211 -38.9353 -38.9083 -38.8971 -38.8492 -38.8468
    10.5806  14.5493  16.3396  16.7943  17.3573  17.6423  17.6576  18.0213
    18.2477  18.3088  19.4323  20.8398  27.1881

     occupation numbers 
     1.0000   1.0000   1.0000   1.0000   1.0000   1.0000   1.0000   1.0000
     1.0000   1.0000   1.0000   1.0000   1.0000   1.0000   1.0000   1.0000
     0.5373   0.0000   0.0000   0.0000   0.0000

          k = 0.0000 0.1925 0.2066 (  2895 PWs)   bands (ev):

   -75.6809 -75.6560 -39.0757 -38.9529 -38.9169 -38.8865 -38.8693 -38.8574
    11.3309  13.7236  16.2172  16.8766  17.0020  17.4567  17.5958  17.8539
    18.6221  18.7528  19.2783  19.9052  30.3431

     occupation numbers 
     1.0000   1.0000   1.0000   1.0000   1.0000   1.0000   1.0000   1.0000
     1.0000   1.0000   1.0000   1.0000   1.0000   1.0000   1.0000   1.0000
     0.0000   0.0000   0.0000   0.0000   0.0000

          k = 0.0000 0.1925-0.3099 (  2900 PWs)   bands (ev):

   -75.6685 -75.6685 -39.0137 -39.0137 -38.8939 -38.8939 -38.8720 -38.8720
    12.4664  12.4664  16.5017  16.5017  17.1798  17.1798  17.6771  17.6771
    18.9957  18.9957  19.2682  19.2682  34.0341

     occupation numbers 
     1.0000   1.0000   1.0000   1.0000   1.0000   1.0000   1.0000   1.0000
     1.0000   1.0000   1.0000   1.0000   1.0000   1.0000   1.0000   1.0000
     0.0000   0.0000   0.0000   0.0000   0.0000

          k = 0.0000 0.2887 0.0000 (  2910 PWs)   bands (ev):

   -75.6810 -75.6389 -39.1065 -39.0007 -38.9534 -38.9193 -38.8563 -38.8534
    11.4026  15.1470  15.9397  16.4413  17.3126  17.6342  17.7151  18.3421
    18.3644  18.5984  19.5458  23.2857  25.7419

     occupation numbers 
     1.0000   1.0000   1.0000   1.0000   1.0000   1.0000   1.0000   1.0000
     1.0000   1.0000   1.0000   1.0000   1.0000   1.0000   1.0000   0.0000
     0.0000   0.0000   0.0000   0.0000   0.0000

          k = 0.0000 0.2887 0.1033 (  2895 PWs)   bands (ev):

   -75.6782 -75.6417 -39.1004 -38.9892 -38.9659 -38.9149 -38.8616 -38.8579
    11.6338  15.0375  15.8130  16.5014  17.1766  17.6514  17.6687  18.4093
    18.5030  18.5589  19.4833  21.9352  27.7120

     occupation numbers 
     1.0000   1.0000   1.0000   1.0000   1.0000   1.0000   1.0000   1.0000
     1.0000   1.0000   1.0000   1.0000   1.0000   1.0000   1.0000   0.0000
     0.0000   0.0000   0.0000   0.0000   0.0000

          k = 0.0000 0.2887 0.2066 (  2898 PWs)   bands (ev):

   -75.6705 -75.6494 -39.0801 -39.0059 -38.9512 -38.9029 -38.8804 -38.8699
    12.2950  14.3358  15.9302  16.5878  16.9529  17.4398  17.7875  18.2479
    18.7385  18.8953  19.3014  20.4677  30.9072

     occupation numbers 
     1.0000   1.0000   1.0000   1.0000   1.0000   1.0000   1.0000   1.0000
     1.0000   1.0000   1.0000   1.0000   1.0000   1.0000   1.0000   0.5299
     0.0000   0.0000   0.0000   0.0000   0.0000

          k = 0.0000 0.2887-0.3099 (  2924 PWs)   bands (ev):

   -75.6600 -75.6600 -39.0462 -39.0462 -38.9128 -38.9128 -38.8864 -38.8864
    13.2743  13.2743  16.3032  16.3032  17.1224  17.1224  17.9955  17.9955
    19.0310  19.0310  19.5104  19.5104  32.8711

     occupation numbers 
     1.0000   1.0000   1.0000   1.0000   1.0000   1.0000   1.0000   1.0000
     1.0000   1.0000   1.0000   1.0000   1.0000   1.0000   1.0000   1.0000
     0.0000   0.0000   0.0000   0.0000   0.0000

          k = 0.0000 0.3849 0.0000 (  2896 PWs)   bands (ev):

   -75.6677 -75.6352 -39.0700 -39.0610 -39.0117 -38.9373 -38.8770 -38.8644
    12.7059  15.1929  15.4798  16.3087  17.4033  17.4204  17.5048  18.9179
    18.9755  19.0771  19.5934  25.1046  25.6434

     occupation numbers 
[...]
    19.5048  19.5823  20.6572  23.1073  27.9961

     occupation numbers 
     1.0000   1.0000   1.0000   1.0000   1.0000   1.0000   1.0000   1.0000
     1.0000   1.0000   1.0000   1.0000   1.0000   1.0000   1.0000   0.0000
     0.0000   0.0000   0.0000   0.0000   0.0000

          k = 0.0833 0.5292 0.1033 (  2909 PWs)   bands (ev):

   -75.6510 -75.6349 -39.1267 -39.0778 -38.9981 -38.9545 -38.9082 -38.8872
    14.3168  14.9514  15.4831  15.9907  17.2077  17.7004  17.7536  19.3067
    19.4620  19.5457  20.5249  22.7852  26.9172

     occupation numbers 
     1.0000   1.0000   1.0000   1.0000   1.0000   1.0000   1.0000   1.0000
     1.0000   1.0000   1.0000   1.0000   1.0000   1.0000   1.0000   0.0000
     0.0000   0.0000   0.0000   0.0000   0.0000

          k = 0.0833 0.5292 0.2066 (  2910 PWs)   bands (ev):

   -75.6476 -75.6383 -39.1406 -39.1100 -38.9646 -38.9314 -38.9163 -38.8893
    14.3085  14.7867  15.7803  16.0927  17.2561  17.9981  18.1926  18.8508
    19.4118  19.6369  20.3143  21.8770  26.3536

     occupation numbers 
     1.0000   1.0000   1.0000   1.0000   1.0000   1.0000   1.0000   1.0000
     1.0000   1.0000   1.0000   1.0000   1.0000   1.0000   1.0000   0.0000
     0.0000   0.0000   0.0000   0.0000   0.0000

          k = 0.0833 0.5292-0.3099 (  2906 PWs)   bands (ev):

   -75.6430 -75.6430 -39.1350 -39.1350 -38.9385 -38.9385 -38.9026 -38.9026
    14.4883  14.4883  16.0486  16.0486  17.7413  17.7413  18.4974  18.4974
    19.4920  19.4920  20.8425  20.8425  26.6050

     occupation numbers 
     1.0000   1.0000   1.0000   1.0000   1.0000   1.0000   1.0000   1.0000
     1.0000   1.0000   1.0000   1.0000   1.0000   1.0000   0.0000   0.0000
     0.0000   0.0000   0.0000   0.0000   0.0000

          k = 0.1667 0.2887 0.0000 (  2902 PWs)   bands (ev):

   -75.6746 -75.6369 -39.0892 -39.0066 -38.9975 -38.9210 -38.8758 -38.8657
    12.0194  15.4303  15.7694  16.1192  17.2641  17.3441  17.8246  18.2216
    18.7388  19.0901  19.4994  24.1677  25.9632

     occupation numbers 
     1.0000   1.0000   1.0000   1.0000   1.0000   1.0000   1.0000   1.0000
     1.0000   1.0000   1.0000   1.0000   1.0000   1.0000   1.0000   0.9975
     0.0000   0.0000   0.0000   0.0000   0.0000

          k = 0.1667 0.2887 0.1033 (  2911 PWs)   bands (ev):

   -75.6720 -75.6394 -39.0901 -39.0041 -38.9890 -38.9272 -38.8800 -38.8655
    12.2327  15.3599  15.6695  16.1840  17.1820  17.3718  17.7136  18.2988
    18.8657  18.9738  19.5043  22.5298  28.1488

     occupation numbers 
     1.0000   1.0000   1.0000   1.0000   1.0000   1.0000   1.0000   1.0000
     1.0000   1.0000   1.0000   1.0000   1.0000   1.0000   1.0000   0.0000
     0.0000   0.0000   0.0000   0.0000   0.0000

          k = 0.1667 0.2887 0.2066 (  2904 PWs)   bands (ev):

   -75.6651 -75.6463 -39.0823 -39.0277 -38.9527 -38.9293 -38.8900 -38.8743
    12.8380  14.6718  15.9143  16.3493  16.9347  17.2068  17.7668  18.3554
    18.9823  19.0894  19.4536  20.8344  31.3725

     occupation numbers 
     1.0000   1.0000   1.0000   1.0000   1.0000   1.0000   1.0000   1.0000
     1.0000   1.0000   1.0000   1.0000   1.0000   1.0000   1.0000   0.0000
     0.0000   0.0000   0.0000   0.0000   0.0000

          k = 0.1667 0.2887-0.3099 (  2910 PWs)   bands (ev):

   -75.6557 -75.6557 -39.0592 -39.0592 -38.9271 -38.9271 -38.8919 -38.8919
    13.7221  13.7221  16.2863  16.2863  16.8960  16.8960  18.0656  18.0656
    19.2788  19.2788  19.6816  19.6816  33.0621

     occupation numbers 
     1.0000   1.0000   1.0000   1.0000   1.0000   1.0000   1.0000   1.0000
     1.0000   1.0000   1.0000   1.0000   1.0000   1.0000   1.0000   1.0000
     0.0000   0.0000   0.0000   0.0000   0.0000

          k = 0.1667 0.3849 0.0000 (  2915 PWs)   bands (ev):

   -75.6625 -75.6342 -39.0545 -39.0530 -39.0305 -38.9490 -38.8962 -38.8867
    13.2617  15.4745  15.5089  15.9230  17.0695  17.4778  17.5992  18.5524
    19.2322  19.4966  19.7888  25.9122  26.1888

     occupation numbers 
     1.0000   1.0000   1.0000   1.0000   1.0000   1.0000   1.0000   1.0000
     1.0000   1.0000   1.0000   1.0000   1.0000   1.0000   1.0000   0.0000
     0.0000   0.0000   0.0000   0.0000   0.0000

          k = 0.1667 0.3849 0.1033 (  2910 PWs)   bands (ev):

   -75.6606 -75.6361 -39.0851 -39.0477 -39.0010 -38.9541 -38.9018 -38.8802
    13.4133  15.3358  15.6118  16.0250  17.0488  17.4400  17.5546  18.5861
    19.2296  19.3330  19.8999  23.6070  28.2147

     occupation numbers 
     1.0000   1.0000   1.0000   1.0000   1.0000   1.0000   1.0000   1.0000
     1.0000   1.0000   1.0000   1.0000   1.0000   1.0000   1.0000   0.0000
     0.0000   0.0000   0.0000   0.0000   0.0000

          k = 0.1667 0.3849 0.2066 (  2900 PWs)   bands (ev):

   -75.6554 -75.6413 -39.0989 -39.0684 -38.9646 -38.9487 -38.9096 -38.8798
    13.8285  14.9498  15.8930  16.2381  16.9180  17.1582  17.7394  18.5368
    19.0895  19.5148  19.9803  21.6369  29.1472

     occupation numbers 
     1.0000   1.0000   1.0000   1.0000   1.0000   1.0000   1.0000   1.0000
     1.0000   1.0000   1.0000   1.0000   1.0000   1.0000   1.0000   0.0000
     0.0000   0.0000   0.0000   0.0000   0.0000

          k = 0.1667 0.3849-0.3099 (  2898 PWs)   bands (ev):

   -75.6484 -75.6484 -39.0910 -39.0910 -38.9481 -38.9481 -38.8959 -38.8959
    14.3949  14.3949  16.2301  16.2301  16.8883  16.8883  18.0955  18.0955
    19.5171  19.5171  20.3295  20.3295  30.2541

     occupation numbers 
     1.0000   1.0000   1.0000   1.0000   1.0000   1.0000   1.0000   1.0000
     1.0000   1.0000   1.0000   1.0000   1.0000   1.0000   1.0000   1.0000
     0.0000   0.0000   0.0000   0.0000   0.0000

          k = 0.1667 0.4811 0.0000 (  2920 PWs)   bands (ev):

   -75.6523 -75.6336 -39.0900 -39.0466 -39.0209 -38.9755 -38.9102 -38.9100
    14.3687  15.2971  15.3022  15.9568  17.0117  17.3467  17.7086  18.9902
    19.4876  19.4931  20.6708  24.5566  27.7919

     occupation numbers 
     1.0000   1.0000   1.0000   1.0000   1.0000   1.0000   1.0000   1.0000
     1.0000   1.0000   1.0000   1.0000   1.0000   1.0000   1.0000   0.0000
     0.0000   0.0000   0.0000   0.0000   0.0000

          k = 0.1667 0.4811 0.1033 (  2911 PWs)   bands (ev):

   -75.6511 -75.6349 -39.1035 -39.0653 -39.0011 -38.9671 -38.9207 -38.8954
    14.3956  15.2480  15.4600  16.0025  17.0254  17.3248  17.7631  18.9790
    19.2590  19.5622  20.7228  23.9727  26.7467

     occupation numbers 
     1.0000   1.0000   1.0000   1.0000   1.0000   1.0000   1.0000   1.0000
     1.0000   1.0000   1.0000   1.0000   1.0000   1.0000   1.0000   0.0000
     0.0000   0.0000   0.0000   0.0000   0.0000

          k = 0.1667 0.4811 0.2066 (  2911 PWs)   bands (ev):

   -75.6476 -75.6383 -39.1186 -39.0935 -38.9848 -38.9489 -38.9206 -38.8864
    14.5147  15.0441  15.7882  16.2810  16.8630  17.2924  17.9629  18.6603
    19.1905  19.6586  20.8730  22.5600  26.8537

     occupation numbers 
     1.0000   1.0000   1.0000   1.0000   1.0000   1.0000   1.0000   1.0000
     1.0000   1.0000   1.0000   1.0000   1.0000   1.0000   1.0000   0.0000
     0.0000   0.0000   0.0000   0.0000   0.0000

          k = 0.1667 0.4811-0.3099 (  2902 PWs)   bands (ev):

   -75.6430 -75.6430 -39.1153 -39.1153 -38.9652 -38.9652 -38.8959 -38.8959
    14.7493  14.7493  16.1958  16.1958  17.0298  17.0298  18.2332  18.2332
    19.5100  19.5100  21.3964  21.3964  27.6579

     occupation numbers 
     1.0000   1.0000   1.0000   1.0000   1.0000   1.0000   1.0000   1.0000
     1.0000   1.0000   1.0000   1.0000   1.0000   1.0000   0.9455   0.9455
     0.0000   0.0000   0.0000   0.0000   0.0000

          k = 0.1667 0.5774 0.0000 (  2920 PWs)   bands (ev):

   -75.6478 -75.6342 -39.1034 -39.0513 -39.0039 -38.9866 -38.9235 -38.9149
    14.8438  15.1628  15.2463  16.0060  17.0499  17.1946  17.8120  19.2972
    19.4704  19.4914  21.5574  23.0030  28.7381

     occupation numbers 
     1.0000   1.0000   1.0000   1.0000   1.0000   1.0000   1.0000   1.0000
     1.0000   1.0000   1.0000   1.0000   1.0000   1.0000   1.0000   0.0000
     0.0000   0.0000   0.0000   0.0000   0.0000

          k = 0.1667 0.5774 0.1033 (  2914 PWs)   bands (ev):

   -75.6469 -75.6351 -39.1142 -39.0688 -39.0057 -38.9602 -38.9320 -38.9025
    14.7110  15.2064  15.5989  15.8457  16.9833  17.3581  17.8753  19.2297
    19.2951  19.5338  21.5896  22.9112  27.8888

     occupation numbers 
     1.0000   1.0000   1.0000   1.0000   1.0000   1.0000   1.0000   1.0000
     1.0000   1.0000   1.0000   1.0000   1.0000   1.0000   1.0000   0.0000
     0.0000   0.0000   0.0000   0.0000   0.0000

          k = 0.1667 0.5774 0.2066 (  2905 PWs)   bands (ev):

   -75.6444 -75.6376 -39.1277 -39.1013 -38.9931 -38.9493 -38.9218 -38.8900
    14.6785  15.1014  15.8523  16.1963  16.7760  17.4619  18.1063  18.7314
    19.3195  19.5790  21.7214  22.6029  26.7901

     occupation numbers 
     1.0000   1.0000   1.0000   1.0000   1.0000   1.0000   1.0000   1.0000
     1.0000   1.0000   1.0000   1.0000   1.0000   1.0000   1.0000   0.0000
     0.0000   0.0000   0.0000   0.0000   0.0000

          k = 0.1667 0.5774-0.3099 (  2910 PWs)   bands (ev):

   -75.6410 -75.6410 -39.1243 -39.1243 -38.9717 -38.9717 -38.8955 -38.8955
    14.8344  14.8344  16.1888  16.1888  17.0804  17.0804  18.3924  18.3924
    19.4468  19.4468  22.1105  22.1105  26.4089

     occupation numbers 
     1.0000   1.0000   1.0000   1.0000   1.0000   1.0000   1.0000   1.0000
     1.0000   1.0000   1.0000   1.0000   1.0000   1.0000   0.0000   0.0000
     0.0000   0.0000   0.0000   0.0000   0.0000

          k = 0.2500 0.4330 0.0000 (  2906 PWs)   bands (ev):

   -75.6524 -75.6336 -39.0700 -39.0480 -39.0211 -38.9760 -38.9283 -38.9100
    14.3693  15.3743  15.6305  15.6477  16.9227  17.3714  17.7116  18.7570
    19.4477  19.4920  20.7072  26.1116  26.9000

     occupation numbers 
     1.0000   1.0000   1.0000   1.0000   1.0000   1.0000   1.0000   1.0000
     1.0000   1.0000   1.0000   1.0000   1.0000   1.0000   1.0000   0.0000
     0.0000   0.0000   0.0000   0.0000   0.0000

          k = 0.2500 0.4330 0.1033 (  2910 PWs)   bands (ev):

   -75.6511 -75.6348 -39.0783 -39.0735 -38.9879 -38.9855 -38.9308 -38.8973
    14.4544  15.2908  15.6985  15.8328  16.9647  17.1979  17.7110  18.7916
    19.2041  19.5709  20.8114  24.7114  27.1871

     occupation numbers 
     1.0000   1.0000   1.0000   1.0000   1.0000   1.0000   1.0000   1.0000
     1.0000   1.0000   1.0000   1.0000   1.0000   1.0000   1.0000   0.0000
     0.0000   0.0000   0.0000   0.0000   0.0000

          k = 0.2500 0.4330 0.2066 (  2917 PWs)   bands (ev):

   -75.6477 -75.6383 -39.1014 -39.0880 -38.9925 -38.9660 -38.9194 -38.8858
    14.6717  15.1473  15.9169  16.1863  16.8206  16.9385  17.7852  18.5663
    19.1517  19.6668  21.0452  22.8724  27.9651

     occupation numbers 
     1.0000   1.0000   1.0000   1.0000   1.0000   1.0000   1.0000   1.0000
     1.0000   1.0000   1.0000   1.0000   1.0000   1.0000   1.0000   0.0000
     0.0000   0.0000   0.0000   0.0000   0.0000

          k = 0.2500 0.4330-0.3099 (  2904 PWs)   bands (ev):

   -75.6430 -75.6430 -39.1029 -39.1029 -38.9796 -38.9796 -38.8939 -38.8939
    14.9322  14.9322  16.2500  16.2500  16.7128  16.7128  18.0745  18.0745
    19.5332  19.5332  21.6058  21.6058  28.9727

     occupation numbers 
     1.0000   1.0000   1.0000   1.0000   1.0000   1.0000   1.0000   1.0000
     1.0000   1.0000   1.0000   1.0000   1.0000   1.0000   1.0000   1.0000
     0.0000   0.0000   0.0000   0.0000   0.0000

          k = 0.2500 0.5292 0.0000 (  2918 PWs)   bands (ev):

   -75.6447 -75.6350 -39.0830 -39.0388 -39.0058 -38.9912 -38.9488 -38.9341
    15.0959  15.3414  15.4709  15.7210  16.9242  17.1363  17.9074  19.0545
    19.4188  19.4373  21.9573  24.1556  26.2221

     occupation numbers 
     1.0000   1.0000   1.0000   1.0000   1.0000   1.0000   1.0000   1.0000
     1.0000   1.0000   1.0000   1.0000   1.0000   1.0000   1.0000   0.0000
     0.0000   0.0000   0.0000   0.0000   0.0000

          k = 0.2500 0.5292 0.1033 (  2918 PWs)   bands (ev):

   -75.6440 -75.6357 -39.0883 -39.0605 -39.0224 -38.9668 -38.9491 -38.9142
    15.0723  15.4423  15.5555  15.7930  16.9011  17.0373  17.9133  19.0710
    19.1705  19.4903  22.1187  24.1398  26.2991

     occupation numbers 
     1.0000   1.0000   1.0000   1.0000   1.0000   1.0000   1.0000   1.0000
     1.0000   1.0000   1.0000   1.0000   1.0000   1.0000   1.0000   0.0000
     0.0000   0.0000   0.0000   0.0000   0.0000

          k = 0.2500 0.5292 0.2066 (  2919 PWs)   bands (ev):

   -75.6423 -75.6374 -39.1030 -39.0884 -39.0220 -38.9801 -38.9145 -38.8931
    15.1188  15.4045  15.8294  16.1378  16.6570  16.8929  17.9749  18.6047
    19.2357  19.5370  22.4988  23.8008  26.3770

     occupation numbers 
     1.0000   1.0000   1.0000   1.0000   1.0000   1.0000   1.0000   1.0000
     1.0000   1.0000   1.0000   1.0000   1.0000   1.0000   1.0000   0.0000
     0.0000   0.0000   0.0000   0.0000   0.0000

          k = 0.2500 0.5292-0.3099 (  2910 PWs)   bands (ev):

   -75.6398 -75.6398 -39.1056 -39.1056 -39.0027 -39.0027 -38.8922 -38.8922
    15.2526  15.2526  16.2215  16.2215  16.6103  16.6103  18.1766  18.1766
    19.4347  19.4347  23.0855  23.0855  26.9145

     occupation numbers 
     1.0000   1.0000   1.0000   1.0000   1.0000   1.0000   1.0000   1.0000
     1.0000   1.0000   1.0000   1.0000   1.0000   1.0000   1.0000   1.0000
     0.0000   0.0000   0.0000   0.0000   0.0000

          k = 0.3333 0.5774 0.0000 (  2934 PWs)   bands (ev):

   -75.6387 -75.6387 -39.0741 -39.0248 -39.0248 -38.9726 -38.9616 -38.9616
    15.3731  15.4508  15.4508  15.6561  16.9671  16.9671  18.0128  19.2181
    19.2181  19.3892  23.3848  24.1424  24.1424

     occupation numbers 
     1.0000   1.0000   1.0000   1.0000   1.0000   1.0000   1.0000   1.0000
     1.0000   1.0000   1.0000   1.0000   1.0000   1.0000   1.0000   0.0000
     0.0000   0.0000   0.0000   0.0000   0.0000

          k = 0.3333 0.5774 0.1033 (  2916 PWs)   bands (ev):

   -75.6387 -75.6387 -39.0673 -39.0510 -39.0510 -38.9795 -38.9352 -38.9352
    15.4449  15.5269  15.5269  15.6892  16.8818  16.8818  17.9909  19.1170
    19.2632  19.2632  23.7966  24.1952  24.1952

     occupation numbers 
     1.0000   1.0000   1.0000   1.0000   1.0000   1.0000   1.0000   1.0000
     1.0000   1.0000   1.0000   1.0000   1.0000   1.0000   1.0000   0.0000
     0.0000   0.0000   0.0000   0.0000   0.0000

          k = 0.3333 0.5774 0.2066 (  2907 PWs)   bands (ev):

   -75.6387 -75.6387 -39.0828 -39.0828 -39.0488 -38.9981 -38.9032 -38.9032
    15.6123  15.7089  15.7089  15.7513  16.6894  16.6894  17.9855  18.5782
    19.3450  19.3450  24.3263  24.3263  24.7955

     occupation numbers 
     1.0000   1.0000   1.0000   1.0000   1.0000   1.0000   1.0000   1.0000
     1.0000   1.0000   1.0000   1.0000   1.0000   1.0000   1.0000   0.0000
     0.0000   0.0000   0.0000   0.0000   0.0000

          k = 0.3333 0.5774-0.3099 (  2922 PWs)   bands (ev):

   -75.6387 -75.6387 -39.0950 -39.0950 -39.0235 -39.0235 -38.8908 -38.8908
    15.7454  15.7454  15.8286  15.8286  16.5681  16.5681  18.1503  18.1503
    19.3821  19.3821  24.4100  24.4100  26.1129

     occupation numbers 
     1.0000   1.0000   1.0000   1.0000   1.0000   1.0000   1.0000   1.0000
     1.0000   1.0000   1.0000   1.0000   1.0000   1.0000   1.0000   1.0000
     0.0000   0.0000   0.0000   0.0000   0.0000

     the Fermi energy is    18.2486 ev

!    total energy              =    -753.45474835 Ry
     total all-electron energy =     -5573.811440 Ry
     estimated scf accuracy    <       0.00000025 Ry
     smearing contrib. (-TS)   =      -0.00002219 Ry
     internal energy E=F+TS    =    -753.45472615 Ry

     The total energy is F=E-TS. E is the sum of the following terms:
     one-electron contribution =    -286.82249973 Ry
     hartree contribution      =     166.53826643 Ry
     xc contribution           =     -61.37791595 Ry
     ewald contribution        =    -396.61824136 Ry
     one-center paw contrib.   =    -175.17433554 Ry
      -> PAW hartree energy AE =     221.88597472 Ry
      -> PAW hartree energy PS =    -220.83092731 Ry
      -> PAW xc energy AE      =    -117.66576900 Ry
      -> PAW xc energy PS      =      29.02355382 Ry
      -> total E_H with PAW    =     167.59331384 Ry
      -> total E_XC with PAW   =    -150.02013113 Ry

     total magnetization       =     3.36 Bohr mag/cell
     absolute magnetization    =     3.69 Bohr mag/cell

     convergence has been achieved in   5 iterations

     Writing all to output data dir ./out/Co.save/
 
     init_run     :      0.39s CPU      0.53s WALL (       1 calls)
     electrons    :      9.53s CPU     10.05s WALL (       1 calls)

     Called by init_run:
     wfcinit      :      0.26s CPU      0.37s WALL (       1 calls)
     potinit      :      0.09s CPU      0.11s WALL (       1 calls)
     hinit0       :      0.03s CPU      0.03s WALL (       1 calls)

     Called by electrons:
     c_bands      :      8.17s CPU      8.56s WALL (       5 calls)
     sum_band     :      0.90s CPU      0.95s WALL (       5 calls)
     v_of_rho     :      0.02s CPU      0.02s WALL (       6 calls)
     v_h          :      0.00s CPU      0.00s WALL (       6 calls)
     v_xc         :      0.02s CPU      0.02s WALL (       6 calls)
     newd         :      0.02s CPU      0.03s WALL (       6 calls)
     PAW_pot      :      0.49s CPU      0.58s WALL (       6 calls)
     mix_rho      :      0.00s CPU      0.00s WALL (       5 calls)

     Called by c_bands:
     init_us_2    :      0.06s CPU      0.06s WALL (    1520 calls)
     init_us_2:cp :      0.06s CPU      0.06s WALL (    1520 calls)
     cegterg      :      7.79s CPU      8.12s WALL (     760 calls)

     Called by sum_band:
     sum_band:wei :      0.01s CPU      0.01s WALL (       5 calls)
     sum_band:loo :      0.86s CPU      0.90s WALL (       5 calls)
     sum_band:buf :      0.00s CPU      0.01s WALL (     760 calls)
     sum_band:ini :      0.03s CPU      0.03s WALL (     760 calls)
     sum_band:cal :      0.08s CPU      0.07s WALL (     760 calls)
     sum_band:bec :      0.00s CPU      0.01s WALL (     760 calls)
     addusdens    :      0.03s CPU      0.04s WALL (       5 calls)
                                        0.00s GPU  (       5 calls)
     addusd:skk   :      0.00s CPU      0.00s WALL (       5 calls)
                                        0.00s GPU  (       5 calls)

     Called by *egterg:
     cdiaghg      :      1.95s CPU      1.99s WALL (    4027 calls)
     cegterg:over :      0.28s CPU      0.26s WALL (    3419 calls)
     cegterg:upda :      0.03s CPU      0.07s WALL (    3419 calls)
     cegterg:last :      0.09s CPU      0.11s WALL (    2269 calls)
     h_psi        :      5.13s CPU      5.38s WALL (    4179 calls)
     s_psi        :      0.09s CPU      0.08s WALL (    4179 calls)
     g_psi        :      0.01s CPU      0.02s WALL (    3419 calls)

     Called by h_psi:
     h_psi:calbec :      0.30s CPU      0.28s WALL (    4179 calls)
     vloc_psi     :      4.76s CPU      4.98s WALL (    4179 calls)
     add_vuspsi   :      0.05s CPU      0.09s WALL (    4179 calls)

     General routines
     calbec       :      0.38s CPU      0.35s WALL (    4939 calls)
     fft          :      0.01s CPU      0.01s WALL (     144 calls)
     ffts         :      0.00s CPU      0.00s WALL (      22 calls)
     fftw         :      5.14s CPU      5.31s WALL (  125876 calls)
     interpolate  :      0.00s CPU      0.00s WALL (      12 calls)
 
     Parallel routines

     PAW routines
     PAW_pot      :      0.49s CPU      0.58s WALL (       6 calls)
     PAW_symme    :      0.00s CPU      0.00s WALL (      10 calls)
 
     PWSCF        :     10.26s CPU     11.37s WALL

 
   This run was terminated on:   8:26:10  22Mar2024            

=------------------------------------------------------------------------------=
   JOB DONE.
=------------------------------------------------------------------------------=
