
     Program PWSCF v.7.2 starts on 22Mar2024 at  8:24:51 

     This program is part of the open-source Quantum ESPRESSO suite
     for quantum simulation of materials; please cite
         "P. Giannozzi et al., J. Phys.:Condens. Matter 21 395502 (2009);
         "P. Giannozzi et al., J. Phys.:Condens. Matter 29 465901 (2017);
         "P. Giannozzi et al., J. Chem. Phys. 152 154105 (2020);
          URL http://www.quantum-espresso.org", 
     in publications or presentations arising from this work. More details at
     http://www.quantum-espresso.org/quote

     Parallel version (MPI), running on    20 processors

     MPI processes distributed on     1 nodes
     352627 MiB available memory on the printing compute node when the environment starts
 
     Waiting for input...
     Reading input from standard input

     Current dimensions of program PWSCF are:
     Max number of different atomic species (ntypx) = 10
     Max number of k-points (npk) = 120000
     Max angular momentum in pseudopotentials (lmaxx) =  4
     file Co.pbe-spn-kjpaw_psl.0.3.1.UPF: wavefunction(s)  3P 3D renormalized
 
     R & G space division:  proc/nbgrp/npool/nimage =      20
     Subspace diagonalization in iterative solution of the eigenvalue problem:
     a serial algorithm will be used

 
     Parallelization info
     --------------------
     sticks:   dense  smooth     PW     G-vecs:    dense   smooth      PW
     Min          34      33      9                 1190     1149     185
     Max          36      34     10                 1204     1158     192
     Sum         685     673    199                23895    23091    3789
 
     Using Slab Decomposition
 


     bravais-lattice index     =            4
     lattice parameter (alat)  =       4.7338  a.u.
     unit-cell volume          =     148.7077 (a.u.)^3
     number of atoms/cell      =            2
     number of atomic types    =            1
     number of electrons       =        34.00
     number of Kohn-Sham states=           21
     kinetic-energy cutoff     =     110.0000  Ry
     charge density cutoff     =     450.0000  Ry
     scf convergence threshold =      1.0E-06
     mixing beta               =       0.7000
     number of iterations used =            8  plain     mixing
     Exchange-correlation= SLA  PW   PBX  PBC
                           (   1   4   3   4   0   0   0)

     celldm(1)=   4.733764  celldm(2)=   0.000000  celldm(3)=   1.618762
     celldm(4)=   0.000000  celldm(5)=   0.000000  celldm(6)=   0.000000

     crystal axes: (cart. coord. in units of alat)
               a(1) = (   1.000000   0.000000   0.000000 )  
               a(2) = (  -0.500000   0.866025   0.000000 )  
               a(3) = (   0.000000   0.000000   1.618762 )  

     reciprocal axes: (cart. coord. in units 2 pi/alat)
               b(1) = (  1.000000  0.577350  0.000000 )  
               b(2) = (  0.000000  1.154701  0.000000 )  
               b(3) = (  0.000000  0.000000  0.617756 )  


     PseudoPot. # 1 for Co read from file:
     /truba/home/amuhaymin/ZnS/pseudo/QE/Co.pbe-spn-kjpaw_psl.0.3.1.UPF
     MD5 check sum: b0a1ad65bf214e88c1f3d33b20c7d919
     Pseudo is Projector augmented-wave + core cor, Zval = 17.0
     Generated using &quot;atomic&quot; code by A. Dal Corso  v.6.2.2
     Shape of augmentation charge: PSQ
     Using radial grid of 1193 points,  6 beta functions with: 
                l(1) =   0
                l(2) =   0
                l(3) =   1
                l(4) =   1
                l(5) =   2
                l(6) =   2
     Q(r) pseudized with 0 coefficients 


     atomic species   valence    mass     pseudopotential
        Co            17.00    58.93300     Co( 1.00)

     Starting magnetic structure 
     atomic species   magnetization
        Co           0.294

     24 Sym. Ops., with inversion, found (12 have fractional translation)


                                    s                        frac. trans.

      isym =  1     identity                                     

 cryst.   s( 1) = (     1          0          0      )
                  (     0          1          0      )
                  (     0          0          1      )

 cart.    s( 1) = (  1.0000000  0.0000000  0.0000000 )
                  (  0.0000000  1.0000000  0.0000000 )
                  (  0.0000000  0.0000000  1.0000000 )


      isym =  2     180 deg rotation - cart. axis [0,0,1]        

 cryst.   s( 2) = (    -1          0          0      )    f =(  0.0000000 )
                  (     0         -1          0      )       (  0.0000000 )
                  (     0          0          1      )       ( -0.5000000 )

 cart.    s( 2) = ( -1.0000000  0.0000000  0.0000000 )    f =(  0.0000000 )
                  (  0.0000000 -1.0000000  0.0000000 )       (  0.0000000 )
                  (  0.0000000  0.0000000  1.0000000 )       ( -0.8093812 )


      isym =  3     180 deg rotation - cart. axis [0,1,0]        

 cryst.   s( 3) = (    -1          0          0      )    f =(  0.0000000 )
                  (     1          1          0      )       (  0.0000000 )
                  (     0          0         -1      )       ( -0.5000000 )

 cart.    s( 3) = ( -1.0000000  0.0000000  0.0000000 )    f =(  0.0000000 )
                  (  0.0000000  1.0000000  0.0000000 )       (  0.0000000 )
                  (  0.0000000  0.0000000 -1.0000000 )       ( -0.8093812 )


      isym =  4     180 deg rotation - cart. axis [1,0,0]        

 cryst.   s( 4) = (     1          0          0      )
                  (    -1         -1          0      )
                  (     0          0         -1      )

 cart.    s( 4) = (  1.0000000  0.0000000  0.0000000 )
                  (  0.0000000 -1.0000000  0.0000000 )
                  (  0.0000000  0.0000000 -1.0000000 )


      isym =  5      60 deg rotation - cryst. axis [0,0,1]       

 cryst.   s( 5) = (     1          1          0      )    f =(  0.0000000 )
                  (    -1          0          0      )       ( -0.0000000 )
                  (     0          0          1      )       ( -0.5000000 )

 cart.    s( 5) = (  0.5000000 -0.8660254  0.0000000 )    f =(  0.0000000 )
                  (  0.8660254  0.5000000  0.0000000 )       ( -0.0000000 )
                  (  0.0000000  0.0000000  1.0000000 )       ( -0.8093812 )


      isym =  6      60 deg rotation - cryst. axis [0,0,-1]      

 cryst.   s( 6) = (     0         -1          0      )    f =(  0.0000000 )
                  (     1          1          0      )       ( -0.0000000 )
                  (     0          0          1      )       ( -0.5000000 )

 cart.    s( 6) = (  0.5000000  0.8660254  0.0000000 )    f =(  0.0000000 )
                  ( -0.8660254  0.5000000  0.0000000 )       ( -0.0000000 )
                  (  0.0000000  0.0000000  1.0000000 )       ( -0.8093812 )


      isym =  7     120 deg rotation - cryst. axis [0,0,1]       

 cryst.   s( 7) = (     0          1          0      )
                  (    -1         -1          0      )
                  (     0          0          1      )

 cart.    s( 7) = ( -0.5000000 -0.8660254  0.0000000 )
                  (  0.8660254 -0.5000000  0.0000000 )
                  (  0.0000000  0.0000000  1.0000000 )


      isym =  8     120 deg rotation - cryst. axis [0,0,-1]      

 cryst.   s( 8) = (    -1         -1          0      )
                  (     1          0          0      )
                  (     0          0          1      )

 cart.    s( 8) = ( -0.5000000  0.8660254  0.0000000 )
                  ( -0.8660254 -0.5000000  0.0000000 )
                  (  0.0000000  0.0000000  1.0000000 )


      isym =  9     180 deg rotation - cryst. axis [1,-1,0]      

 cryst.   s( 9) = (     0         -1          0      )    f =(  0.0000000 )
                  (    -1          0          0      )       (  0.0000000 )
                  (     0          0         -1      )       ( -0.5000000 )

 cart.    s( 9) = (  0.5000000 -0.8660254  0.0000000 )    f =(  0.0000000 )
                  ( -0.8660254 -0.5000000  0.0000000 )       (  0.0000000 )
                  (  0.0000000  0.0000000 -1.0000000 )       ( -0.8093812 )


      isym = 10     180 deg rotation - cryst. axis [2,1,0]       

 cryst.   s(10) = (     1          1          0      )    f =(  0.0000000 )
                  (     0         -1          0      )       ( -0.0000000 )
                  (     0          0         -1      )       ( -0.5000000 )

 cart.    s(10) = (  0.5000000  0.8660254  0.0000000 )    f =(  0.0000000 )
                  (  0.8660254 -0.5000000  0.0000000 )       ( -0.0000000 )
                  (  0.0000000  0.0000000 -1.0000000 )       ( -0.8093812 )


      isym = 11     180 deg rotation - cryst. axis [0,1,0]       

 cryst.   s(11) = (    -1         -1          0      )
                  (     0          1          0      )
                  (     0          0         -1      )

 cart.    s(11) = ( -0.5000000 -0.8660254  0.0000000 )
                  ( -0.8660254  0.5000000  0.0000000 )
                  (  0.0000000  0.0000000 -1.0000000 )


      isym = 12     180 deg rotation - cryst. axis [1,1,0]       

 cryst.   s(12) = (     0          1          0      )
                  (     1          0          0      )
                  (     0          0         -1      )

 cart.    s(12) = ( -0.5000000  0.8660254  0.0000000 )
                  (  0.8660254  0.5000000  0.0000000 )
                  (  0.0000000  0.0000000 -1.0000000 )


      isym = 13     inversion                                    

 cryst.   s(13) = (    -1          0          0      )
                  (     0         -1          0      )
                  (     0          0         -1      )

 cart.    s(13) = ( -1.0000000  0.0000000  0.0000000 )
                  (  0.0000000 -1.0000000  0.0000000 )
                  (  0.0000000  0.0000000 -1.0000000 )


      isym = 14     inv. 180 deg rotation - cart. axis [0,0,1]   

 cryst.   s(14) = (     1          0          0      )    f =(  0.0000000 )
                  (     0          1          0      )       (  0.0000000 )
                  (     0          0         -1      )       ( -0.5000000 )

 cart.    s(14) = (  1.0000000  0.0000000  0.0000000 )    f =(  0.0000000 )
                  (  0.0000000  1.0000000  0.0000000 )       (  0.0000000 )
                  (  0.0000000  0.0000000 -1.0000000 )       ( -0.8093812 )


      isym = 15     inv. 180 deg rotation - cart. axis [0,1,0]   

 cryst.   s(15) = (     1          0          0      )    f =(  0.0000000 )
                  (    -1         -1          0      )       (  0.0000000 )
                  (     0          0          1      )       ( -0.5000000 )

 cart.    s(15) = (  1.0000000  0.0000000  0.0000000 )    f =(  0.0000000 )
                  (  0.0000000 -1.0000000  0.0000000 )       (  0.0000000 )
                  (  0.0000000  0.0000000  1.0000000 )       ( -0.8093812 )


      isym = 16     inv. 180 deg rotation - cart. axis [1,0,0]   

 cryst.   s(16) = (    -1          0          0      )
                  (     1          1          0      )
                  (     0          0          1      )

 cart.    s(16) = ( -1.0000000  0.0000000  0.0000000 )
                  (  0.0000000  1.0000000  0.0000000 )
                  (  0.0000000  0.0000000  1.0000000 )


      isym = 17     inv.  60 deg rotation - cryst. axis [0,0,1]  

 cryst.   s(17) = (    -1         -1          0      )    f =(  0.0000000 )
                  (     1          0          0      )       (  0.0000000 )
                  (     0          0         -1      )       ( -0.5000000 )

 cart.    s(17) = ( -0.5000000  0.8660254  0.0000000 )    f =(  0.0000000 )
                  ( -0.8660254 -0.5000000  0.0000000 )       (  0.0000000 )
                  (  0.0000000  0.0000000 -1.0000000 )       ( -0.8093812 )


      isym = 18     inv.  60 deg rotation - cryst. axis [0,0,-1] 

 cryst.   s(18) = (     0          1          0      )    f =(  0.0000000 )
                  (    -1         -1          0      )       ( -0.0000000 )
                  (     0          0         -1      )       ( -0.5000000 )

 cart.    s(18) = ( -0.5000000 -0.8660254  0.0000000 )    f =(  0.0000000 )
                  (  0.8660254 -0.5000000  0.0000000 )       ( -0.0000000 )
                  (  0.0000000  0.0000000 -1.0000000 )       ( -0.8093812 )


      isym = 19     inv. 120 deg rotation - cryst. axis [0,0,1]  

 cryst.   s(19) = (     0         -1          0      )
                  (     1          1          0      )
                  (     0          0         -1      )

 cart.    s(19) = (  0.5000000  0.8660254  0.0000000 )
                  ( -0.8660254  0.5000000  0.0000000 )
                  (  0.0000000  0.0000000 -1.0000000 )


      isym = 20     inv. 120 deg rotation - cryst. axis [0,0,-1] 

 cryst.   s(20) = (     1          1          0      )
                  (    -1          0          0      )
                  (     0          0         -1      )

 cart.    s(20) = (  0.5000000 -0.8660254  0.0000000 )
                  (  0.8660254  0.5000000  0.0000000 )
                  (  0.0000000  0.0000000 -1.0000000 )


      isym = 21     inv. 180 deg rotation - cryst. axis [1,-1,0] 

 cryst.   s(21) = (     0          1          0      )    f =(  0.0000000 )
                  (     1          0          0      )       ( -0.0000000 )
                  (     0          0          1      )       ( -0.5000000 )

 cart.    s(21) = ( -0.5000000  0.8660254  0.0000000 )    f =(  0.0000000 )
                  (  0.8660254  0.5000000  0.0000000 )       ( -0.0000000 )
                  (  0.0000000  0.0000000  1.0000000 )       ( -0.8093812 )


      isym = 22     inv. 180 deg rotation - cryst. axis [2,1,0]  

 cryst.   s(22) = (    -1         -1          0      )    f =(  0.0000000 )
                  (     0          1          0      )       ( -0.0000000 )
                  (     0          0          1      )       ( -0.5000000 )

 cart.    s(22) = ( -0.5000000 -0.8660254  0.0000000 )    f =(  0.0000000 )
                  ( -0.8660254  0.5000000  0.0000000 )       ( -0.0000000 )
                  (  0.0000000  0.0000000  1.0000000 )       ( -0.8093812 )


      isym = 23     inv. 180 deg rotation - cryst. axis [0,1,0]  

 cryst.   s(23) = (     1          1          0      )
                  (     0         -1          0      )
                  (     0          0          1      )

 cart.    s(23) = (  0.5000000  0.8660254  0.0000000 )
                  (  0.8660254 -0.5000000  0.0000000 )
                  (  0.0000000  0.0000000  1.0000000 )


      isym = 24     inv. 180 deg rotation - cryst. axis [1,1,0]  

 cryst.   s(24) = (     0         -1          0      )
                  (    -1          0          0      )
                  (     0          0          1      )

 cart.    s(24) = (  0.5000000 -0.8660254  0.0000000 )
                  ( -0.8660254 -0.5000000  0.0000000 )
                  (  0.0000000  0.0000000  1.0000000 )


     point group D_6h(6/mmm)
     there are 12 classes
     the character table:

       E     2C6   2C3   C2    3C2'  3C2'' i     2S3   2S6   s_h   3s_d  3s_v 
A_1g   1.00  1.00  1.00  1.00  1.00  1.00  1.00  1.00  1.00  1.00  1.00  1.00
A_2g   1.00  1.00  1.00  1.00 -1.00 -1.00  1.00  1.00  1.00  1.00 -1.00 -1.00
B_1g   1.00 -1.00  1.00 -1.00  1.00 -1.00  1.00 -1.00  1.00 -1.00  1.00 -1.00
B_2g   1.00 -1.00  1.00 -1.00 -1.00  1.00  1.00 -1.00  1.00 -1.00 -1.00  1.00
E_1g   2.00  1.00 -1.00 -2.00  0.00  0.00  2.00  1.00 -1.00 -2.00  0.00  0.00
E_2g   2.00 -1.00 -1.00  2.00  0.00  0.00  2.00 -1.00 -1.00  2.00  0.00  0.00
A_1u   1.00  1.00  1.00  1.00  1.00  1.00 -1.00 -1.00 -1.00 -1.00 -1.00 -1.00
A_2u   1.00  1.00  1.00  1.00 -1.00 -1.00 -1.00 -1.00 -1.00 -1.00  1.00  1.00
B_1u   1.00 -1.00  1.00 -1.00  1.00 -1.00 -1.00  1.00 -1.00  1.00 -1.00  1.00
B_2u   1.00 -1.00  1.00 -1.00 -1.00  1.00 -1.00  1.00 -1.00  1.00  1.00 -1.00
E_1u   2.00  1.00 -1.00 -2.00  0.00  0.00 -2.00 -1.00  1.00  2.00  0.00  0.00
E_2u   2.00 -1.00 -1.00  2.00  0.00  0.00 -2.00  1.00  1.00 -2.00  0.00  0.00

     the symmetry operations in each class and the name of the first element:

     E        1
          identity                                               
     2C6      5    6
           60 deg rotation - cryst. axis [0,0,1]                 
     2C3      7    8
          120 deg rotation - cryst. axis [0,0,1]                 
     C2       2
          180 deg rotation - cart. axis [0,0,1]                  
     3C2'     4   12   11
          180 deg rotation - cart. axis [1,0,0]                  
     3C2''    3    9   10
          180 deg rotation - cart. axis [0,1,0]                  
     i       13
          inversion                                              
     2S3     17   18
          inv.  60 deg rotation - cryst. axis [0,0,1]            
     2S6     19   20
          inv. 120 deg rotation - cryst. axis [0,0,1]            
     s_h     14
          inv. 180 deg rotation - cart. axis [0,0,1]             
     3s_d    16   24   23
          inv. 180 deg rotation - cart. axis [1,0,0]             
     3s_v    15   21   22
          inv. 180 deg rotation - cart. axis [0,1,0]             

   Cartesian axes

     site n.     atom                  positions (alat units)
         1           Co  tau(   1) = (  -0.0000000   0.5773503   0.4046906  )
         2           Co  tau(   2) = (   0.5000000   0.2886751   1.2140719  )

   Crystallographic axes

     site n.     atom                  positions (cryst. coord.)
         1           Co  tau(   1) = (  0.3333333  0.6666667  0.2500000  )
         2           Co  tau(   2) = (  0.6666667  0.3333333  0.7500000  )

     number of k points=    76  Gaussian smearing, width (Ry)=  0.0010
                       cart. coord. in units 2pi/alat
        k(    1) = (   0.0000000   0.0000000   0.0000000), wk =   0.0011574
        k(    2) = (   0.0000000   0.0000000   0.1029593), wk =   0.0023148
        k(    3) = (   0.0000000   0.0000000   0.2059186), wk =   0.0023148
        k(    4) = (   0.0000000   0.0000000  -0.3088779), wk =   0.0011574
        k(    5) = (   0.0000000   0.0962250   0.0000000), wk =   0.0069444
        k(    6) = (   0.0000000   0.0962250   0.1029593), wk =   0.0138889
        k(    7) = (   0.0000000   0.0962250   0.2059186), wk =   0.0138889
        k(    8) = (   0.0000000   0.0962250  -0.3088779), wk =   0.0069444
        k(    9) = (   0.0000000   0.1924501   0.0000000), wk =   0.0069444
        k(   10) = (   0.0000000   0.1924501   0.1029593), wk =   0.0138889
        k(   11) = (   0.0000000   0.1924501   0.2059186), wk =   0.0138889
        k(   12) = (   0.0000000   0.1924501  -0.3088779), wk =   0.0069444
        k(   13) = (   0.0000000   0.2886751   0.0000000), wk =   0.0069444
        k(   14) = (   0.0000000   0.2886751   0.1029593), wk =   0.0138889
        k(   15) = (   0.0000000   0.2886751   0.2059186), wk =   0.0138889
        k(   16) = (   0.0000000   0.2886751  -0.3088779), wk =   0.0069444
        k(   17) = (   0.0000000   0.3849002   0.0000000), wk =   0.0069444
        k(   18) = (   0.0000000   0.3849002   0.1029593), wk =   0.0138889
        k(   19) = (   0.0000000   0.3849002   0.2059186), wk =   0.0138889
        k(   20) = (   0.0000000   0.3849002  -0.3088779), wk =   0.0069444
        k(   21) = (   0.0000000   0.4811252   0.0000000), wk =   0.0069444
        k(   22) = (   0.0000000   0.4811252   0.1029593), wk =   0.0138889
        k(   23) = (   0.0000000   0.4811252   0.2059186), wk =   0.0138889
        k(   24) = (   0.0000000   0.4811252  -0.3088779), wk =   0.0069444
        k(   25) = (   0.0000000  -0.5773503   0.0000000), wk =   0.0034722
        k(   26) = (   0.0000000  -0.5773503   0.1029593), wk =   0.0069444
        k(   27) = (   0.0000000  -0.5773503   0.2059186), wk =   0.0069444
        k(   28) = (   0.0000000  -0.5773503  -0.3088779), wk =   0.0034722
        k(   29) = (   0.0833333   0.1443376   0.0000000), wk =   0.0069444
        k(   30) = (   0.0833333   0.1443376   0.1029593), wk =   0.0138889
        k(   31) = (   0.0833333   0.1443376   0.2059186), wk =   0.0138889
        k(   32) = (   0.0833333   0.1443376  -0.3088779), wk =   0.0069444
        k(   33) = (   0.0833333   0.2405626   0.0000000), wk =   0.0138889
        k(   34) = (   0.0833333   0.2405626   0.1029593), wk =   0.0277778
        k(   35) = (   0.0833333   0.2405626   0.2059186), wk =   0.0277778
        k(   36) = (   0.0833333   0.2405626  -0.3088779), wk =   0.0138889
        k(   37) = (   0.0833333   0.3367877   0.0000000), wk =   0.0138889
        k(   38) = (   0.0833333   0.3367877   0.1029593), wk =   0.0277778
        k(   39) = (   0.0833333   0.3367877   0.2059186), wk =   0.0277778
        k(   40) = (   0.0833333   0.3367877  -0.3088779), wk =   0.0138889
        k(   41) = (   0.0833333   0.4330127   0.0000000), wk =   0.0138889
        k(   42) = (   0.0833333   0.4330127   0.1029593), wk =   0.0277778
        k(   43) = (   0.0833333   0.4330127   0.2059186), wk =   0.0277778
        k(   44) = (   0.0833333   0.4330127  -0.3088779), wk =   0.0138889
        k(   45) = (   0.0833333   0.5292377   0.0000000), wk =   0.0138889
        k(   46) = (   0.0833333   0.5292377   0.1029593), wk =   0.0277778
        k(   47) = (   0.0833333   0.5292377   0.2059186), wk =   0.0277778
        k(   48) = (   0.0833333   0.5292377  -0.3088779), wk =   0.0138889
        k(   49) = (   0.1666667   0.2886751   0.0000000), wk =   0.0069444
        k(   50) = (   0.1666667   0.2886751   0.1029593), wk =   0.0138889
        k(   51) = (   0.1666667   0.2886751   0.2059186), wk =   0.0138889
        k(   52) = (   0.1666667   0.2886751  -0.3088779), wk =   0.0069444
        k(   53) = (   0.1666667   0.3849002   0.0000000), wk =   0.0138889
        k(   54) = (   0.1666667   0.3849002   0.1029593), wk =   0.0277778
        k(   55) = (   0.1666667   0.3849002   0.2059186), wk =   0.0277778
        k(   56) = (   0.1666667   0.3849002  -0.3088779), wk =   0.0138889
        k(   57) = (   0.1666667   0.4811252   0.0000000), wk =   0.0138889
        k(   58) = (   0.1666667   0.4811252   0.1029593), wk =   0.0277778
        k(   59) = (   0.1666667   0.4811252   0.2059186), wk =   0.0277778
        k(   60) = (   0.1666667   0.4811252  -0.3088779), wk =   0.0138889
        k(   61) = (   0.1666667   0.5773503   0.0000000), wk =   0.0069444
        k(   62) = (   0.1666667   0.5773503   0.1029593), wk =   0.0138889
        k(   63) = (   0.1666667   0.5773503   0.2059186), wk =   0.0138889
        k(   64) = (   0.1666667   0.5773503  -0.3088779), wk =   0.0069444
        k(   65) = (   0.2500000   0.4330127   0.0000000), wk =   0.0069444
        k(   66) = (   0.2500000   0.4330127   0.1029593), wk =   0.0138889
        k(   67) = (   0.2500000   0.4330127   0.2059186), wk =   0.0138889
        k(   68) = (   0.2500000   0.4330127  -0.3088779), wk =   0.0069444
        k(   69) = (   0.2500000   0.5292377   0.0000000), wk =   0.0138889
        k(   70) = (   0.2500000   0.5292377   0.1029593), wk =   0.0277778
        k(   71) = (   0.2500000   0.5292377   0.2059186), wk =   0.0277778
        k(   72) = (   0.2500000   0.5292377  -0.3088779), wk =   0.0138889
        k(   73) = (   0.3333333   0.5773503   0.0000000), wk =   0.0023148
        k(   74) = (   0.3333333   0.5773503   0.1029593), wk =   0.0046296
        k(   75) = (   0.3333333   0.5773503   0.2059186), wk =   0.0046296
        k(   76) = (   0.3333333   0.5773503  -0.3088779), wk =   0.0023148

                       cryst. coord.
        k(    1) = (   0.0000000   0.0000000   0.0000000), wk =   0.0011574
        k(    2) = (   0.0000000   0.0000000   0.1666667), wk =   0.0023148
        k(    3) = (   0.0000000   0.0000000   0.3333333), wk =   0.0023148
        k(    4) = (   0.0000000   0.0000000  -0.5000000), wk =   0.0011574
        k(    5) = (   0.0000000   0.0833333   0.0000000), wk =   0.0069444
        k(    6) = (   0.0000000   0.0833333   0.1666667), wk =   0.0138889
        k(    7) = (   0.0000000   0.0833333   0.3333333), wk =   0.0138889
        k(    8) = (   0.0000000   0.0833333  -0.5000000), wk =   0.0069444
        k(    9) = (   0.0000000   0.1666667   0.0000000), wk =   0.0069444
        k(   10) = (   0.0000000   0.1666667   0.1666667), wk =   0.0138889
        k(   11) = (   0.0000000   0.1666667   0.3333333), wk =   0.0138889
        k(   12) = (   0.0000000   0.1666667  -0.5000000), wk =   0.0069444
        k(   13) = (   0.0000000   0.2500000   0.0000000), wk =   0.0069444
        k(   14) = (   0.0000000   0.2500000   0.1666667), wk =   0.0138889
        k(   15) = (   0.0000000   0.2500000   0.3333333), wk =   0.0138889
        k(   16) = (   0.0000000   0.2500000  -0.5000000), wk =   0.0069444
        k(   17) = (   0.0000000   0.3333333   0.0000000), wk =   0.0069444
        k(   18) = (   0.0000000   0.3333333   0.1666667), wk =   0.0138889
        k(   19) = (   0.0000000   0.3333333   0.3333333), wk =   0.0138889
        k(   20) = (   0.0000000   0.3333333  -0.5000000), wk =   0.0069444
        k(   21) = (   0.0000000   0.4166667   0.0000000), wk =   0.0069444
        k(   22) = (   0.0000000   0.4166667   0.1666667), wk =   0.0138889
        k(   23) = (   0.0000000   0.4166667   0.3333333), wk =   0.0138889
        k(   24) = (   0.0000000   0.4166667  -0.5000000), wk =   0.0069444
        k(   25) = (   0.0000000  -0.5000000   0.0000000), wk =   0.0034722
        k(   26) = (   0.0000000  -0.5000000   0.1666667), wk =   0.0069444
        k(   27) = (   0.0000000  -0.5000000   0.3333333), wk =   0.0069444
        k(   28) = (   0.0000000  -0.5000000  -0.5000000), wk =   0.0034722
        k(   29) = (   0.0833333   0.0833333   0.0000000), wk =   0.0069444
        k(   30) = (   0.0833333   0.0833333   0.1666667), wk =   0.0138889
        k(   31) = (   0.0833333   0.0833333   0.3333333), wk =   0.0138889
        k(   32) = (   0.0833333   0.0833333  -0.5000000), wk =   0.0069444
        k(   33) = (   0.0833333   0.1666667   0.0000000), wk =   0.0138889
        k(   34) = (   0.0833333   0.1666667   0.1666667), wk =   0.0277778
        k(   35) = (   0.0833333   0.1666667   0.3333333), wk =   0.0277778
        k(   36) = (   0.0833333   0.1666667  -0.5000000), wk =   0.0138889
        k(   37) = (   0.0833333   0.2500000   0.0000000), wk =   0.0138889
        k(   38) = (   0.0833333   0.2500000   0.1666667), wk =   0.0277778
        k(   39) = (   0.0833333   0.2500000   0.3333333), wk =   0.0277778
        k(   40) = (   0.0833333   0.2500000  -0.5000000), wk =   0.0138889
        k(   41) = (   0.0833333   0.3333333   0.0000000), wk =   0.0138889
        k(   42) = (   0.0833333   0.3333333   0.1666667), wk =   0.0277778
        k(   43) = (   0.0833333   0.3333333   0.3333333), wk =   0.0277778
        k(   44) = (   0.0833333   0.3333333  -0.5000000), wk =   0.0138889
        k(   45) = (   0.0833333   0.4166667   0.0000000), wk =   0.0138889
        k(   46) = (   0.0833333   0.4166667   0.1666667), wk =   0.0277778
        k(   47) = (   0.0833333   0.4166667   0.3333333), wk =   0.0277778
        k(   48) = (   0.0833333   0.4166667  -0.5000000), wk =   0.0138889
        k(   49) = (   0.1666667   0.1666667   0.0000000), wk =   0.0069444
        k(   50) = (   0.1666667   0.1666667   0.1666667), wk =   0.0138889
        k(   51) = (   0.1666667   0.1666667   0.3333333), wk =   0.0138889
        k(   52) = (   0.1666667   0.1666667  -0.5000000), wk =   0.0069444
        k(   53) = (   0.1666667   0.2500000   0.0000000), wk =   0.0138889
        k(   54) = (   0.1666667   0.2500000   0.1666667), wk =   0.0277778
        k(   55) = (   0.1666667   0.2500000   0.3333333), wk =   0.0277778
        k(   56) = (   0.1666667   0.2500000  -0.5000000), wk =   0.0138889
        k(   57) = (   0.1666667   0.3333333   0.0000000), wk =   0.0138889
        k(   58) = (   0.1666667   0.3333333   0.1666667), wk =   0.0277778
        k(   59) = (   0.1666667   0.3333333   0.3333333), wk =   0.0277778
        k(   60) = (   0.1666667   0.3333333  -0.5000000), wk =   0.0138889
        k(   61) = (   0.1666667   0.4166667   0.0000000), wk =   0.0069444
        k(   62) = (   0.1666667   0.4166667   0.1666667), wk =   0.0138889
        k(   63) = (   0.1666667   0.4166667   0.3333333), wk =   0.0138889
        k(   64) = (   0.1666667   0.4166667  -0.5000000), wk =   0.0069444
        k(   65) = (   0.2500000   0.2500000   0.0000000), wk =   0.0069444
        k(   66) = (   0.2500000   0.2500000   0.1666667), wk =   0.0138889
        k(   67) = (   0.2500000   0.2500000   0.3333333), wk =   0.0138889
        k(   68) = (   0.2500000   0.2500000  -0.5000000), wk =   0.0069444
        k(   69) = (   0.2500000   0.3333333   0.0000000), wk =   0.0138889
        k(   70) = (   0.2500000   0.3333333   0.1666667), wk =   0.0277778
        k(   71) = (   0.2500000   0.3333333   0.3333333), wk =   0.0277778
        k(   72) = (   0.2500000   0.3333333  -0.5000000), wk =   0.0138889
        k(   73) = (   0.3333333   0.3333333   0.0000000), wk =   0.0023148
        k(   74) = (   0.3333333   0.3333333   0.1666667), wk =   0.0046296
        k(   75) = (   0.3333333   0.3333333   0.3333333), wk =   0.0046296
        k(   76) = (   0.3333333   0.3333333  -0.5000000), wk =   0.0023148

     Dense  grid:    23895 G-vectors     FFT dimensions: (  32,  32,  54)

     Smooth grid:    23091 G-vectors     FFT dimensions: (  32,  32,  54)

     Dynamical RAM for                 wfc:       0.05 MB

     Dynamical RAM for     wfc (w. buffer):       7.06 MB

     Dynamical RAM for           str. fact:       0.02 MB

     Dynamical RAM for           local pot:       0.00 MB

     Dynamical RAM for          nlocal pot:       0.08 MB

     Dynamical RAM for                qrad:       1.70 MB

     Dynamical RAM for          rho,v,vnew:       0.25 MB

     Dynamical RAM for               rhoin:       0.08 MB

     Dynamical RAM for            rho*nmix:       0.58 MB

     Dynamical RAM for           G-vectors:       0.08 MB

     Dynamical RAM for          h,s,v(r/c):       0.08 MB

     Dynamical RAM for          <psi|beta>:       0.01 MB

     Dynamical RAM for                 psi:       0.09 MB

     Dynamical RAM for                hpsi:       0.09 MB

     Dynamical RAM for                spsi:       0.09 MB

     Dynamical RAM for      wfcinit/wfcrot:       0.10 MB

     Dynamical RAM for           addusdens:       3.44 MB

     Estimated static dynamical RAM per process >       9.45 MB

     Estimated max dynamical RAM per process >      13.47 MB

     Estimated total dynamical RAM >     269.47 MB

     Check: negative core charge=   -0.000043
     Generating pointlists ...
     new r_m :   0.4101 (alat units)  1.9413 (a.u.) for type    1

     The initial density is read from file :
     ./out/Co.save/charge-density


     starting charge      34.0420, renormalised to      34.0000
     Starting wfcs from file
     Checking if some PAW data can be deallocated... 

     total cpu time spent up to now is        0.6 secs

     Self-consistent Calculation

     iteration #  1     ecut=   110.00 Ry     beta= 0.70
     Davidson diagonalization with overlap

---- Real-time Memory Report at c_bands before calling an iterative solver
            54 MiB given to the printing process from OS
             0 MiB allocation reported by mallinfo(arena+hblkhd)
        352048 MiB available memory on the node where the printing process lives
------------------
     ethr =  1.00E-05,  avg # of iterations =  2.7

     total cpu time spent up to now is        2.4 secs

     total energy              =    -753.45351044 Ry
     estimated scf accuracy    <       0.00115751 Ry

     total magnetization       =     3.34 Bohr mag/cell
     absolute magnetization    =     3.67 Bohr mag/cell

     iteration #  2     ecut=   110.00 Ry     beta= 0.70
     Davidson diagonalization with overlap

---- Real-time Memory Report at c_bands before calling an iterative solver
            77 MiB given to the printing process from OS
             0 MiB allocation reported by mallinfo(arena+hblkhd)
        351822 MiB available memory on the node where the printing process lives
------------------
     ethr =  3.40E-06,  avg # of iterations =  4.7

     total cpu time spent up to now is        4.5 secs

     total energy              =    -753.45398927 Ry
     estimated scf accuracy    <       0.00339354 Ry

     total magnetization       =     3.36 Bohr mag/cell
     absolute magnetization    =     3.69 Bohr mag/cell

     iteration #  3     ecut=   110.00 Ry     beta= 0.70
     Davidson diagonalization with overlap

---- Real-time Memory Report at c_bands before calling an iterative solver
            79 MiB given to the printing process from OS
             0 MiB allocation reported by mallinfo(arena+hblkhd)
        351810 MiB available memory on the node where the printing process lives
------------------
     ethr =  3.40E-06,  avg # of iterations =  4.1

     total cpu time spent up to now is        6.3 secs

     total energy              =    -753.45483128 Ry
     estimated scf accuracy    <       0.00001109 Ry

     total magnetization       =     3.36 Bohr mag/cell
     absolute magnetization    =     3.69 Bohr mag/cell

     iteration #  4     ecut=   110.00 Ry     beta= 0.70
     Davidson diagonalization with overlap

---- Real-time Memory Report at c_bands before calling an iterative solver
            80 MiB given to the printing process from OS
             0 MiB allocation reported by mallinfo(arena+hblkhd)
        351802 MiB available memory on the node where the printing process lives
------------------
     ethr =  3.26E-08,  avg # of iterations =  5.9

     total cpu time spent up to now is        8.7 secs

     total energy              =    -753.45486278 Ry
     estimated scf accuracy    <       0.00000595 Ry

     total magnetization       =     3.36 Bohr mag/cell
     absolute magnetization    =     3.69 Bohr mag/cell

     iteration #  5     ecut=   110.00 Ry     beta= 0.70
     Davidson diagonalization with overlap

---- Real-time Memory Report at c_bands before calling an iterative solver
            81 MiB given to the printing process from OS
             0 MiB allocation reported by mallinfo(arena+hblkhd)
        351788 MiB available memory on the node where the printing process lives
------------------
     ethr =  1.75E-08,  avg # of iterations =  3.5
 
     Magnetic moment per site  (integrated on atomic sphere of radius R)
     atom   1 (R=0.410)  charge= 15.5997  magn=  1.7559
     atom   2 (R=0.410)  charge= 15.5997  magn=  1.7559

     total cpu time spent up to now is       10.4 secs

     End of self-consistent calculation

 ------ SPIN UP ------------


          k = 0.0000 0.0000 0.0000 (  2875 PWs)   bands (ev):

   -77.7910 -77.7385 -41.1855 -40.9065 -40.9065 -40.8767 -40.8615 -40.8615
     9.4303  13.2122  15.6991  15.7335  15.7335  16.0380  16.0380  16.3663
    16.3663  17.4439  17.4439  18.0996  24.4804

     occupation numbers 
     1.0000   1.0000   1.0000   1.0000   1.0000   1.0000   1.0000   1.0000
     1.0000   1.0000   1.0000   1.0000   1.0000   1.0000   1.0000   1.0000
     1.0000   1.0000   1.0000   1.0000   0.0000

          k = 0.0000 0.0000 0.1030 (  2887 PWs)   bands (ev):

   -77.7875 -77.7420 -41.1651 -40.9035 -40.9035 -40.8977 -40.8645 -40.8645
     9.7040  13.1411  15.6301  15.6691  15.6691  15.9658  15.9658  16.5266
    16.5266  17.1439  17.4280  17.4280  26.0007

     occupation numbers 
     1.0000   1.0000   1.0000   1.0000   1.0000   1.0000   1.0000   1.0000
     1.0000   1.0000   1.0000   1.0000   1.0000   1.0000   1.0000   1.0000
     1.0000   1.0000   1.0000   1.0000   0.0000

          k = 0.0000 0.0000 0.2059 (  2882 PWs)   bands (ev):

   -77.7779 -77.7517 -41.1091 -40.9547 -40.8952 -40.8952 -40.8727 -40.8727
    10.4897  12.6992  15.4703  15.6146  15.6146  15.8067  15.8067  15.8367
    16.8414  16.8414  17.3423  17.3423  29.2002

     occupation numbers 
     1.0000   1.0000   1.0000   1.0000   1.0000   1.0000   1.0000   1.0000
     1.0000   1.0000   1.0000   1.0000   1.0000   1.0000   1.0000   1.0000
     1.0000   1.0000   1.0000   1.0000   0.0000

          k = 0.0000 0.0000-0.3089 (  2858 PWs)   bands (ev):

   -77.7648 -77.7648 -41.0321 -41.0321 -40.8840 -40.8840 -40.8840 -40.8840
    11.6371  11.6371  15.3935  15.3935  15.6652  15.6652  15.6652  15.6652
    17.1411  17.1411  17.1411  17.1411  33.0167

     occupation numbers 
     1.0000   1.0000   1.0000   1.0000   1.0000   1.0000   1.0000   1.0000
     1.0000   1.0000   1.0000   1.0000   1.0000   1.0000   1.0000   1.0000
     1.0000   1.0000   1.0000   1.0000   0.0000

          k = 0.0000 0.0962 0.0000 (  2865 PWs)   bands (ev):

   -77.7880 -77.7371 -41.1788 -40.9212 -40.9113 -40.8795 -40.8768 -40.8640
     9.6693  13.3551  15.4982  15.8447  15.8986  15.9919  16.1364  16.2151
    16.2971  16.6725  17.4731  19.1870  24.5215

     occupation numbers 
     1.0000   1.0000   1.0000   1.0000   1.0000   1.0000   1.0000   1.0000
     1.0000   1.0000   1.0000   1.0000   1.0000   1.0000   1.0000   1.0000
     1.0000   1.0000   1.0000   0.0000   0.0000

          k = 0.0000 0.0962 0.1030 (  2881 PWs)   bands (ev):

   -77.7846 -77.7406 -41.1595 -40.9178 -40.9081 -40.9048 -40.8747 -40.8671
     9.9389  13.2986  15.4961  15.7263  15.7635  15.8146  16.0583  16.3512
    16.4843  16.5715  17.4500  18.4041  26.1105

     occupation numbers 
     1.0000   1.0000   1.0000   1.0000   1.0000   1.0000   1.0000   1.0000
     1.0000   1.0000   1.0000   1.0000   1.0000   1.0000   1.0000   1.0000
     1.0000   1.0000   1.0000   0.0000   0.0000

          k = 0.0000 0.0962 0.2059 (  2878 PWs)   bands (ev):

   -77.7753 -77.7499 -41.1066 -40.9604 -40.9081 -40.8995 -40.8826 -40.8758
    10.7124  12.8852  15.3903  15.4489  15.5411  15.7023  15.8980  15.9670
    16.8170  16.8616  17.3483  17.6379  29.3533

     occupation numbers 
     1.0000   1.0000   1.0000   1.0000   1.0000   1.0000   1.0000   1.0000
     1.0000   1.0000   1.0000   1.0000   1.0000   1.0000   1.0000   1.0000
     1.0000   1.0000   1.0000   1.0000   0.0000

          k = 0.0000 0.0962-0.3089 (  2880 PWs)   bands (ev):

   -77.7626 -77.7626 -41.0339 -41.0339 -40.8952 -40.8952 -40.8876 -40.8876
    11.8415  11.8415  15.2484  15.2484  15.6811  15.6811  15.7545  15.7545
    17.1306  17.1306  17.2314  17.2314  33.1834

     occupation numbers 
     1.0000   1.0000   1.0000   1.0000   1.0000   1.0000   1.0000   1.0000
     1.0000   1.0000   1.0000   1.0000   1.0000   1.0000   1.0000   1.0000
     1.0000   1.0000   1.0000   1.0000   0.0000

          k = 0.0000 0.1925 0.0000 (  2878 PWs)   bands (ev):

   -77.7798 -77.7336 -41.1598 -40.9616 -40.9242 -40.9182 -40.8879 -40.8710
    10.3610  13.7091  15.2331  15.5070  15.8205  16.1264  16.1586  16.1953
    16.3191  16.4122  17.5353  20.7526  24.6657

     occupation numbers 
     1.0000   1.0000   1.0000   1.0000   1.0000   1.0000   1.0000   1.0000
     1.0000   1.0000   1.0000   1.0000   1.0000   1.0000   1.0000   1.0000
     1.0000   1.0000   1.0000   0.0000   0.0000

          k = 0.0000 0.1925 0.1030 (  2883 PWs)   bands (ev):

   -77.7767 -77.7367 -41.1442 -40.9567 -40.9359 -40.9206 -40.8910 -40.8746
    10.6151  13.6971  15.2398  15.2725  15.7034  15.9646  16.0819  16.2979
    16.4696  16.5604  17.4964  19.6166  26.4668

     occupation numbers 
     1.0000   1.0000   1.0000   1.0000   1.0000   1.0000   1.0000   1.0000
     1.0000   1.0000   1.0000   1.0000   1.0000   1.0000   1.0000   1.0000
     1.0000   1.0000   1.0000   0.0000   0.0000

          k = 0.0000 0.1925 0.2059 (  2892 PWs)   bands (ev):

   -77.7683 -77.7452 -41.1016 -40.9830 -40.9410 -40.9109 -40.9030 -40.8843
    11.3407  13.3676  14.9059  15.3254  15.4304  15.9072  15.9159  16.1509
    16.7928  16.9500  17.3612  18.2743  29.8109

     occupation numbers 
     1.0000   1.0000   1.0000   1.0000   1.0000   1.0000   1.0000   1.0000
     1.0000   1.0000   1.0000   1.0000   1.0000   1.0000   1.0000   1.0000
     1.0000   1.0000   1.0000   1.0000   0.0000

          k = 0.0000 0.1925-0.3089 (  2892 PWs)   bands (ev):

   -77.7567 -77.7567 -41.0428 -41.0428 -40.9217 -40.9217 -40.8976 -40.8976
    12.3928  12.3928  15.0213  15.0213  15.6267  15.6267  15.9925  15.9925
    17.1159  17.1159  17.4746  17.4746  33.6365

     occupation numbers 
     1.0000   1.0000   1.0000   1.0000   1.0000   1.0000   1.0000   1.0000
     1.0000   1.0000   1.0000   1.0000   1.0000   1.0000   1.0000   1.0000
     1.0000   1.0000   1.0000   1.0000   0.0000

          k = 0.0000 0.2887 0.0000 (  2882 PWs)   bands (ev):

   -77.7682 -77.7291 -41.1312 -41.0172 -40.9739 -40.9413 -40.9020 -40.8810
    11.4100  13.9956  14.8004  15.0697  15.7266  15.9209  16.1238  16.6136
    16.6137  16.8085  17.5940  22.5203  24.9450

     occupation numbers 
     1.0000   1.0000   1.0000   1.0000   1.0000   1.0000   1.0000   1.0000
     1.0000   1.0000   1.0000   1.0000   1.0000   1.0000   1.0000   1.0000
     1.0000   1.0000   1.0000   0.0000   0.0000

          k = 0.0000 0.2887 0.1030 (  2890 PWs)   bands (ev):

   -77.7655 -77.7317 -41.1241 -41.0081 -40.9874 -40.9373 -40.9049 -40.8851
    11.6226  14.0371  14.6595  15.1193  15.5779  15.9587  16.1293  16.6561
    16.7309  16.7640  17.5410  20.8797  27.1042

     occupation numbers 
     1.0000   1.0000   1.0000   1.0000   1.0000   1.0000   1.0000   1.0000
     1.0000   1.0000   1.0000   1.0000   1.0000   1.0000   1.0000   1.0000
     1.0000   1.0000   1.0000   0.0000   0.0000

          k = 0.0000 0.2887 0.2059 (  2896 PWs)   bands (ev):

   -77.7584 -77.7389 -41.1024 -41.0274 -40.9766 -40.9263 -40.9185 -40.8961
    12.2148  13.8000  14.5800  15.1512  15.4497  15.9751  16.0786  16.5076
    16.9125  17.1085  17.3870  19.0390  30.4372

     occupation numbers 
     1.0000   1.0000   1.0000   1.0000   1.0000   1.0000   1.0000   1.0000
     1.0000   1.0000   1.0000   1.0000   1.0000   1.0000   1.0000   1.0000
     1.0000   1.0000   1.0000   0.0000   0.0000

          k = 0.0000 0.2887-0.3089 (  2904 PWs)   bands (ev):

   -77.7487 -77.7487 -41.0678 -41.0678 -40.9447 -40.9447 -40.9112 -40.9112
    13.0353  13.0353  14.8707  14.8707  15.6840  15.6840  16.2759  16.2759
    17.1585  17.1585  17.8158  17.8158  32.5194

     occupation numbers 
     1.0000   1.0000   1.0000   1.0000   1.0000   1.0000   1.0000   1.0000
     1.0000   1.0000   1.0000   1.0000   1.0000   1.0000   1.0000   1.0000
     1.0000   1.0000   1.0000   1.0000   0.0000

          k = 0.0000 0.3849 0.0000 (  2892 PWs)   bands (ev):

   -77.7556 -77.7255 -41.0977 -41.0734 -41.0286 -40.9581 -40.9209 -40.8914
    12.5626  13.9339  14.2892  15.1725  15.7358  15.8453  15.9493  17.0983
    17.2380  17.2831  17.6341  24.4497  25.0220

     occupation numbers 
     1.0000   1.0000   1.0000   1.0000   1.0000   1.0000   1.0000   1.0000
     1.0000   1.0000   1.0000   1.0000   1.0000   1.0000   1.0000   1.0000
     1.0000   1.0000   1.0000   0.0000   0.0000

          k = 0.0000 0.3849 0.1030 (  2895 PWs)   bands (ev):

   -77.7536 -77.7275 -41.1149 -41.0517 -41.0332 -40.9536 -40.9208 -40.8959
    12.6643  13.9651  14.3204  15.0343  15.7665  15.8259  16.2877  17.1167
    17.1472  17.2203  17.5833  22.1097  27.1390

     occupation numbers 
     1.0000   1.0000   1.0000   1.0000   1.0000   1.0000   1.0000   1.0000
     1.0000   1.0000   1.0000   1.0000   1.0000   1.0000   1.0000   1.0000
     1.0000   1.0000   1.0000   0.0000   0.0000

          k = 0.0000 0.3849 0.2059 (  2897 PWs)   bands (ev):

   -77.7481 -77.7330 -41.1209 -41.0777 -40.9931 -40.9415 -40.9290 -40.9081
    12.9473  13.7852  14.4587  14.9567  15.8626  16.0802  16.5861  16.8383
    17.2191  17.3330  17.4706  19.9220  28.2178

     occupation numbers 
     1.0000   1.0000   1.0000   1.0000   1.0000   1.0000   1.0000   1.0000
     1.0000   1.0000   1.0000   1.0000   1.0000   1.0000   1.0000   1.0000
     1.0000   1.0000   1.0000   0.0000   0.0000

          k = 0.0000 0.3849-0.3089 (  2902 PWs)   bands (ev):

   -77.7406 -77.7406 -41.1066 -41.1066 -40.9538 -40.9538 -40.9248 -40.9248
    13.3560  13.3560  14.7472  14.7472  16.2683  16.2683  16.4478  16.4478
    17.3404  17.3404  18.2938  18.2938  29.3305

     occupation numbers 
     1.0000   1.0000   1.0000   1.0000   1.0000   1.0000   1.0000   1.0000
     1.0000   1.0000   1.0000   1.0000   1.0000   1.0000   1.0000   1.0000
     1.0000   1.0000   0.9882   0.9882   0.0000

          k = 0.0000 0.4811 0.0000 (  2908 PWs)   bands (ev):

   -77.7454 -77.7239 -41.1147 -41.0680 -41.0668 -40.9701 -40.9413 -40.8992
    13.3329  13.7505  13.9840  15.5198  15.6093  15.8259  16.0442  17.4605
    17.5936  17.6554  18.3738  23.2029  26.4442

     occupation numbers 
     1.0000   1.0000   1.0000   1.0000   1.0000   1.0000   1.0000   1.0000
     1.0000   1.0000   1.0000   1.0000   1.0000   1.0000   1.0000   1.0000
     1.0000   1.0000   0.0000   0.0000   0.0000

          k = 0.0000 0.4811 0.1030 (  2904 PWs)   bands (ev):

   -77.7439 -77.7254 -41.1331 -41.0848 -41.0355 -40.9654 -40.9373 -40.9040
    13.2304  13.7488  14.2863  14.9309  15.7195  16.0434  16.6345  17.3978
    17.4941  17.6604  18.2190  22.4407  25.7341

     occupation numbers 
     1.0000   1.0000   1.0000   1.0000   1.0000   1.0000   1.0000   1.0000
     1.0000   1.0000   1.0000   1.0000   1.0000   1.0000   1.0000   1.0000
     1.0000   1.0000   1.0000   0.0000   0.0000

          k = 0.0000 0.4811 0.2059 (  2904 PWs)   bands (ev):

   -77.7400 -77.7293 -41.1469 -41.1154 -40.9906 -40.9525 -40.9376 -40.9170
    13.2036  13.6757  14.4450  14.7668  16.0322  16.2830  16.9957  17.5243
    17.5676  17.6281  17.9215  20.7514  25.8608

     occupation numbers 
     1.0000   1.0000   1.0000   1.0000   1.0000   1.0000   1.0000   1.0000
     1.0000   1.0000   1.0000   1.0000   1.0000   1.0000   1.0000   1.0000
     1.0000   1.0000   1.0000   0.0000   0.0000

          k = 0.0000 0.4811-0.3089 (  2896 PWs)   bands (ev):

   -77.7347 -77.7347 -41.1401 -41.1401 -40.9551 -40.9551 -40.9347 -40.9347
    13.3870  13.3870  14.6289  14.6289  16.4912  16.4912  16.9764  16.9764
    17.5767  17.5767  19.1218  19.1218  26.6371

     occupation numbers 
     1.0000   1.0000   1.0000   1.0000   1.0000   1.0000   1.0000   1.0000
     1.0000   1.0000   1.0000   1.0000   1.0000   1.0000   1.0000   1.0000
     1.0000   1.0000   0.0000   0.0000   0.0000

          k = 0.0000-0.5774 0.0000 (  2886 PWs)   bands (ev):

   -77.7411 -77.7239 -41.1299 -41.0823 -41.0523 -40.9745 -40.9519 -40.9021
    13.6011  13.6067  13.8828  15.5645  15.7626  15.7813  16.1183  17.5913
    17.6619  17.7374  19.5174  21.4893  27.7385

     occupation numbers 
     1.0000   1.0000   1.0000   1.0000   1.0000   1.0000   1.0000   1.0000
     1.0000   1.0000   1.0000   1.0000   1.0000   1.0000   1.0000   1.0000
     1.0000   1.0000   0.0000   0.0000   0.0000

          k = 0.0000-0.5774 0.1030 (  2908 PWs)   bands (ev):

   -77.7399 -77.7250 -41.1445 -41.0983 -41.0277 -40.9697 -40.9458 -40.9070
    13.3353  13.6555  14.3211  14.9031  15.6805  16.1287  16.8307  17.4567
    17.6355  17.7298  19.3188  21.3207  26.8586

     occupation numbers 
     1.0000   1.0000   1.0000   1.0000   1.0000   1.0000   1.0000   1.0000
     1.0000   1.0000   1.0000   1.0000   1.0000   1.0000   1.0000   1.0000
     1.0000   1.0000   0.0000   0.0000   0.0000

          k = 0.0000-0.5774 0.2059 (  2902 PWs)   bands (ev):

   -77.7368 -77.7282 -41.1583 -41.1292 -40.9867 -40.9565 -40.9418 -40.9202
    13.2267  13.6329  14.4695  14.6797  16.0100  16.4232  17.0291  17.6520
    17.6817  17.7090  19.0189  20.7465  25.7922

     occupation numbers 
     1.0000   1.0000   1.0000   1.0000   1.0000   1.0000   1.0000   1.0000
     1.0000   1.0000   1.0000   1.0000   1.0000   1.0000   1.0000   1.0000
     1.0000   1.0000   0.0000   0.0000   0.0000

          k = 0.0000-0.5774-0.3089 (  2900 PWs)   bands (ev):

   -77.7325 -77.7325 -41.1529 -41.1529 -40.9550 -40.9550 -40.9384 -40.9384
    13.3723  13.3723  14.5824  14.5824  16.4947  16.4947  17.2117  17.2117
    17.6804  17.6804  19.7752  19.7752  25.3866

     occupation numbers 
     1.0000   1.0000   1.0000   1.0000   1.0000   1.0000   1.0000   1.0000
     1.0000   1.0000   1.0000   1.0000   1.0000   1.0000   1.0000   1.0000
     1.0000   1.0000   0.0000   0.0000   0.0000

          k = 0.0833 0.1443 0.0000 (  2866 PWs)   bands (ev):

   -77.7825 -77.7347 -41.1659 -40.9463 -40.9262 -40.8996 -40.8851 -40.8706
    10.1355  13.6092  15.2897  15.7474  15.8887  16.0496  16.0716  16.0981
    16.3531  16.4370  17.5092  20.3135  24.6161

     occupation numbers 
     1.0000   1.0000   1.0000   1.0000   1.0000   1.0000   1.0000   1.0000
     1.0000   1.0000   1.0000   1.0000   1.0000   1.0000   1.0000   1.0000
     1.0000   1.0000   1.0000   0.0000   0.0000

          k = 0.0833 0.1443 0.1030 (  2868 PWs)   bands (ev):

   -77.7793 -77.7379 -41.1491 -40.9417 -40.9297 -40.9143 -40.8854 -40.8740
    10.3955  13.5828  15.3149  15.4226  15.7460  15.9264  16.0582  16.2162
    16.4928  16.5460  17.4780  19.2875  26.3455

     occupation numbers 
     1.0000   1.0000   1.0000   1.0000   1.0000   1.0000   1.0000   1.0000
     1.0000   1.0000   1.0000   1.0000   1.0000   1.0000   1.0000   1.0000
     1.0000   1.0000   1.0000   0.0000   0.0000

          k = 0.0833 0.1443 0.2059 (  2892 PWs)   bands (ev):

   -77.7705 -77.7466 -41.1028 -40.9745 -40.9295 -40.9112 -40.8939 -40.8832
    11.1395  13.2257  15.0269  15.3719  15.4415  15.8529  15.9211  16.0722
    16.8210  16.8960  17.3605  18.0899  29.6615

     occupation numbers 
     1.0000   1.0000   1.0000   1.0000   1.0000   1.0000   1.0000   1.0000
     1.0000   1.0000   1.0000   1.0000   1.0000   1.0000   1.0000   1.0000
     1.0000   1.0000   1.0000   1.0000   0.0000

          k = 0.0833 0.1443-0.3089 (  2888 PWs)   bands (ev):

   -77.7586 -77.7586 -41.0391 -41.0391 -40.9138 -40.9138 -40.8949 -40.8949
    12.2228  12.2228  15.0786  15.0787  15.6272  15.6272  15.9301  15.9301
    17.1210  17.1210  17.3986  17.3986  33.5043

     occupation numbers 
     1.0000   1.0000   1.0000   1.0000   1.0000   1.0000   1.0000   1.0000
     1.0000   1.0000   1.0000   1.0000   1.0000   1.0000   1.0000   1.0000
     1.0000   1.0000   1.0000   1.0000   0.0000

          k = 0.0833 0.2406 0.0000 (  2884 PWs)   bands (ev):

   -77.7725 -77.7307 -41.1421 -40.9907 -40.9634 -40.9267 -40.8964 -40.8821
    11.0140  13.9725  15.0248  15.0598  15.7686  15.8790  16.2886  16.2994
    16.4853  16.7592  17.5534  21.8821  24.8486

     occupation numbers 
     1.0000   1.0000   1.0000   1.0000   1.0000   1.0000   1.0000   1.0000
     1.0000   1.0000   1.0000   1.0000   1.0000   1.0000   1.0000   1.0000
     1.0000   1.0000   1.0000   0.0000   0.0000

          k = 0.0833 0.2406 0.1030 (  2882 PWs)   bands (ev):

   -77.7697 -77.7335 -41.1309 -40.9842 -40.9719 -40.9312 -40.8978 -40.8856
    11.2474  14.0049  14.8533  15.0728  15.6488  15.9068  16.1065  16.4185
    16.6729  16.7406  17.5170  20.4442  26.8639

     occupation numbers 
     1.0000   1.0000   1.0000   1.0000   1.0000   1.0000   1.0000   1.0000
     1.0000   1.0000   1.0000   1.0000   1.0000   1.0000   1.0000   1.0000
     1.0000   1.0000   1.0000   0.0000   0.0000

          k = 0.0833 0.2406 0.2059 (  2891 PWs)   bands (ev):

   -77.7621 -77.7412 -41.0999 -41.0088 -40.9619 -40.9295 -40.9068 -40.8953
    11.9072  13.7385  14.6613  15.1747  15.3919  15.8056  16.0578  16.3819
    16.9104  17.0231  17.3997  18.7730  30.2621

     occupation numbers 
     1.0000   1.0000   1.0000   1.0000   1.0000   1.0000   1.0000   1.0000
     1.0000   1.0000   1.0000   1.0000   1.0000   1.0000   1.0000   1.0000
     1.0000   1.0000   1.0000   0.0000   0.0000

          k = 0.0833 0.2406-0.3089 (  2908 PWs)   bands (ev):

   -77.7516 -77.7516 -41.0556 -41.0556 -40.9383 -40.9383 -40.9074 -40.9074
    12.8482  12.8482  14.9247  14.9247  15.5261  15.5261  16.2016  16.2016
    17.1653  17.1653  17.6933  17.6933  33.8491

     occupation numbers 
     1.0000   1.0000   1.0000   1.0000   1.0000   1.0000   1.0000   1.0000
     1.0000   1.0000   1.0000   1.0000   1.0000   1.0000   1.0000   1.0000
     1.0000   1.0000   1.0000   1.0000   0.0000

          k = 0.0833 0.3368 0.0000 (  2898 PWs)   bands (ev):

   -77.7604 -77.7267 -41.1108 -41.0453 -41.0101 -40.9513 -40.9132 -40.8944
    12.1502  14.0954  14.4995  14.9534  15.6954  15.7766  16.0967  16.6946
    16.9759  17.3107  17.5905  23.6934  25.2024

     occupation numbers 
     1.0000   1.0000   1.0000   1.0000   1.0000   1.0000   1.0000   1.0000
     1.0000   1.0000   1.0000   1.0000   1.0000   1.0000   1.0000   1.0000
     1.0000   1.0000   1.0000   0.0000   0.0000

          k = 0.0833 0.3368 0.1030 (  2890 PWs)   bands (ev):

   -77.7581 -77.7289 -41.1135 -41.0337 -41.0157 -40.9512 -40.9134 -40.8977
    12.3148  14.1594  14.4078  15.0002  15.5647  15.9189  16.0764  16.7173
    17.0631  17.1770  17.5990  21.6944  27.5937

     occupation numbers 
     1.0000   1.0000   1.0000   1.0000   1.0000   1.0000   1.0000   1.0000
     1.0000   1.0000   1.0000   1.0000   1.0000   1.0000   1.0000   1.0000
     1.0000   1.0000   1.0000   0.0000   0.0000

          k = 0.0833 0.3368 0.2059 (  2896 PWs)   bands (ev):

   -77.7520 -77.7351 -41.1084 -41.0559 -40.9873 -40.9457 -40.9212 -40.9069
    12.7601  13.9207  14.5123  15.0736  15.4794  15.9440  16.1285  16.7014
    17.1329  17.2919  17.5672  19.6219  29.8479

     occupation numbers 
     1.0000   1.0000   1.0000   1.0000   1.0000   1.0000   1.0000   1.0000
     1.0000   1.0000   1.0000   1.0000   1.0000   1.0000   1.0000   1.0000
     1.0000   1.0000   1.0000   0.0000   0.0000

          k = 0.0833 0.3368-0.3089 (  2904 PWs)   bands (ev):

   -77.7435 -77.7435 -41.0875 -41.0875 -40.9545 -40.9545 -40.9208 -40.9208
    13.3534  13.3534  14.8473  14.8473  15.6937  15.6937  16.3905  16.3905
    17.3603  17.3603  18.1476  18.1476  31.0317

     occupation numbers 
     1.0000   1.0000   1.0000   1.0000   1.0000   1.0000   1.0000   1.0000
     1.0000   1.0000   1.0000   1.0000   1.0000   1.0000   1.0000   1.0000
     1.0000   1.0000   1.0000   1.0000   0.0000

          k = 0.0833 0.4330 0.0000 (  2905 PWs)   bands (ev):

   -77.7488 -77.7242 -41.0936 -41.0777 -41.0511 -40.9706 -40.9338 -40.9051
    13.1606  13.9271  14.1211  15.1730  15.5777  15.9054  15.9637  17.1910
    17.3943  17.6134  18.0906  24.5282  25.6638

     occupation numbers 
     1.0000   1.0000   1.0000   1.0000   1.0000   1.0000   1.0000   1.0000
     1.0000   1.0000   1.0000   1.0000   1.0000   1.0000   1.0000   1.0000
     1.0000   1.0000   1.0000   0.0000   0.0000

          k = 0.0833 0.4330 0.1030 (  2898 PWs)   bands (ev):

   -77.7472 -77.7259 -41.1184 -41.0700 -41.0363 -40.9676 -40.9313 -40.9081
    13.1589  13.9507  14.2660  14.9409  15.6554  15.9791  16.2458  17.1400
    17.4369  17.4537  18.0909  22.7639  26.2550

     occupation numbers 
     1.0000   1.0000   1.0000   1.0000   1.0000   1.0000   1.0000   1.0000
     1.0000   1.0000   1.0000   1.0000   1.0000   1.0000   1.0000   1.0000
     1.0000   1.0000   1.0000   0.0000   0.0000

          k = 0.0833 0.4330 0.2059 (  2892 PWs)   bands (ev):

   -77.7427 -77.7304 -41.1313 -41.0980 -40.9943 -40.9568 -40.9355 -40.9158
    13.2474  13.8212  14.4493  14.9159  15.7619  16.1786  16.6218  16.8868
    17.3109  17.6093  18.1578  20.6369  26.9582

     occupation numbers 
     1.0000   1.0000   1.0000   1.0000   1.0000   1.0000   1.0000   1.0000
     1.0000   1.0000   1.0000   1.0000   1.0000   1.0000   1.0000   1.0000
     1.0000   1.0000   1.0000   0.0000   0.0000

          k = 0.0833 0.4330-0.3089 (  2894 PWs)   bands (ev):

   -77.7365 -77.7365 -41.1230 -41.1230 -40.9627 -40.9627 -40.9302 -40.9302
    13.4921  13.4921  14.7346  14.7346  16.1914  16.1914  16.5682  16.5682
    17.5609  17.5609  18.9845  18.9845  27.9956

     occupation numbers 
     1.0000   1.0000   1.0000   1.0000   1.0000   1.0000   1.0000   1.0000
     1.0000   1.0000   1.0000   1.0000   1.0000   1.0000   1.0000   1.0000
     1.0000   1.0000   0.0000   0.0000   0.0000

          k = 0.0833 0.5292 0.0000 (  2910 PWs)   bands (ev):

   -77.7411 -77.7239 -41.1217 -41.0749 -41.0525 -40.9813 -40.9517 -40.9112
    13.6211  13.7661  13.9320  15.5274  15.5329  15.7767  16.1157  17.5474
    17.6188  17.6235  19.3476  22.2493  27.5467

     occupation numbers 
     1.0000   1.0000   1.0000   1.0000   1.0000   1.0000   1.0000   1.0000
     1.0000   1.0000   1.0000   1.0000   1.0000   1.0000   1.0000   1.0000
     1.0000   1.0000   0.0000   0.0000   0.0000

          k = 0.0833 0.5292 0.1030 (  2897 PWs)   bands (ev):

   -77.7400 -77.7250 -41.1365 -41.0913 -41.0289 -40.9753 -40.9468 -40.9144
    13.4132  13.7832  14.3507  14.8855  15.5836  16.1676  16.5023  17.4053
    17.5736  17.6493  19.2854  21.9993  26.2694

     occupation numbers 
     1.0000   1.0000   1.0000   1.0000   1.0000   1.0000   1.0000   1.0000
     1.0000   1.0000   1.0000   1.0000   1.0000   1.0000   1.0000   1.0000
     1.0000   1.0000   0.0000   0.0000   0.0000

          k = 0.0833 0.5292 0.2059 (  2899 PWs)   bands (ev):

   -77.7368 -77.7282 -41.1504 -41.1220 -40.9937 -40.9581 -40.9476 -40.9211
    13.3275  13.7563  14.4769  14.7834  15.7540  16.4788  16.8807  17.1295
    17.5334  17.7212  19.3362  21.1679  25.5310

     occupation numbers 
     1.0000   1.0000   1.0000   1.0000   1.0000   1.0000   1.0000   1.0000
     1.0000   1.0000   1.0000   1.0000   1.0000   1.0000   1.0000   1.0000
     1.0000   1.0000   0.0000   0.0000   0.0000

          k = 0.0833 0.5292-0.3089 (  2898 PWs)   bands (ev):

   -77.7325 -77.7325 -41.1454 -41.1454 -40.9669 -40.9669 -40.9341 -40.9341
    13.4827  13.4827  14.6525  14.6525  16.2892  16.2892  16.9926  16.9926
    17.6011  17.6011  20.0649  20.0649  25.8033

     occupation numbers 
     1.0000   1.0000   1.0000   1.0000   1.0000   1.0000   1.0000   1.0000
     1.0000   1.0000   1.0000   1.0000   1.0000   1.0000   1.0000   1.0000
     1.0000   1.0000   0.0000   0.0000   0.0000

          k = 0.1667 0.2887 0.0000 (  2894 PWs)   bands (ev):

   -77.7621 -77.7272 -41.1154 -41.0231 -41.0142 -40.9434 -40.9106 -40.9020
    12.0045  14.2666  14.6106  14.7383  15.6259  15.7770  16.1894  16.4625
    16.9637  17.3318  17.5528  23.4377  25.2395

     occupation numbers 
     1.0000   1.0000   1.0000   1.0000   1.0000   1.0000   1.0000   1.0000
     1.0000   1.0000   1.0000   1.0000   1.0000   1.0000   1.0000   1.0000
     1.0000   1.0000   1.0000   0.0000   0.0000

          k = 0.1667 0.2887 0.1030 (  2904 PWs)   bands (ev):

   -77.7597 -77.7295 -41.1138 -41.0215 -41.0094 -40.9514 -40.9070 -40.9058
    12.1903  14.3602  14.4711  14.7898  15.5965  15.7870  16.0719  16.5431
    17.0782  17.1676  17.6118  21.5568  27.5889

     occupation numbers 
     1.0000   1.0000   1.0000   1.0000   1.0000   1.0000   1.0000   1.0000
     1.0000   1.0000   1.0000   1.0000   1.0000   1.0000   1.0000   1.0000
     1.0000   1.0000   1.0000   0.0000   0.0000

          k = 0.1667 0.2887 0.2059 (  2896 PWs)   bands (ev):

   -77.7533 -77.7359 -41.1030 -41.0465 -40.9795 -40.9545 -40.9151 -40.9105
    12.6993  14.0381  14.6148  14.9384  15.4259  15.6544  16.0695  16.6408
    17.1430  17.2732  17.6418  19.5448  30.9276

     occupation numbers 
     1.0000   1.0000   1.0000   1.0000   1.0000   1.0000   1.0000   1.0000
     1.0000   1.0000   1.0000   1.0000   1.0000   1.0000   1.0000   1.0000
     1.0000   1.0000   1.0000   0.0000   0.0000

          k = 0.1667 0.2887-0.3089 (  2908 PWs)   bands (ev):

   -77.7446 -77.7446 -41.0786 -41.0786 -40.9558 -40.9558 -40.9201 -40.9201
    13.3855  13.3855  14.9299  14.9299  15.3772  15.3772  16.3412  16.3412
    17.4088  17.4088  18.1272  18.1272  32.7521

     occupation numbers 
     1.0000   1.0000   1.0000   1.0000   1.0000   1.0000   1.0000   1.0000
     1.0000   1.0000   1.0000   1.0000   1.0000   1.0000   1.0000   1.0000
     1.0000   1.0000   1.0000   1.0000   0.0000

          k = 0.1667 0.3849 0.0000 (  2904 PWs)   bands (ev):

   -77.7507 -77.7245 -41.0835 -41.0660 -41.0456 -40.9695 -40.9298 -40.9211
    13.0947  14.2559  14.2592  14.7091  15.4729  15.9164  16.0010  16.7652
    17.3938  17.5487  18.1164  25.2719  25.6254

     occupation numbers 
     1.0000   1.0000   1.0000   1.0000   1.0000   1.0000   1.0000   1.0000
     1.0000   1.0000   1.0000   1.0000   1.0000   1.0000   1.0000   1.0000
     1.0000   1.0000   1.0000   0.0000   0.0000

          k = 0.1667 0.3849 0.1030 (  2902 PWs)   bands (ev):

   -77.7490 -77.7263 -41.1040 -41.0626 -41.0255 -40.9761 -40.9287 -40.9186
    13.1752  14.1915  14.3545  14.7887  15.5259  15.8972  15.9589  16.7973
    17.3400  17.4797  18.2013  22.8378  27.6944

     occupation numbers 
     1.0000   1.0000   1.0000   1.0000   1.0000   1.0000   1.0000   1.0000
     1.0000   1.0000   1.0000   1.0000   1.0000   1.0000   1.0000   1.0000
     1.0000   1.0000   1.0000   0.0000   0.0000

          k = 0.1667 0.3849 0.2059 (  2891 PWs)   bands (ev):

   -77.7442 -77.7311 -41.1148 -41.0834 -40.9913 -40.9743 -40.9351 -40.9166
    13.3930  13.9929  14.5950  15.0152  15.4493  15.7368  16.0914  16.7625
    17.2483  17.6261  18.3817  20.6503  28.6536

     occupation numbers 
     1.0000   1.0000   1.0000   1.0000   1.0000   1.0000   1.0000   1.0000
     1.0000   1.0000   1.0000   1.0000   1.0000   1.0000   1.0000   1.0000
     1.0000   1.0000   0.0000   0.0000   0.0000

          k = 0.1667 0.3849-0.3089 (  2892 PWs)   bands (ev):

   -77.7376 -77.7376 -41.1060 -41.1060 -40.9737 -40.9737 -40.9280 -40.9280
    13.6922  13.6922  14.9280  14.9280  15.5270  15.5270  16.3579  16.3579
    17.6130  17.6130  19.0709  19.0709  29.7989

     occupation numbers 
     1.0000   1.0000   1.0000   1.0000   1.0000   1.0000   1.0000   1.0000
     1.0000   1.0000   1.0000   1.0000   1.0000   1.0000   1.0000   1.0000
     1.0000   1.0000   0.0000   0.0000   0.0000

          k = 0.1667 0.4811 0.0000 (  2905 PWs)   bands (ev):

   -77.7412 -77.7238 -41.1004 -41.0610 -41.0528 -40.9940 -40.9513 -40.9342
    13.7924  14.0427  14.0607  15.0078  15.4317  15.7953  16.1129  17.1664
    17.5447  17.6057  19.2719  23.8942  27.2618

     occupation numbers 
     1.0000   1.0000   1.0000   1.0000   1.0000   1.0000   1.0000   1.0000
     1.0000   1.0000   1.0000   1.0000   1.0000   1.0000   1.0000   1.0000
     1.0000   1.0000   0.0000   0.0000   0.0000

          k = 0.1667 0.4811 0.1030 (  2904 PWs)   bands (ev):

   -77.7400 -77.7250 -41.1156 -41.0801 -41.0281 -40.9901 -40.9499 -40.9298
    13.6446  14.1218  14.2955  14.8302  15.4826  15.9295  16.1811  17.1504
    17.3555  17.6658  19.3543  23.3562  26.0681

     occupation numbers 
     1.0000   1.0000   1.0000   1.0000   1.0000   1.0000   1.0000   1.0000
     1.0000   1.0000   1.0000   1.0000   1.0000   1.0000   1.0000   1.0000
     1.0000   1.0000   0.0000   0.0000   0.0000

          k = 0.1667 0.4811 0.2059 (  2903 PWs)   bands (ev):

   -77.7368 -77.7282 -41.1308 -41.1069 -41.0076 -40.9759 -40.9494 -40.9228
    13.6076  14.0403  14.4929  15.0243  15.3803  16.0531  16.3944  16.8473
    17.3338  17.7398  19.6648  21.8564  26.1396

     occupation numbers 
     1.0000   1.0000   1.0000   1.0000   1.0000   1.0000   1.0000   1.0000
     1.0000   1.0000   1.0000   1.0000   1.0000   1.0000   1.0000   1.0000
     1.0000   1.0000   0.0000   0.0000   0.0000

          k = 0.1667 0.4811-0.3089 (  2894 PWs)   bands (ev):

   -77.7325 -77.7325 -41.1276 -41.1276 -40.9885 -40.9885 -40.9305 -40.9305
    13.7623  13.7623  14.8299  14.8299  15.7815  15.7815  16.5434  16.5434
    17.6182  17.6182  20.4657  20.4657  27.0145

     occupation numbers 
     1.0000   1.0000   1.0000   1.0000   1.0000   1.0000   1.0000   1.0000
     1.0000   1.0000   1.0000   1.0000   1.0000   1.0000   1.0000   1.0000
     1.0000   1.0000   0.0000   0.0000   0.0000

          k = 0.1667 0.5774 0.0000 (  2908 PWs)   bands (ev):

   -77.7369 -77.7243 -41.1128 -41.0657 -41.0372 -41.0042 -40.9635 -40.9388
    13.9660  13.9664  13.9701  15.2230  15.4511  15.6861  16.1970  17.4386
    17.5430  17.5820  20.5257  22.0603  28.4373

     occupation numbers 
     1.0000   1.0000   1.0000   1.0000   1.0000   1.0000   1.0000   1.0000
     1.0000   1.0000   1.0000   1.0000   1.0000   1.0000   1.0000   1.0000
     1.0000   1.0000   0.0000   0.0000   0.0000

          k = 0.1667 0.5774 0.1030 (  2904 PWs)   bands (ev):

   -77.7361 -77.7252 -41.1247 -41.0831 -41.0306 -40.9864 -40.9628 -40.9344
    13.6723  14.0392  14.4583  14.8102  15.4063  16.0485  16.2700  17.3273
    17.4350  17.6329  20.6253  22.0150  27.3648

     occupation numbers 
     1.0000   1.0000   1.0000   1.0000   1.0000   1.0000   1.0000   1.0000
     1.0000   1.0000   1.0000   1.0000   1.0000   1.0000   1.0000   1.0000
     1.0000   1.0000   0.0000   0.0000   0.0000

          k = 0.1667 0.5774 0.2059 (  2909 PWs)   bands (ev):

   -77.7338 -77.7275 -41.1385 -41.1142 -41.0149 -40.9744 -40.9541 -40.9258
    13.6071  14.0539  14.5285  14.9820  15.2985  16.2496  16.5135  16.9161
    17.4501  17.6707  20.9323  21.8295  26.0881

     occupation numbers 
     1.0000   1.0000   1.0000   1.0000   1.0000   1.0000   1.0000   1.0000
     1.0000   1.0000   1.0000   1.0000   1.0000   1.0000   1.0000   1.0000
     1.0000   1.0000   0.0000   0.0000   0.0000

          k = 0.1667 0.5774-0.3089 (  2906 PWs)   bands (ev):

   -77.7306 -77.7306 -41.1357 -41.1357 -40.9943 -40.9943 -40.9309 -40.9309
    13.7662  13.7662  14.7906  14.7906  15.8192  15.8192  16.7440  16.7440
    17.5582  17.5582  21.4178  21.4178  25.5956

     occupation numbers 
     1.0000   1.0000   1.0000   1.0000   1.0000   1.0000   1.0000   1.0000
     1.0000   1.0000   1.0000   1.0000   1.0000   1.0000   1.0000   1.0000
     1.0000   1.0000   0.0000   0.0000   0.0000

          k = 0.2500 0.4330 0.0000 (  2904 PWs)   bands (ev):

   -77.7412 -77.7238 -41.0817 -41.0620 -41.0530 -40.9948 -40.9513 -40.9512
    13.9183  14.1064  14.4463  14.4953  15.3658  15.8128  16.1208  16.9407
    17.5042  17.6106  19.2794  25.6384  26.3963

     occupation numbers 
     1.0000   1.0000   1.0000   1.0000   1.0000   1.0000   1.0000   1.0000
     1.0000   1.0000   1.0000   1.0000   1.0000   1.0000   1.0000   1.0000
     1.0000   1.0000   0.0000   0.0000   0.0000

          k = 0.2500 0.4330 0.1030 (  2906 PWs)   bands (ev):

   -77.7400 -77.7250 -41.0952 -41.0858 -41.0145 -41.0080 -40.9539 -40.9363
    13.9245  14.0590  14.5068  14.6227  15.5148  15.6720  16.1137  16.9746
    17.3039  17.6732  19.4026  24.1299  26.6763

     occupation numbers 
     1.0000   1.0000   1.0000   1.0000   1.0000   1.0000   1.0000   1.0000
     1.0000   1.0000   1.0000   1.0000   1.0000   1.0000   1.0000   1.0000
     1.0000   1.0000   0.0000   0.0000   0.0000

          k = 0.2500 0.4330 0.2059 (  2899 PWs)   bands (ev):

   -77.7368 -77.7281 -41.1162 -41.1013 -41.0123 -40.9913 -40.9490 -40.9236
    13.9302  14.0052  14.6676  14.9984  15.3563  15.6267  16.1448  16.7621
    17.3031  17.7469  19.7756  22.1259  27.4513

     occupation numbers 
     1.0000   1.0000   1.0000   1.0000   1.0000   1.0000   1.0000   1.0000
     1.0000   1.0000   1.0000   1.0000   1.0000   1.0000   1.0000   1.0000
     1.0000   1.0000   0.0000   0.0000   0.0000

          k = 0.2500 0.4330-0.3089 (  2892 PWs)   bands (ev):

   -77.7325 -77.7325 -41.1166 -41.1166 -41.0007 -41.0007 -40.9294 -40.9294
    13.9587  13.9587  14.9785  14.9785  15.4168  15.4168  16.3466  16.3466
    17.6371  17.6371  20.6161  20.6161  28.4680

     occupation numbers 
     1.0000   1.0000   1.0000   1.0000   1.0000   1.0000   1.0000   1.0000
     1.0000   1.0000   1.0000   1.0000   1.0000   1.0000   1.0000   1.0000
     1.0000   1.0000   0.0000   0.0000   0.0000

          k = 0.2500 0.5292 0.0000 (  2910 PWs)   bands (ev):

   -77.7340 -77.7251 -41.0938 -41.0536 -41.0256 -41.0224 -40.9732 -40.9705
    14.0354  14.2130  14.3143  14.7979  15.3836  15.6170  16.2845  17.2109
    17.4780  17.5529  20.9163  23.4443  25.7511

     occupation numbers 
     1.0000   1.0000   1.0000   1.0000   1.0000   1.0000   1.0000   1.0000
     1.0000   1.0000   1.0000   1.0000   1.0000   1.0000   1.0000   1.0000
     1.0000   1.0000   0.0000   0.0000   0.0000

          k = 0.2500 0.5292 0.1030 (  2914 PWs)   bands (ev):

   -77.7334 -77.7257 -41.1005 -41.0763 -41.0410 -40.9948 -40.9757 -40.9508
    13.9779  14.3397  14.4343  14.6969  15.4119  15.6211  16.2902  17.2153
    17.2820  17.5959  21.1015  23.4678  25.7938

     occupation numbers 
     1.0000   1.0000   1.0000   1.0000   1.0000   1.0000   1.0000   1.0000
     1.0000   1.0000   1.0000   1.0000   1.0000   1.0000   1.0000   1.0000
     1.0000   1.0000   0.0000   0.0000   0.0000

          k = 0.2500 0.5292 0.2059 (  2913 PWs)   bands (ev):

   -77.7318 -77.7273 -41.1165 -41.1027 -41.0393 -41.0010 -40.9488 -40.9304
    13.9939  14.3378  14.5938  14.8783  15.2832  15.6421  16.3345  16.7890
    17.3714  17.6356  21.5943  23.1884  25.7150

     occupation numbers 
     1.0000   1.0000   1.0000   1.0000   1.0000   1.0000   1.0000   1.0000
     1.0000   1.0000   1.0000   1.0000   1.0000   1.0000   1.0000   1.0000
     1.0000   1.0000   0.0000   0.0000   0.0000

          k = 0.2500 0.5292-0.3089 (  2898 PWs)   bands (ev):

   -77.7295 -77.7295 -41.1191 -41.1191 -41.0212 -41.0212 -40.9290 -40.9290
    14.1277  14.1277  14.8770  14.8770  15.4228  15.4228  16.4593  16.4593
    17.5497  17.5497  22.3578  22.3578  26.2508

     occupation numbers 
     1.0000   1.0000   1.0000   1.0000   1.0000   1.0000   1.0000   1.0000
     1.0000   1.0000   1.0000   1.0000   1.0000   1.0000   1.0000   1.0000
     1.0000   1.0000   0.0000   0.0000   0.0000

          k = 0.3333 0.5774 0.0000 (  2898 PWs)   bands (ev):

   -77.7285 -77.7285 -41.0852 -41.0403 -41.0403 -40.9984 -40.9984 -40.9931
    14.0439  14.4060  14.4060  14.6871  15.4539  15.4539  16.3809  17.3536
    17.3536  17.4514  22.6478  23.4377  23.4377

     occupation numbers 
     1.0000   1.0000   1.0000   1.0000   1.0000   1.0000   1.0000   1.0000
     1.0000   1.0000   1.0000   1.0000   1.0000   1.0000   1.0000   1.0000
     1.0000   1.0000   0.0000   0.0000   0.0000

          k = 0.3333 0.5774 0.1030 (  2916 PWs)   bands (ev):

   -77.7285 -77.7285 -41.0791 -41.0682 -41.0682 -40.9993 -40.9704 -40.9704
    14.1363  14.4275  14.4275  14.7058  15.4305  15.4305  16.3536  17.2241
    17.3929  17.3929  23.0409  23.5140  23.5140

     occupation numbers 
     1.0000   1.0000   1.0000   1.0000   1.0000   1.0000   1.0000   1.0000
     1.0000   1.0000   1.0000   1.0000   1.0000   1.0000   1.0000   1.0000
     1.0000   1.0000   0.0000   0.0000   0.0000

          k = 0.3333 0.5774 0.2059 (  2895 PWs)   bands (ev):

   -77.7284 -77.7284 -41.0986 -41.0986 -41.0623 -41.0162 -40.9398 -40.9398
    14.3727  14.4685  14.4685  14.7198  15.3902  15.3902  16.3171  16.7590
    17.4677  17.4677  23.7044  23.7044  24.0497

     occupation numbers 
     1.0000   1.0000   1.0000   1.0000   1.0000   1.0000   1.0000   1.0000
     1.0000   1.0000   1.0000   1.0000   1.0000   1.0000   1.0000   1.0000
     1.0000   1.0000   0.0000   0.0000   0.0000

          k = 0.3333 0.5774-0.3089 (  2910 PWs)   bands (ev):

   -77.7284 -77.7284 -41.1100 -41.1100 -41.0393 -41.0393 -40.9283 -40.9283
    14.4879  14.4879  14.6183  14.6183  15.3734  15.3734  16.4099  16.4099
    17.5034  17.5034  23.8281  23.8281  25.4418

     occupation numbers 
     1.0000   1.0000   1.0000   1.0000   1.0000   1.0000   1.0000   1.0000
     1.0000   1.0000   1.0000   1.0000   1.0000   1.0000   1.0000   1.0000
     1.0000   1.0000   0.0000   0.0000   0.0000

 ------ SPIN DOWN ----------


          k = 0.0000 0.0000 0.0000 (  2875 PWs)   bands (ev):

   -75.6450 -75.5883 -39.1061 -38.8190 -38.8190 -38.7705 -38.7705 -38.7684
     9.4311  14.1913  17.4048  17.4445  17.4445  17.8051  17.8051  18.0411
    18.2287  18.2287  19.4315  19.4315  25.5521

     occupation numbers 
     1.0000   1.0000   1.0000   1.0000   1.0000   1.0000   1.0000   1.0000
     1.0000   1.0000   1.0000   1.0000   1.0000   1.0000   1.0000   1.0000
     1.0000   1.0000   0.0000   0.0000   0.0000

          k = 0.0000 0.0000 0.1030 (  2887 PWs)   bands (ev):

   -75.6412 -75.5921 -39.0838 -38.8157 -38.8157 -38.7914 -38.7737 -38.7737
     9.7062  13.9506  17.3137  17.3788  17.3788  17.4672  17.7226  17.7226
    18.4037  18.4037  19.4158  19.4158  26.8611

     occupation numbers 
     1.0000   1.0000   1.0000   1.0000   1.0000   1.0000   1.0000   1.0000
     1.0000   1.0000   1.0000   1.0000   1.0000   1.0000   1.0000   1.0000
     0.0000   0.0000   0.0000   0.0000   0.0000

          k = 0.0000 0.0000 0.2059 (  2882 PWs)   bands (ev):

   -75.6308 -75.6025 -39.0227 -38.8538 -38.8069 -38.8069 -38.7826 -38.7826
    10.5026  13.0500  16.8564  17.0822  17.3227  17.3227  17.5415  17.5415
    18.7564  18.7564  19.3226  19.3226  29.8199

     occupation numbers 
     1.0000   1.0000   1.0000   1.0000   1.0000   1.0000   1.0000   1.0000
     1.0000   1.0000   1.0000   1.0000   1.0000   1.0000   1.0000   1.0000
     0.0000   0.0000   0.0000   0.0000   0.0000

          k = 0.0000 0.0000-0.3089 (  2858 PWs)   bands (ev):

   -75.6167 -75.6167 -38.9386 -38.9386 -38.7947 -38.7947 -38.7947 -38.7947
    11.7120  11.7120  16.8418  16.8418  17.3812  17.3812  17.3812  17.3812
    19.0959  19.0959  19.0959  19.0959  33.4546

     occupation numbers 
     1.0000   1.0000   1.0000   1.0000   1.0000   1.0000   1.0000   1.0000
     1.0000   1.0000   1.0000   1.0000   1.0000   1.0000   1.0000   1.0000
     0.0000   0.0000   0.0000   0.0000   0.0000

          k = 0.0000 0.0962 0.0000 (  2865 PWs)   bands (ev):

   -75.6418 -75.5869 -39.0988 -38.8351 -38.8242 -38.7872 -38.7731 -38.7714
     9.6712  14.3554  17.1598  17.4447  17.5676  17.6330  17.7416  17.9141
    18.1469  18.1586  19.4667  20.2464  25.5691

     occupation numbers 
     1.0000   1.0000   1.0000   1.0000   1.0000   1.0000   1.0000   1.0000
     1.0000   1.0000   1.0000   1.0000   1.0000   1.0000   1.0000   1.0000
     1.0000   1.0000   0.0000   0.0000   0.0000

          k = 0.0000 0.0962 0.1030 (  2881 PWs)   bands (ev):

   -75.6381 -75.5905 -39.0778 -38.8313 -38.8208 -38.8045 -38.7795 -38.7766
     9.9428  14.1278  17.0258  17.1576  17.4389  17.4855  17.7534  17.8240
    18.3507  18.3666  19.4422  19.9089  26.9442

     occupation numbers 
     1.0000   1.0000   1.0000   1.0000   1.0000   1.0000   1.0000   1.0000
     1.0000   1.0000   1.0000   1.0000   1.0000   1.0000   1.0000   1.0000
     0.0001   0.0000   0.0000   0.0000   0.0000

          k = 0.0000 0.0962 0.2059 (  2878 PWs)   bands (ev):

   -75.6281 -75.6006 -39.0202 -38.8616 -38.8207 -38.8115 -38.7918 -38.7859
    10.7286  13.2435  16.6413  17.0709  17.2179  17.4210  17.5658  17.6414
    18.7252  18.7601  19.3291  19.5103  29.9568

     occupation numbers 
     1.0000   1.0000   1.0000   1.0000   1.0000   1.0000   1.0000   1.0000
     1.0000   1.0000   1.0000   1.0000   1.0000   1.0000   1.0000   1.0000
     0.0000   0.0000   0.0000   0.0000   0.0000

          k = 0.0000 0.0962-0.3089 (  2880 PWs)   bands (ev):

   -75.6144 -75.6144 -38.9410 -38.9410 -38.8064 -38.8064 -38.7987 -38.7987
    11.9219  11.9219  16.7487  16.7487  17.3468  17.3468  17.4799  17.4799
    19.0820  19.0820  19.1575  19.1575  33.6147

     occupation numbers 
     1.0000   1.0000   1.0000   1.0000   1.0000   1.0000   1.0000   1.0000
     1.0000   1.0000   1.0000   1.0000   1.0000   1.0000   1.0000   1.0000
     0.0000   0.0000   0.0000   0.0000   0.0000

          k = 0.0000 0.1925 0.0000 (  2878 PWs)   bands (ev):

   -75.6329 -75.5830 -39.0778 -38.8794 -38.8383 -38.8325 -38.7807 -38.7806
    10.3706  14.7783  16.6336  16.8120  17.5162  17.9172  17.9464  17.9573
    17.9944  18.2205  19.5407  21.6789  25.6378

     occupation numbers 
     1.0000   1.0000   1.0000   1.0000   1.0000   1.0000   1.0000   1.0000
     1.0000   1.0000   1.0000   1.0000   1.0000   1.0000   1.0000   1.0000
     1.0000   1.0000   0.0000   0.0000   0.0000

          k = 0.0000 0.1925 0.1030 (  2883 PWs)   bands (ev):

   -75.6296 -75.5864 -39.0611 -38.8737 -38.8471 -38.8344 -38.7888 -38.7846
    10.6296  14.5940  16.3839  16.8508  17.4068  17.6941  17.7265  18.0842
    18.3132  18.3684  19.4966  20.8997  27.2236

     occupation numbers 
     1.0000   1.0000   1.0000   1.0000   1.0000   1.0000   1.0000   1.0000
     1.0000   1.0000   1.0000   1.0000   1.0000   1.0000   1.0000   1.0000
     0.5990   0.0000   0.0000   0.0000   0.0000

          k = 0.0000 0.1925 0.2059 (  2892 PWs)   bands (ev):

   -75.6204 -75.5955 -39.0155 -38.8921 -38.8555 -38.8239 -38.8085 -38.7951
    11.3777  13.7650  16.2665  16.9362  17.0479  17.5089  17.6646  17.9188
    18.6867  18.8146  19.3416  19.9680  30.3693

     occupation numbers 
     1.0000   1.0000   1.0000   1.0000   1.0000   1.0000   1.0000   1.0000
     1.0000   1.0000   1.0000   1.0000   1.0000   1.0000   1.0000   1.0000
     0.0000   0.0000   0.0000   0.0000   0.0000

          k = 0.0000 0.1925-0.3089 (  2892 PWs)   bands (ev):

   -75.6080 -75.6080 -38.9533 -38.9533 -38.8328 -38.8328 -38.8095 -38.8095
    12.5101  12.5101  16.5522  16.5522  17.2337  17.2337  17.7446  17.7446
    19.0591  19.0591  19.3308  19.3308  34.0538

     occupation numbers 
     1.0000   1.0000   1.0000   1.0000   1.0000   1.0000   1.0000   1.0000
     1.0000   1.0000   1.0000   1.0000   1.0000   1.0000   1.0000   1.0000
     0.0000   0.0000   0.0000   0.0000   0.0000

          k = 0.0000 0.2887 0.0000 (  2882 PWs)   bands (ev):

   -75.6203 -75.5782 -39.0464 -38.9404 -38.8934 -38.8570 -38.7958 -38.7915
    11.4564  15.1986  15.9826  16.4990  17.3589  17.7069  17.7749  18.3913
    18.4306  18.6630  19.6096  23.3420  25.7839

     occupation numbers 
     1.0000   1.0000   1.0000   1.0000   1.0000   1.0000   1.0000   1.0000
     1.0000   1.0000   1.0000   1.0000   1.0000   1.0000   1.0000   0.0000
     0.0000   0.0000   0.0000   0.0000   0.0000

          k = 0.0000 0.2887 0.1030 (  2890 PWs)   bands (ev):

   -75.6175 -75.5810 -39.0401 -38.9290 -38.9057 -38.8526 -38.8013 -38.7959
    11.6867  15.0847  15.8602  16.5597  17.2242  17.7057  17.7414  18.4748
    18.5568  18.6247  19.5466  21.9941  27.7505

     occupation numbers 
     1.0000   1.0000   1.0000   1.0000   1.0000   1.0000   1.0000   1.0000
     1.0000   1.0000   1.0000   1.0000   1.0000   1.0000   1.0000   0.0000
     0.0000   0.0000   0.0000   0.0000   0.0000

          k = 0.0000 0.2887 0.2059 (  2896 PWs)   bands (ev):

   -75.6098 -75.5887 -39.0198 -38.9456 -38.8911 -38.8407 -38.8202 -38.8079
    12.3454  14.3799  15.9816  16.6452  17.0011  17.4920  17.8598  18.3161
    18.8030  18.9541  19.3643  20.5294  30.9461

     occupation numbers 
     1.0000   1.0000   1.0000   1.0000   1.0000   1.0000   1.0000   1.0000
     1.0000   1.0000   1.0000   1.0000   1.0000   1.0000   1.0000   0.4782
     0.0000   0.0000   0.0000   0.0000   0.0000

          k = 0.0000 0.2887-0.3089 (  2904 PWs)   bands (ev):

   -75.5993 -75.5993 -38.9858 -38.9858 -38.8527 -38.8527 -38.8243 -38.8243
    13.3213  13.3213  16.3550  16.3550  17.1752  17.1752  18.0664  18.0664
    19.0942  19.0942  19.5717  19.5717  32.9815

     occupation numbers 
     1.0000   1.0000   1.0000   1.0000   1.0000   1.0000   1.0000   1.0000
     1.0000   1.0000   1.0000   1.0000   1.0000   1.0000   1.0000   1.0000
     0.0000   0.0000   0.0000   0.0000   0.0000

          k = 0.0000 0.3849 0.0000 (  2892 PWs)   bands (ev):

   -75.6068 -75.5743 -39.0096 -39.0020 -38.9530 -38.8752 -38.8164 -38.8028
    12.7630  15.2434  15.5246  16.3699  17.4488  17.4923  17.5588  18.9882
    19.0320  19.1458  19.6559  25.1629  25.6995

     occupation numbers 
[...]
    19.5762  19.6424  20.7333  23.1946  28.0599

     occupation numbers 
     1.0000   1.0000   1.0000   1.0000   1.0000   1.0000   1.0000   1.0000
     1.0000   1.0000   1.0000   1.0000   1.0000   1.0000   1.0000   0.0000
     0.0000   0.0000   0.0000   0.0000   0.0000

          k = 0.0833 0.5292 0.1030 (  2897 PWs)   bands (ev):

   -75.5899 -75.5738 -39.0684 -39.0197 -38.9378 -38.8931 -38.8476 -38.8261
    14.3699  14.9993  15.5337  16.0495  17.2724  17.7578  17.8073  19.3719
    19.5271  19.6159  20.6004  22.8674  26.9982

     occupation numbers 
     1.0000   1.0000   1.0000   1.0000   1.0000   1.0000   1.0000   1.0000
     1.0000   1.0000   1.0000   1.0000   1.0000   1.0000   1.0000   0.0000
     0.0000   0.0000   0.0000   0.0000   0.0000

          k = 0.0833 0.5292 0.2059 (  2899 PWs)   bands (ev):

   -75.5865 -75.5772 -39.0819 -39.0516 -38.9041 -38.8705 -38.8556 -38.8287
    14.3585  14.8352  15.8312  16.1408  17.3177  18.0630  18.2550  18.9172
    19.4781  19.7042  20.3898  21.9522  26.4476

     occupation numbers 
     1.0000   1.0000   1.0000   1.0000   1.0000   1.0000   1.0000   1.0000
     1.0000   1.0000   1.0000   1.0000   1.0000   1.0000   1.0000   0.0000
     0.0000   0.0000   0.0000   0.0000   0.0000

          k = 0.0833 0.5292-0.3089 (  2898 PWs)   bands (ev):

   -75.5818 -75.5818 -39.0763 -39.0763 -38.8778 -38.8778 -38.8421 -38.8421
    14.5371  14.5371  16.0953  16.0953  17.8050  17.8050  18.5649  18.5649
    19.5592  19.5592  20.9159  20.9159  26.7008

     occupation numbers 
     1.0000   1.0000   1.0000   1.0000   1.0000   1.0000   1.0000   1.0000
     1.0000   1.0000   1.0000   1.0000   1.0000   1.0000   0.0000   0.0000
     0.0000   0.0000   0.0000   0.0000   0.0000

          k = 0.1667 0.2887 0.0000 (  2894 PWs)   bands (ev):

   -75.6137 -75.5761 -39.0290 -38.9465 -38.9375 -38.8594 -38.8144 -38.8051
    12.0755  15.4862  15.8138  16.1738  17.3280  17.3920  17.8905  18.2687
    18.8072  19.1581  19.5604  24.2256  26.0068

     occupation numbers 
     1.0000   1.0000   1.0000   1.0000   1.0000   1.0000   1.0000   1.0000
     1.0000   1.0000   1.0000   1.0000   1.0000   1.0000   1.0000   1.0000
     0.0000   0.0000   0.0000   0.0000   0.0000

          k = 0.1667 0.2887 0.1030 (  2904 PWs)   bands (ev):

   -75.6112 -75.5786 -39.0298 -38.9442 -38.9291 -38.8655 -38.8185 -38.8050
    12.2878  15.4080  15.7209  16.2388  17.2405  17.4192  17.7819  18.3531
    18.9334  19.0398  19.5665  22.5894  28.1899

     occupation numbers 
     1.0000   1.0000   1.0000   1.0000   1.0000   1.0000   1.0000   1.0000
     1.0000   1.0000   1.0000   1.0000   1.0000   1.0000   1.0000   0.0000
     0.0000   0.0000   0.0000   0.0000   0.0000

          k = 0.1667 0.2887 0.2059 (  2896 PWs)   bands (ev):

   -75.6043 -75.5855 -39.0220 -38.9677 -38.8927 -38.8677 -38.8284 -38.8138
    12.8906  14.7174  15.9684  16.4043  16.9864  17.2559  17.8357  18.4236
    19.0425  19.1563  19.5173  20.8971  31.4136

     occupation numbers 
     1.0000   1.0000   1.0000   1.0000   1.0000   1.0000   1.0000   1.0000
     1.0000   1.0000   1.0000   1.0000   1.0000   1.0000   1.0000   0.0000
     0.0000   0.0000   0.0000   0.0000   0.0000

          k = 0.1667 0.2887-0.3089 (  2908 PWs)   bands (ev):

   -75.5949 -75.5949 -38.9990 -38.9990 -38.8665 -38.8665 -38.8308 -38.8308
    13.7709  13.7709  16.3403  16.3403  16.9463  16.9463  18.1349  18.1349
    19.3444  19.3444  19.7437  19.7437  33.1761

     occupation numbers 
     1.0000   1.0000   1.0000   1.0000   1.0000   1.0000   1.0000   1.0000
     1.0000   1.0000   1.0000   1.0000   1.0000   1.0000   1.0000   1.0000
     0.0000   0.0000   0.0000   0.0000   0.0000

          k = 0.1667 0.3849 0.0000 (  2904 PWs)   bands (ev):

   -75.6015 -75.5732 -38.9940 -38.9939 -38.9714 -38.8878 -38.8352 -38.8260
    13.3213  15.5216  15.5641  15.9805  17.1305  17.5250  17.6613  18.6036
    19.3023  19.5555  19.8634  25.9731  26.2485

     occupation numbers 
     1.0000   1.0000   1.0000   1.0000   1.0000   1.0000   1.0000   1.0000
     1.0000   1.0000   1.0000   1.0000   1.0000   1.0000   1.0000   0.0000
     0.0000   0.0000   0.0000   0.0000   0.0000

          k = 0.1667 0.3849 0.1030 (  2902 PWs)   bands (ev):

   -75.5996 -75.5751 -39.0252 -38.9885 -38.9414 -38.8927 -38.8409 -38.8197
    13.4716  15.3825  15.6662  16.0821  17.1056  17.4925  17.6156  18.6413
    19.2913  19.4029  19.9716  23.6696  28.3162

     occupation numbers 
     1.0000   1.0000   1.0000   1.0000   1.0000   1.0000   1.0000   1.0000
     1.0000   1.0000   1.0000   1.0000   1.0000   1.0000   1.0000   0.0000
     0.0000   0.0000   0.0000   0.0000   0.0000

          k = 0.1667 0.3849 0.2059 (  2891 PWs)   bands (ev):

   -75.5944 -75.5803 -39.0391 -39.0090 -38.9042 -38.8881 -38.8486 -38.8194
    13.8834  14.9972  15.9459  16.2938  16.9704  17.2133  17.8025  18.6024
    19.1490  19.5841  20.0517  21.7030  29.2600

     occupation numbers 
     1.0000   1.0000   1.0000   1.0000   1.0000   1.0000   1.0000   1.0000
     1.0000   1.0000   1.0000   1.0000   1.0000   1.0000   1.0000   0.0000
     0.0000   0.0000   0.0000   0.0000   0.0000

          k = 0.1667 0.3849-0.3089 (  2892 PWs)   bands (ev):

   -75.5873 -75.5873 -39.0314 -39.0314 -38.8874 -38.8874 -38.8354 -38.8354
    14.4455  14.4455  16.2823  16.2823  16.9426  16.9426  18.1610  18.1610
    19.5834  19.5834  20.3984  20.3984  30.3626

     occupation numbers 
     1.0000   1.0000   1.0000   1.0000   1.0000   1.0000   1.0000   1.0000
     1.0000   1.0000   1.0000   1.0000   1.0000   1.0000   1.0000   1.0000
     0.0000   0.0000   0.0000   0.0000   0.0000

          k = 0.1667 0.4811 0.0000 (  2905 PWs)   bands (ev):

   -75.5912 -75.5725 -39.0315 -38.9882 -38.9603 -38.9146 -38.8495 -38.8494
    14.4287  15.3494  15.3516  16.0188  17.0722  17.4040  17.7566  19.0478
    19.5506  19.5565  20.7521  24.6511  27.8565

     occupation numbers 
     1.0000   1.0000   1.0000   1.0000   1.0000   1.0000   1.0000   1.0000
     1.0000   1.0000   1.0000   1.0000   1.0000   1.0000   1.0000   0.0000
     0.0000   0.0000   0.0000   0.0000   0.0000

          k = 0.1667 0.4811 0.1030 (  2904 PWs)   bands (ev):

   -75.5899 -75.5737 -39.0446 -39.0065 -38.9408 -38.9063 -38.8602 -38.8348
    14.4531  15.2978  15.5130  16.0614  17.0846  17.3809  17.8171  19.0387
    19.3178  19.6307  20.8030  24.0547  26.8372

     occupation numbers 
     1.0000   1.0000   1.0000   1.0000   1.0000   1.0000   1.0000   1.0000
     1.0000   1.0000   1.0000   1.0000   1.0000   1.0000   1.0000   0.0000
     0.0000   0.0000   0.0000   0.0000   0.0000

          k = 0.1667 0.4811 0.2059 (  2903 PWs)   bands (ev):

   -75.5865 -75.5771 -39.0595 -39.0346 -38.9241 -38.8886 -38.8601 -38.8260
    14.5679  15.0941  15.8402  16.3347  16.9196  17.3506  18.0243  18.7236
    19.2518  19.7266  20.9520  22.6355  26.9548

     occupation numbers 
     1.0000   1.0000   1.0000   1.0000   1.0000   1.0000   1.0000   1.0000
     1.0000   1.0000   1.0000   1.0000   1.0000   1.0000   1.0000   0.0000
     0.0000   0.0000   0.0000   0.0000   0.0000

          k = 0.1667 0.4811-0.3089 (  2894 PWs)   bands (ev):

   -75.5818 -75.5818 -39.0561 -39.0561 -38.9047 -38.9047 -38.8356 -38.8356
    14.8000  14.8000  16.2454  16.2454  17.0894  17.0894  18.2968  18.2968
    19.5760  19.5760  21.4734  21.4734  27.7576

     occupation numbers 
     1.0000   1.0000   1.0000   1.0000   1.0000   1.0000   1.0000   1.0000
     1.0000   1.0000   1.0000   1.0000   1.0000   1.0000   0.9749   0.9749
     0.0000   0.0000   0.0000   0.0000   0.0000

          k = 0.1667 0.5774 0.0000 (  2908 PWs)   bands (ev):

   -75.5866 -75.5730 -39.0451 -38.9932 -38.9432 -38.9257 -38.8628 -38.8544
    14.9019  15.2139  15.2966  16.0715  17.1147  17.2456  17.8603  19.3599
    19.5364  19.5485  21.6432  23.0966  28.8587

     occupation numbers 
     1.0000   1.0000   1.0000   1.0000   1.0000   1.0000   1.0000   1.0000
     1.0000   1.0000   1.0000   1.0000   1.0000   1.0000   1.0000   0.0000
     0.0000   0.0000   0.0000   0.0000   0.0000

          k = 0.1667 0.5774 0.1030 (  2904 PWs)   bands (ev):

   -75.5857 -75.5739 -39.0557 -39.0105 -38.9450 -38.8997 -38.8716 -38.8419
    14.7648  15.2570  15.6530  15.9063  17.0430  17.4136  17.9298  19.2895
    19.3582  19.5986  21.6738  23.0027  27.9737

     occupation numbers 
     1.0000   1.0000   1.0000   1.0000   1.0000   1.0000   1.0000   1.0000
     1.0000   1.0000   1.0000   1.0000   1.0000   1.0000   1.0000   0.0000
     0.0000   0.0000   0.0000   0.0000   0.0000

          k = 0.1667 0.5774 0.2059 (  2909 PWs)   bands (ev):

   -75.5832 -75.5764 -39.0688 -39.0425 -38.9326 -38.8889 -38.8615 -38.8296
    14.7296  15.1524  15.9054  16.2493  16.8326  17.5212  18.1686  18.7939
    19.3839  19.6445  21.8029  22.6891  26.8823

     occupation numbers 
     1.0000   1.0000   1.0000   1.0000   1.0000   1.0000   1.0000   1.0000
     1.0000   1.0000   1.0000   1.0000   1.0000   1.0000   1.0000   0.0000
     0.0000   0.0000   0.0000   0.0000   0.0000

          k = 0.1667 0.5774-0.3089 (  2906 PWs)   bands (ev):

   -75.5798 -75.5798 -39.0653 -39.0653 -38.9113 -38.9113 -38.8353 -38.8353
    14.8849  14.8849  16.2378  16.2378  17.1410  17.1410  18.4565  18.4565
    19.5125  19.5125  22.1920  22.1920  26.5036

     occupation numbers 
     1.0000   1.0000   1.0000   1.0000   1.0000   1.0000   1.0000   1.0000
     1.0000   1.0000   1.0000   1.0000   1.0000   1.0000   0.0000   0.0000
     0.0000   0.0000   0.0000   0.0000   0.0000

          k = 0.2500 0.4330 0.0000 (  2904 PWs)   bands (ev):

   -75.5912 -75.5724 -39.0111 -38.9892 -38.9605 -38.9156 -38.8681 -38.8493
    14.4315  15.4250  15.6850  15.7068  16.9810  17.4301  17.7602  18.8098
    19.5039  19.5598  20.7903  26.2038  27.0128

     occupation numbers 
     1.0000   1.0000   1.0000   1.0000   1.0000   1.0000   1.0000   1.0000
     1.0000   1.0000   1.0000   1.0000   1.0000   1.0000   1.0000   0.0000
     0.0000   0.0000   0.0000   0.0000   0.0000

          k = 0.2500 0.4330 0.1030 (  2906 PWs)   bands (ev):

   -75.5899 -75.5737 -39.0188 -39.0146 -38.9272 -38.9257 -38.8704 -38.8368
    14.5149  15.3414  15.7526  15.8908  17.0220  17.2551  17.7629  18.8479
    19.2618  19.6390  20.8930  24.7861  27.2984

     occupation numbers 
     1.0000   1.0000   1.0000   1.0000   1.0000   1.0000   1.0000   1.0000
     1.0000   1.0000   1.0000   1.0000   1.0000   1.0000   1.0000   0.0000
     0.0000   0.0000   0.0000   0.0000   0.0000

          k = 0.2500 0.4330 0.2059 (  2899 PWs)   bands (ev):

   -75.5865 -75.5771 -39.0418 -39.0288 -38.9318 -38.9062 -38.8591 -38.8255
    14.7281  15.1973  15.9702  16.2424  16.8761  16.9937  17.8425  18.6280
    19.2123  19.7350  21.1253  22.9474  28.0727

     occupation numbers 
     1.0000   1.0000   1.0000   1.0000   1.0000   1.0000   1.0000   1.0000
     1.0000   1.0000   1.0000   1.0000   1.0000   1.0000   1.0000   0.0000
     0.0000   0.0000   0.0000   0.0000   0.0000

          k = 0.2500 0.4330-0.3089 (  2892 PWs)   bands (ev):

   -75.5818 -75.5818 -39.0435 -39.0435 -38.9193 -38.9193 -38.8337 -38.8337
    14.9844  14.9844  16.3027  16.3027  16.7688  16.7688  18.1354  18.1354
    19.5993  19.5993  21.6838  21.6838  29.0762

     occupation numbers 
     1.0000   1.0000   1.0000   1.0000   1.0000   1.0000   1.0000   1.0000
     1.0000   1.0000   1.0000   1.0000   1.0000   1.0000   1.0000   1.0000
     0.0000   0.0000   0.0000   0.0000   0.0000

          k = 0.2500 0.5292 0.0000 (  2910 PWs)   bands (ev):

   -75.5835 -75.5738 -39.0242 -38.9800 -38.9459 -38.9305 -38.8891 -38.8733
    15.1571  15.3949  15.5262  15.7819  16.9819  17.1911  17.9568  19.1112
    19.4734  19.5005  22.0484  24.2571  26.3329

     occupation numbers 
     1.0000   1.0000   1.0000   1.0000   1.0000   1.0000   1.0000   1.0000
     1.0000   1.0000   1.0000   1.0000   1.0000   1.0000   1.0000   0.0000
     0.0000   0.0000   0.0000   0.0000   0.0000

          k = 0.2500 0.5292 0.1030 (  2914 PWs)   bands (ev):

   -75.5828 -75.5744 -39.0293 -39.0013 -38.9622 -38.9070 -38.8890 -38.8538
    15.1295  15.4987  15.6099  15.8526  16.9577  17.0919  17.9654  19.1299
    19.2269  19.5543  22.2083  24.2376  26.4037

     occupation numbers 
     1.0000   1.0000   1.0000   1.0000   1.0000   1.0000   1.0000   1.0000
     1.0000   1.0000   1.0000   1.0000   1.0000   1.0000   1.0000   0.0000
     0.0000   0.0000   0.0000   0.0000   0.0000

          k = 0.2500 0.5292 0.2059 (  2913 PWs)   bands (ev):

   -75.5810 -75.5762 -39.0437 -39.0290 -38.9619 -38.9205 -38.8544 -38.8330
    15.1726  15.4586  15.8836  16.1963  16.7099  16.9488  18.0314  18.6640
    19.2987  19.6030  22.5864  23.8896  26.4737

     occupation numbers 
     1.0000   1.0000   1.0000   1.0000   1.0000   1.0000   1.0000   1.0000
     1.0000   1.0000   1.0000   1.0000   1.0000   1.0000   1.0000   0.0000
     0.0000   0.0000   0.0000   0.0000   0.0000

          k = 0.2500 0.5292-0.3089 (  2898 PWs)   bands (ev):

   -75.5786 -75.5786 -39.0461 -39.0461 -38.9429 -38.9429 -38.8321 -38.8321
    15.3053  15.3053  16.2751  16.2751  16.6666  16.6666  18.2357  18.2357
    19.5010  19.5010  23.1716  23.1716  27.0104

     occupation numbers 
     1.0000   1.0000   1.0000   1.0000   1.0000   1.0000   1.0000   1.0000
     1.0000   1.0000   1.0000   1.0000   1.0000   1.0000   1.0000   1.0000
     0.0000   0.0000   0.0000   0.0000   0.0000

          k = 0.3333 0.5774 0.0000 (  2898 PWs)   bands (ev):

   -75.5775 -75.5775 -39.0146 -38.9656 -38.9656 -38.9137 -38.9008 -38.9008
    15.4288  15.5118  15.5118  15.7130  17.0221  17.0221  18.0629  19.2766
    19.2766  19.4427  23.4820  24.2466  24.2466

     occupation numbers 
     1.0000   1.0000   1.0000   1.0000   1.0000   1.0000   1.0000   1.0000
     1.0000   1.0000   1.0000   1.0000   1.0000   1.0000   1.0000   0.0000
     0.0000   0.0000   0.0000   0.0000   0.0000

          k = 0.3333 0.5774 0.1030 (  2916 PWs)   bands (ev):

   -75.5774 -75.5774 -39.0079 -38.9914 -38.9914 -38.9205 -38.8749 -38.8749
    15.5004  15.5867  15.5867  15.7455  16.9365  16.9365  18.0421  19.1725
    19.3237  19.3237  23.8915  24.2976  24.2976

     occupation numbers 
     1.0000   1.0000   1.0000   1.0000   1.0000   1.0000   1.0000   1.0000
     1.0000   1.0000   1.0000   1.0000   1.0000   1.0000   1.0000   0.0000
     0.0000   0.0000   0.0000   0.0000   0.0000

          k = 0.3333 0.5774 0.2059 (  2895 PWs)   bands (ev):

   -75.5774 -75.5774 -39.0229 -39.0229 -38.9895 -38.9390 -38.8431 -38.8431
    15.6671  15.7657  15.7657  15.8064  16.7439  16.7439  18.0394  18.6358
    19.4096  19.4096  24.4241  24.4241  24.8873

     occupation numbers 
     1.0000   1.0000   1.0000   1.0000   1.0000   1.0000   1.0000   1.0000
     1.0000   1.0000   1.0000   1.0000   1.0000   1.0000   1.0000   0.0000
     0.0000   0.0000   0.0000   0.0000   0.0000

          k = 0.3333 0.5774-0.3089 (  2910 PWs)   bands (ev):

   -75.5774 -75.5774 -39.0350 -39.0350 -38.9643 -38.9643 -38.8308 -38.8308
    15.7998  15.7998  15.8833  15.8833  16.6231  16.6231  18.2072  18.2072
    19.4488  19.4488  24.5048  24.5048  26.2025

     occupation numbers 
     1.0000   1.0000   1.0000   1.0000   1.0000   1.0000   1.0000   1.0000
     1.0000   1.0000   1.0000   1.0000   1.0000   1.0000   1.0000   1.0000
     0.0000   0.0000   0.0000   0.0000   0.0000

     the Fermi energy is    18.3156 ev

!    total energy              =    -753.45486433 Ry
     total all-electron energy =     -5573.811556 Ry
     estimated scf accuracy    <       0.00000047 Ry
     smearing contrib. (-TS)   =      -0.00001923 Ry
     internal energy E=F+TS    =    -753.45484510 Ry

     The total energy is F=E-TS. E is the sum of the following terms:
     one-electron contribution =    -286.21735001 Ry
     hartree contribution      =     166.30401535 Ry
     xc contribution           =     -61.38051673 Ry
     ewald contribution        =    -396.98677598 Ry
     one-center paw contrib.   =    -175.17421774 Ry
      -> PAW hartree energy AE =     221.89119735 Ry
      -> PAW hartree energy PS =    -220.83609962 Ry
      -> PAW xc energy AE      =    -117.66568175 Ry
      -> PAW xc energy PS      =      29.02347516 Ry
      -> total E_H with PAW    =     167.35911308 Ry
      -> total E_XC with PAW   =    -150.02272332 Ry

     total magnetization       =     3.36 Bohr mag/cell
     absolute magnetization    =     3.69 Bohr mag/cell

     convergence has been achieved in   5 iterations

     Writing all to output data dir ./out/Co.save/
 
     init_run     :      0.39s CPU      0.51s WALL (       1 calls)
     electrons    :      9.31s CPU      9.83s WALL (       1 calls)

     Called by init_run:
     wfcinit      :      0.26s CPU      0.36s WALL (       1 calls)
     potinit      :      0.09s CPU      0.10s WALL (       1 calls)
     hinit0       :      0.03s CPU      0.03s WALL (       1 calls)

     Called by electrons:
     c_bands      :      7.93s CPU      8.31s WALL (       5 calls)
     sum_band     :      0.93s CPU      0.98s WALL (       5 calls)
     v_of_rho     :      0.02s CPU      0.02s WALL (       6 calls)
     v_h          :      0.00s CPU      0.00s WALL (       6 calls)
     v_xc         :      0.02s CPU      0.02s WALL (       6 calls)
     newd         :      0.02s CPU      0.03s WALL (       6 calls)
     PAW_pot      :      0.49s CPU      0.57s WALL (       6 calls)
     mix_rho      :      0.00s CPU      0.00s WALL (       5 calls)

     Called by c_bands:
     init_us_2    :      0.06s CPU      0.06s WALL (    1520 calls)
     init_us_2:cp :      0.06s CPU      0.06s WALL (    1520 calls)
     cegterg      :      7.54s CPU      7.86s WALL (     760 calls)

     Called by sum_band:
     sum_band:wei :      0.01s CPU      0.01s WALL (       5 calls)
     sum_band:loo :      0.88s CPU      0.93s WALL (       5 calls)
     sum_band:buf :      0.00s CPU      0.01s WALL (     760 calls)
     sum_band:ini :      0.03s CPU      0.03s WALL (     760 calls)
     sum_band:cal :      0.08s CPU      0.08s WALL (     760 calls)
     sum_band:bec :      0.00s CPU      0.01s WALL (     760 calls)
     addusdens    :      0.03s CPU      0.04s WALL (       5 calls)
                                        0.00s GPU  (       5 calls)
     addusd:skk   :      0.00s CPU      0.00s WALL (       5 calls)
                                        0.00s GPU  (       5 calls)

     Called by *egterg:
     cdiaghg      :      1.86s CPU      1.89s WALL (    3777 calls)
     cegterg:over :      0.26s CPU      0.23s WALL (    3169 calls)
     cegterg:upda :      0.03s CPU      0.06s WALL (    3169 calls)
     cegterg:last :      0.08s CPU      0.10s WALL (    2052 calls)
     h_psi        :      5.02s CPU      5.27s WALL (    3929 calls)
     s_psi        :      0.09s CPU      0.08s WALL (    3929 calls)
     g_psi        :      0.01s CPU      0.02s WALL (    3169 calls)

     Called by h_psi:
     h_psi:calbec :      0.29s CPU      0.26s WALL (    3929 calls)
     vloc_psi     :      4.67s CPU      4.89s WALL (    3929 calls)
     add_vuspsi   :      0.05s CPU      0.09s WALL (    3929 calls)

     General routines
     calbec       :      0.36s CPU      0.33s WALL (    4689 calls)
     fft          :      0.01s CPU      0.01s WALL (     144 calls)
     ffts         :      0.00s CPU      0.00s WALL (      22 calls)
     fftw         :      5.10s CPU      5.28s WALL (  119468 calls)
     interpolate  :      0.00s CPU      0.00s WALL (      12 calls)
 
     Parallel routines

     PAW routines
     PAW_pot      :      0.49s CPU      0.57s WALL (       6 calls)
     PAW_symme    :      0.01s CPU      0.01s WALL (      10 calls)
 
     PWSCF        :     10.05s CPU     11.11s WALL

 
   This run was terminated on:   8:25: 2  22Mar2024            

=------------------------------------------------------------------------------=
   JOB DONE.
=------------------------------------------------------------------------------=
