
     Program PWSCF v.7.2 starts on 22Mar2024 at  8:25:31 

     This program is part of the open-source Quantum ESPRESSO suite
     for quantum simulation of materials; please cite
         "P. Giannozzi et al., J. Phys.:Condens. Matter 21 395502 (2009);
         "P. Giannozzi et al., J. Phys.:Condens. Matter 29 465901 (2017);
         "P. Giannozzi et al., J. Chem. Phys. 152 154105 (2020);
          URL http://www.quantum-espresso.org", 
     in publications or presentations arising from this work. More details at
     http://www.quantum-espresso.org/quote

     Parallel version (MPI), running on    20 processors

     MPI processes distributed on     1 nodes
     352612 MiB available memory on the printing compute node when the environment starts
 
     Waiting for input...
     Reading input from standard input

     Current dimensions of program PWSCF are:
     Max number of different atomic species (ntypx) = 10
     Max number of k-points (npk) = 120000
     Max angular momentum in pseudopotentials (lmaxx) =  4
     file Co.pbe-spn-kjpaw_psl.0.3.1.UPF: wavefunction(s)  3P 3D renormalized
 
     R & G space division:  proc/nbgrp/npool/nimage =      20
     Subspace diagonalization in iterative solution of the eigenvalue problem:
     a serial algorithm will be used

 
     Parallelization info
     --------------------
     sticks:   dense  smooth     PW     G-vecs:    dense   smooth      PW
     Min          34      33      9                 1196     1153     185
     Max          35      34     10                 1204     1162     192
     Sum         691     673    199                23973    23151    3789
 
     Using Slab Decomposition
 


     bravais-lattice index     =            4
     lattice parameter (alat)  =       4.7432  a.u.
     unit-cell volume          =     148.9338 (a.u.)^3
     number of atoms/cell      =            2
     number of atomic types    =            1
     number of electrons       =        34.00
     number of Kohn-Sham states=           21
     kinetic-energy cutoff     =     110.0000  Ry
     charge density cutoff     =     450.0000  Ry
     scf convergence threshold =      1.0E-06
     mixing beta               =       0.7000
     number of iterations used =            8  plain     mixing
     Exchange-correlation= SLA  PW   PBX  PBC
                           (   1   4   3   4   0   0   0)

     celldm(1)=   4.743213  celldm(2)=   0.000000  celldm(3)=   1.611554
     celldm(4)=   0.000000  celldm(5)=   0.000000  celldm(6)=   0.000000

     crystal axes: (cart. coord. in units of alat)
               a(1) = (   1.000000   0.000000   0.000000 )  
               a(2) = (  -0.500000   0.866025   0.000000 )  
               a(3) = (   0.000000   0.000000   1.611554 )  

     reciprocal axes: (cart. coord. in units 2 pi/alat)
               b(1) = (  1.000000  0.577350  0.000000 )  
               b(2) = (  0.000000  1.154701  0.000000 )  
               b(3) = (  0.000000  0.000000  0.620519 )  


     PseudoPot. # 1 for Co read from file:
     /truba/home/amuhaymin/ZnS/pseudo/QE/Co.pbe-spn-kjpaw_psl.0.3.1.UPF
     MD5 check sum: b0a1ad65bf214e88c1f3d33b20c7d919
     Pseudo is Projector augmented-wave + core cor, Zval = 17.0
     Generated using &quot;atomic&quot; code by A. Dal Corso  v.6.2.2
     Shape of augmentation charge: PSQ
     Using radial grid of 1193 points,  6 beta functions with: 
                l(1) =   0
                l(2) =   0
                l(3) =   1
                l(4) =   1
                l(5) =   2
                l(6) =   2
     Q(r) pseudized with 0 coefficients 


     atomic species   valence    mass     pseudopotential
        Co            17.00    58.93300     Co( 1.00)

     Starting magnetic structure 
     atomic species   magnetization
        Co           0.294

     24 Sym. Ops., with inversion, found (12 have fractional translation)


                                    s                        frac. trans.

      isym =  1     identity                                     

 cryst.   s( 1) = (     1          0          0      )
                  (     0          1          0      )
                  (     0          0          1      )

 cart.    s( 1) = (  1.0000000  0.0000000  0.0000000 )
                  (  0.0000000  1.0000000  0.0000000 )
                  (  0.0000000  0.0000000  1.0000000 )


      isym =  2     180 deg rotation - cart. axis [0,0,1]        

 cryst.   s( 2) = (    -1          0          0      )    f =(  0.0000000 )
                  (     0         -1          0      )       (  0.0000000 )
                  (     0          0          1      )       ( -0.5000000 )

 cart.    s( 2) = ( -1.0000000  0.0000000  0.0000000 )    f =(  0.0000000 )
                  (  0.0000000 -1.0000000  0.0000000 )       (  0.0000000 )
                  (  0.0000000  0.0000000  1.0000000 )       ( -0.8057769 )


      isym =  3     180 deg rotation - cart. axis [0,1,0]        

 cryst.   s( 3) = (    -1          0          0      )    f =(  0.0000000 )
                  (     1          1          0      )       (  0.0000000 )
                  (     0          0         -1      )       ( -0.5000000 )

 cart.    s( 3) = ( -1.0000000  0.0000000  0.0000000 )    f =(  0.0000000 )
                  (  0.0000000  1.0000000  0.0000000 )       (  0.0000000 )
                  (  0.0000000  0.0000000 -1.0000000 )       ( -0.8057769 )


      isym =  4     180 deg rotation - cart. axis [1,0,0]        

 cryst.   s( 4) = (     1          0          0      )
                  (    -1         -1          0      )
                  (     0          0         -1      )

 cart.    s( 4) = (  1.0000000  0.0000000  0.0000000 )
                  (  0.0000000 -1.0000000  0.0000000 )
                  (  0.0000000  0.0000000 -1.0000000 )


      isym =  5      60 deg rotation - cryst. axis [0,0,1]       

 cryst.   s( 5) = (     1          1          0      )    f =(  0.0000000 )
                  (    -1          0          0      )       ( -0.0000000 )
                  (     0          0          1      )       ( -0.5000000 )

 cart.    s( 5) = (  0.5000000 -0.8660254  0.0000000 )    f =(  0.0000000 )
                  (  0.8660254  0.5000000  0.0000000 )       ( -0.0000000 )
                  (  0.0000000  0.0000000  1.0000000 )       ( -0.8057769 )


      isym =  6      60 deg rotation - cryst. axis [0,0,-1]      

 cryst.   s( 6) = (     0         -1          0      )    f =(  0.0000000 )
                  (     1          1          0      )       ( -0.0000000 )
                  (     0          0          1      )       ( -0.5000000 )

 cart.    s( 6) = (  0.5000000  0.8660254  0.0000000 )    f =(  0.0000000 )
                  ( -0.8660254  0.5000000  0.0000000 )       ( -0.0000000 )
                  (  0.0000000  0.0000000  1.0000000 )       ( -0.8057769 )


      isym =  7     120 deg rotation - cryst. axis [0,0,1]       

 cryst.   s( 7) = (     0          1          0      )
                  (    -1         -1          0      )
                  (     0          0          1      )

 cart.    s( 7) = ( -0.5000000 -0.8660254  0.0000000 )
                  (  0.8660254 -0.5000000  0.0000000 )
                  (  0.0000000  0.0000000  1.0000000 )


      isym =  8     120 deg rotation - cryst. axis [0,0,-1]      

 cryst.   s( 8) = (    -1         -1          0      )
                  (     1          0          0      )
                  (     0          0          1      )

 cart.    s( 8) = ( -0.5000000  0.8660254  0.0000000 )
                  ( -0.8660254 -0.5000000  0.0000000 )
                  (  0.0000000  0.0000000  1.0000000 )


      isym =  9     180 deg rotation - cryst. axis [1,-1,0]      

 cryst.   s( 9) = (     0         -1          0      )    f =(  0.0000000 )
                  (    -1          0          0      )       (  0.0000000 )
                  (     0          0         -1      )       ( -0.5000000 )

 cart.    s( 9) = (  0.5000000 -0.8660254  0.0000000 )    f =(  0.0000000 )
                  ( -0.8660254 -0.5000000  0.0000000 )       (  0.0000000 )
                  (  0.0000000  0.0000000 -1.0000000 )       ( -0.8057769 )


      isym = 10     180 deg rotation - cryst. axis [2,1,0]       

 cryst.   s(10) = (     1          1          0      )    f =(  0.0000000 )
                  (     0         -1          0      )       ( -0.0000000 )
                  (     0          0         -1      )       ( -0.5000000 )

 cart.    s(10) = (  0.5000000  0.8660254  0.0000000 )    f =(  0.0000000 )
                  (  0.8660254 -0.5000000  0.0000000 )       ( -0.0000000 )
                  (  0.0000000  0.0000000 -1.0000000 )       ( -0.8057769 )


      isym = 11     180 deg rotation - cryst. axis [0,1,0]       

 cryst.   s(11) = (    -1         -1          0      )
                  (     0          1          0      )
                  (     0          0         -1      )

 cart.    s(11) = ( -0.5000000 -0.8660254  0.0000000 )
                  ( -0.8660254  0.5000000  0.0000000 )
                  (  0.0000000  0.0000000 -1.0000000 )


      isym = 12     180 deg rotation - cryst. axis [1,1,0]       

 cryst.   s(12) = (     0          1          0      )
                  (     1          0          0      )
                  (     0          0         -1      )

 cart.    s(12) = ( -0.5000000  0.8660254  0.0000000 )
                  (  0.8660254  0.5000000  0.0000000 )
                  (  0.0000000  0.0000000 -1.0000000 )


      isym = 13     inversion                                    

 cryst.   s(13) = (    -1          0          0      )
                  (     0         -1          0      )
                  (     0          0         -1      )

 cart.    s(13) = ( -1.0000000  0.0000000  0.0000000 )
                  (  0.0000000 -1.0000000  0.0000000 )
                  (  0.0000000  0.0000000 -1.0000000 )


      isym = 14     inv. 180 deg rotation - cart. axis [0,0,1]   

 cryst.   s(14) = (     1          0          0      )    f =(  0.0000000 )
                  (     0          1          0      )       (  0.0000000 )
                  (     0          0         -1      )       ( -0.5000000 )

 cart.    s(14) = (  1.0000000  0.0000000  0.0000000 )    f =(  0.0000000 )
                  (  0.0000000  1.0000000  0.0000000 )       (  0.0000000 )
                  (  0.0000000  0.0000000 -1.0000000 )       ( -0.8057769 )


      isym = 15     inv. 180 deg rotation - cart. axis [0,1,0]   

 cryst.   s(15) = (     1          0          0      )    f =(  0.0000000 )
                  (    -1         -1          0      )       (  0.0000000 )
                  (     0          0          1      )       ( -0.5000000 )

 cart.    s(15) = (  1.0000000  0.0000000  0.0000000 )    f =(  0.0000000 )
                  (  0.0000000 -1.0000000  0.0000000 )       (  0.0000000 )
                  (  0.0000000  0.0000000  1.0000000 )       ( -0.8057769 )


      isym = 16     inv. 180 deg rotation - cart. axis [1,0,0]   

 cryst.   s(16) = (    -1          0          0      )
                  (     1          1          0      )
                  (     0          0          1      )

 cart.    s(16) = ( -1.0000000  0.0000000  0.0000000 )
                  (  0.0000000  1.0000000  0.0000000 )
                  (  0.0000000  0.0000000  1.0000000 )


      isym = 17     inv.  60 deg rotation - cryst. axis [0,0,1]  

 cryst.   s(17) = (    -1         -1          0      )    f =(  0.0000000 )
                  (     1          0          0      )       (  0.0000000 )
                  (     0          0         -1      )       ( -0.5000000 )

 cart.    s(17) = ( -0.5000000  0.8660254  0.0000000 )    f =(  0.0000000 )
                  ( -0.8660254 -0.5000000  0.0000000 )       (  0.0000000 )
                  (  0.0000000  0.0000000 -1.0000000 )       ( -0.8057769 )


      isym = 18     inv.  60 deg rotation - cryst. axis [0,0,-1] 

 cryst.   s(18) = (     0          1          0      )    f =(  0.0000000 )
                  (    -1         -1          0      )       ( -0.0000000 )
                  (     0          0         -1      )       ( -0.5000000 )

 cart.    s(18) = ( -0.5000000 -0.8660254  0.0000000 )    f =(  0.0000000 )
                  (  0.8660254 -0.5000000  0.0000000 )       ( -0.0000000 )
                  (  0.0000000  0.0000000 -1.0000000 )       ( -0.8057769 )


      isym = 19     inv. 120 deg rotation - cryst. axis [0,0,1]  

 cryst.   s(19) = (     0         -1          0      )
                  (     1          1          0      )
                  (     0          0         -1      )

 cart.    s(19) = (  0.5000000  0.8660254  0.0000000 )
                  ( -0.8660254  0.5000000  0.0000000 )
                  (  0.0000000  0.0000000 -1.0000000 )


      isym = 20     inv. 120 deg rotation - cryst. axis [0,0,-1] 

 cryst.   s(20) = (     1          1          0      )
                  (    -1          0          0      )
                  (     0          0         -1      )

 cart.    s(20) = (  0.5000000 -0.8660254  0.0000000 )
                  (  0.8660254  0.5000000  0.0000000 )
                  (  0.0000000  0.0000000 -1.0000000 )


      isym = 21     inv. 180 deg rotation - cryst. axis [1,-1,0] 

 cryst.   s(21) = (     0          1          0      )    f =(  0.0000000 )
                  (     1          0          0      )       ( -0.0000000 )
                  (     0          0          1      )       ( -0.5000000 )

 cart.    s(21) = ( -0.5000000  0.8660254  0.0000000 )    f =(  0.0000000 )
                  (  0.8660254  0.5000000  0.0000000 )       ( -0.0000000 )
                  (  0.0000000  0.0000000  1.0000000 )       ( -0.8057769 )


      isym = 22     inv. 180 deg rotation - cryst. axis [2,1,0]  

 cryst.   s(22) = (    -1         -1          0      )    f =(  0.0000000 )
                  (     0          1          0      )       ( -0.0000000 )
                  (     0          0          1      )       ( -0.5000000 )

 cart.    s(22) = ( -0.5000000 -0.8660254  0.0000000 )    f =(  0.0000000 )
                  ( -0.8660254  0.5000000  0.0000000 )       ( -0.0000000 )
                  (  0.0000000  0.0000000  1.0000000 )       ( -0.8057769 )


      isym = 23     inv. 180 deg rotation - cryst. axis [0,1,0]  

 cryst.   s(23) = (     1          1          0      )
                  (     0         -1          0      )
                  (     0          0          1      )

 cart.    s(23) = (  0.5000000  0.8660254  0.0000000 )
                  (  0.8660254 -0.5000000  0.0000000 )
                  (  0.0000000  0.0000000  1.0000000 )


      isym = 24     inv. 180 deg rotation - cryst. axis [1,1,0]  

 cryst.   s(24) = (     0         -1          0      )
                  (    -1          0          0      )
                  (     0          0          1      )

 cart.    s(24) = (  0.5000000 -0.8660254  0.0000000 )
                  ( -0.8660254 -0.5000000  0.0000000 )
                  (  0.0000000  0.0000000  1.0000000 )


     point group D_6h(6/mmm)
     there are 12 classes
     the character table:

       E     2C6   2C3   C2    3C2'  3C2'' i     2S3   2S6   s_h   3s_d  3s_v 
A_1g   1.00  1.00  1.00  1.00  1.00  1.00  1.00  1.00  1.00  1.00  1.00  1.00
A_2g   1.00  1.00  1.00  1.00 -1.00 -1.00  1.00  1.00  1.00  1.00 -1.00 -1.00
B_1g   1.00 -1.00  1.00 -1.00  1.00 -1.00  1.00 -1.00  1.00 -1.00  1.00 -1.00
B_2g   1.00 -1.00  1.00 -1.00 -1.00  1.00  1.00 -1.00  1.00 -1.00 -1.00  1.00
E_1g   2.00  1.00 -1.00 -2.00  0.00  0.00  2.00  1.00 -1.00 -2.00  0.00  0.00
E_2g   2.00 -1.00 -1.00  2.00  0.00  0.00  2.00 -1.00 -1.00  2.00  0.00  0.00
A_1u   1.00  1.00  1.00  1.00  1.00  1.00 -1.00 -1.00 -1.00 -1.00 -1.00 -1.00
A_2u   1.00  1.00  1.00  1.00 -1.00 -1.00 -1.00 -1.00 -1.00 -1.00  1.00  1.00
B_1u   1.00 -1.00  1.00 -1.00  1.00 -1.00 -1.00  1.00 -1.00  1.00 -1.00  1.00
B_2u   1.00 -1.00  1.00 -1.00 -1.00  1.00 -1.00  1.00 -1.00  1.00  1.00 -1.00
E_1u   2.00  1.00 -1.00 -2.00  0.00  0.00 -2.00 -1.00  1.00  2.00  0.00  0.00
E_2u   2.00 -1.00 -1.00  2.00  0.00  0.00 -2.00  1.00  1.00 -2.00  0.00  0.00

     the symmetry operations in each class and the name of the first element:

     E        1
          identity                                               
     2C6      5    6
           60 deg rotation - cryst. axis [0,0,1]                 
     2C3      7    8
          120 deg rotation - cryst. axis [0,0,1]                 
     C2       2
          180 deg rotation - cart. axis [0,0,1]                  
     3C2'     4   12   11
          180 deg rotation - cart. axis [1,0,0]                  
     3C2''    3    9   10
          180 deg rotation - cart. axis [0,1,0]                  
     i       13
          inversion                                              
     2S3     17   18
          inv.  60 deg rotation - cryst. axis [0,0,1]            
     2S6     19   20
          inv. 120 deg rotation - cryst. axis [0,0,1]            
     s_h     14
          inv. 180 deg rotation - cart. axis [0,0,1]             
     3s_d    16   24   23
          inv. 180 deg rotation - cart. axis [1,0,0]             
     3s_v    15   21   22
          inv. 180 deg rotation - cart. axis [0,1,0]             

   Cartesian axes

     site n.     atom                  positions (alat units)
         1           Co  tau(   1) = (  -0.0000000   0.5773503   0.4028884  )
         2           Co  tau(   2) = (   0.5000000   0.2886751   1.2086653  )

   Crystallographic axes

     site n.     atom                  positions (cryst. coord.)
         1           Co  tau(   1) = (  0.3333333  0.6666667  0.2500000  )
         2           Co  tau(   2) = (  0.6666667  0.3333333  0.7500000  )

     number of k points=    76  Gaussian smearing, width (Ry)=  0.0010
                       cart. coord. in units 2pi/alat
        k(    1) = (   0.0000000   0.0000000   0.0000000), wk =   0.0011574
        k(    2) = (   0.0000000   0.0000000   0.1034199), wk =   0.0023148
        k(    3) = (   0.0000000   0.0000000   0.2068397), wk =   0.0023148
        k(    4) = (   0.0000000   0.0000000  -0.3102596), wk =   0.0011574
        k(    5) = (   0.0000000   0.0962250   0.0000000), wk =   0.0069444
        k(    6) = (   0.0000000   0.0962250   0.1034199), wk =   0.0138889
        k(    7) = (   0.0000000   0.0962250   0.2068397), wk =   0.0138889
        k(    8) = (   0.0000000   0.0962250  -0.3102596), wk =   0.0069444
        k(    9) = (   0.0000000   0.1924501   0.0000000), wk =   0.0069444
        k(   10) = (   0.0000000   0.1924501   0.1034199), wk =   0.0138889
        k(   11) = (   0.0000000   0.1924501   0.2068397), wk =   0.0138889
        k(   12) = (   0.0000000   0.1924501  -0.3102596), wk =   0.0069444
        k(   13) = (   0.0000000   0.2886751   0.0000000), wk =   0.0069444
        k(   14) = (   0.0000000   0.2886751   0.1034199), wk =   0.0138889
        k(   15) = (   0.0000000   0.2886751   0.2068397), wk =   0.0138889
        k(   16) = (   0.0000000   0.2886751  -0.3102596), wk =   0.0069444
        k(   17) = (   0.0000000   0.3849002   0.0000000), wk =   0.0069444
        k(   18) = (   0.0000000   0.3849002   0.1034199), wk =   0.0138889
        k(   19) = (   0.0000000   0.3849002   0.2068397), wk =   0.0138889
        k(   20) = (   0.0000000   0.3849002  -0.3102596), wk =   0.0069444
        k(   21) = (   0.0000000   0.4811252   0.0000000), wk =   0.0069444
        k(   22) = (   0.0000000   0.4811252   0.1034199), wk =   0.0138889
        k(   23) = (   0.0000000   0.4811252   0.2068397), wk =   0.0138889
        k(   24) = (   0.0000000   0.4811252  -0.3102596), wk =   0.0069444
        k(   25) = (   0.0000000  -0.5773503   0.0000000), wk =   0.0034722
        k(   26) = (   0.0000000  -0.5773503   0.1034199), wk =   0.0069444
        k(   27) = (   0.0000000  -0.5773503   0.2068397), wk =   0.0069444
        k(   28) = (   0.0000000  -0.5773503  -0.3102596), wk =   0.0034722
        k(   29) = (   0.0833333   0.1443376   0.0000000), wk =   0.0069444
        k(   30) = (   0.0833333   0.1443376   0.1034199), wk =   0.0138889
        k(   31) = (   0.0833333   0.1443376   0.2068397), wk =   0.0138889
        k(   32) = (   0.0833333   0.1443376  -0.3102596), wk =   0.0069444
        k(   33) = (   0.0833333   0.2405626   0.0000000), wk =   0.0138889
        k(   34) = (   0.0833333   0.2405626   0.1034199), wk =   0.0277778
        k(   35) = (   0.0833333   0.2405626   0.2068397), wk =   0.0277778
        k(   36) = (   0.0833333   0.2405626  -0.3102596), wk =   0.0138889
        k(   37) = (   0.0833333   0.3367877   0.0000000), wk =   0.0138889
        k(   38) = (   0.0833333   0.3367877   0.1034199), wk =   0.0277778
        k(   39) = (   0.0833333   0.3367877   0.2068397), wk =   0.0277778
        k(   40) = (   0.0833333   0.3367877  -0.3102596), wk =   0.0138889
        k(   41) = (   0.0833333   0.4330127   0.0000000), wk =   0.0138889
        k(   42) = (   0.0833333   0.4330127   0.1034199), wk =   0.0277778
        k(   43) = (   0.0833333   0.4330127   0.2068397), wk =   0.0277778
        k(   44) = (   0.0833333   0.4330127  -0.3102596), wk =   0.0138889
        k(   45) = (   0.0833333   0.5292377   0.0000000), wk =   0.0138889
        k(   46) = (   0.0833333   0.5292377   0.1034199), wk =   0.0277778
        k(   47) = (   0.0833333   0.5292377   0.2068397), wk =   0.0277778
        k(   48) = (   0.0833333   0.5292377  -0.3102596), wk =   0.0138889
        k(   49) = (   0.1666667   0.2886751   0.0000000), wk =   0.0069444
        k(   50) = (   0.1666667   0.2886751   0.1034199), wk =   0.0138889
        k(   51) = (   0.1666667   0.2886751   0.2068397), wk =   0.0138889
        k(   52) = (   0.1666667   0.2886751  -0.3102596), wk =   0.0069444
        k(   53) = (   0.1666667   0.3849002   0.0000000), wk =   0.0138889
        k(   54) = (   0.1666667   0.3849002   0.1034199), wk =   0.0277778
        k(   55) = (   0.1666667   0.3849002   0.2068397), wk =   0.0277778
        k(   56) = (   0.1666667   0.3849002  -0.3102596), wk =   0.0138889
        k(   57) = (   0.1666667   0.4811252   0.0000000), wk =   0.0138889
        k(   58) = (   0.1666667   0.4811252   0.1034199), wk =   0.0277778
        k(   59) = (   0.1666667   0.4811252   0.2068397), wk =   0.0277778
        k(   60) = (   0.1666667   0.4811252  -0.3102596), wk =   0.0138889
        k(   61) = (   0.1666667   0.5773503   0.0000000), wk =   0.0069444
        k(   62) = (   0.1666667   0.5773503   0.1034199), wk =   0.0138889
        k(   63) = (   0.1666667   0.5773503   0.2068397), wk =   0.0138889
        k(   64) = (   0.1666667   0.5773503  -0.3102596), wk =   0.0069444
        k(   65) = (   0.2500000   0.4330127   0.0000000), wk =   0.0069444
        k(   66) = (   0.2500000   0.4330127   0.1034199), wk =   0.0138889
        k(   67) = (   0.2500000   0.4330127   0.2068397), wk =   0.0138889
        k(   68) = (   0.2500000   0.4330127  -0.3102596), wk =   0.0069444
        k(   69) = (   0.2500000   0.5292377   0.0000000), wk =   0.0138889
        k(   70) = (   0.2500000   0.5292377   0.1034199), wk =   0.0277778
        k(   71) = (   0.2500000   0.5292377   0.2068397), wk =   0.0277778
        k(   72) = (   0.2500000   0.5292377  -0.3102596), wk =   0.0138889
        k(   73) = (   0.3333333   0.5773503   0.0000000), wk =   0.0023148
        k(   74) = (   0.3333333   0.5773503   0.1034199), wk =   0.0046296
        k(   75) = (   0.3333333   0.5773503   0.2068397), wk =   0.0046296
        k(   76) = (   0.3333333   0.5773503  -0.3102596), wk =   0.0023148

                       cryst. coord.
        k(    1) = (   0.0000000   0.0000000   0.0000000), wk =   0.0011574
        k(    2) = (   0.0000000   0.0000000   0.1666667), wk =   0.0023148
        k(    3) = (   0.0000000   0.0000000   0.3333333), wk =   0.0023148
        k(    4) = (   0.0000000   0.0000000  -0.5000000), wk =   0.0011574
        k(    5) = (   0.0000000   0.0833333   0.0000000), wk =   0.0069444
        k(    6) = (   0.0000000   0.0833333   0.1666667), wk =   0.0138889
        k(    7) = (   0.0000000   0.0833333   0.3333333), wk =   0.0138889
        k(    8) = (   0.0000000   0.0833333  -0.5000000), wk =   0.0069444
        k(    9) = (   0.0000000   0.1666667   0.0000000), wk =   0.0069444
        k(   10) = (   0.0000000   0.1666667   0.1666667), wk =   0.0138889
        k(   11) = (   0.0000000   0.1666667   0.3333333), wk =   0.0138889
        k(   12) = (   0.0000000   0.1666667  -0.5000000), wk =   0.0069444
        k(   13) = (   0.0000000   0.2500000   0.0000000), wk =   0.0069444
        k(   14) = (   0.0000000   0.2500000   0.1666667), wk =   0.0138889
        k(   15) = (   0.0000000   0.2500000   0.3333333), wk =   0.0138889
        k(   16) = (   0.0000000   0.2500000  -0.5000000), wk =   0.0069444
        k(   17) = (   0.0000000   0.3333333   0.0000000), wk =   0.0069444
        k(   18) = (   0.0000000   0.3333333   0.1666667), wk =   0.0138889
        k(   19) = (   0.0000000   0.3333333   0.3333333), wk =   0.0138889
        k(   20) = (   0.0000000   0.3333333  -0.5000000), wk =   0.0069444
        k(   21) = (   0.0000000   0.4166667   0.0000000), wk =   0.0069444
        k(   22) = (   0.0000000   0.4166667   0.1666667), wk =   0.0138889
        k(   23) = (   0.0000000   0.4166667   0.3333333), wk =   0.0138889
        k(   24) = (   0.0000000   0.4166667  -0.5000000), wk =   0.0069444
        k(   25) = (   0.0000000  -0.5000000   0.0000000), wk =   0.0034722
        k(   26) = (   0.0000000  -0.5000000   0.1666667), wk =   0.0069444
        k(   27) = (   0.0000000  -0.5000000   0.3333333), wk =   0.0069444
        k(   28) = (   0.0000000  -0.5000000  -0.5000000), wk =   0.0034722
        k(   29) = (   0.0833333   0.0833333   0.0000000), wk =   0.0069444
        k(   30) = (   0.0833333   0.0833333   0.1666667), wk =   0.0138889
        k(   31) = (   0.0833333   0.0833333   0.3333333), wk =   0.0138889
        k(   32) = (   0.0833333   0.0833333  -0.5000000), wk =   0.0069444
        k(   33) = (   0.0833333   0.1666667   0.0000000), wk =   0.0138889
        k(   34) = (   0.0833333   0.1666667   0.1666667), wk =   0.0277778
        k(   35) = (   0.0833333   0.1666667   0.3333333), wk =   0.0277778
        k(   36) = (   0.0833333   0.1666667  -0.5000000), wk =   0.0138889
        k(   37) = (   0.0833333   0.2500000   0.0000000), wk =   0.0138889
        k(   38) = (   0.0833333   0.2500000   0.1666667), wk =   0.0277778
        k(   39) = (   0.0833333   0.2500000   0.3333333), wk =   0.0277778
        k(   40) = (   0.0833333   0.2500000  -0.5000000), wk =   0.0138889
        k(   41) = (   0.0833333   0.3333333   0.0000000), wk =   0.0138889
        k(   42) = (   0.0833333   0.3333333   0.1666667), wk =   0.0277778
        k(   43) = (   0.0833333   0.3333333   0.3333333), wk =   0.0277778
        k(   44) = (   0.0833333   0.3333333  -0.5000000), wk =   0.0138889
        k(   45) = (   0.0833333   0.4166667   0.0000000), wk =   0.0138889
        k(   46) = (   0.0833333   0.4166667   0.1666667), wk =   0.0277778
        k(   47) = (   0.0833333   0.4166667   0.3333333), wk =   0.0277778
        k(   48) = (   0.0833333   0.4166667  -0.5000000), wk =   0.0138889
        k(   49) = (   0.1666667   0.1666667   0.0000000), wk =   0.0069444
        k(   50) = (   0.1666667   0.1666667   0.1666667), wk =   0.0138889
        k(   51) = (   0.1666667   0.1666667   0.3333333), wk =   0.0138889
        k(   52) = (   0.1666667   0.1666667  -0.5000000), wk =   0.0069444
        k(   53) = (   0.1666667   0.2500000   0.0000000), wk =   0.0138889
        k(   54) = (   0.1666667   0.2500000   0.1666667), wk =   0.0277778
        k(   55) = (   0.1666667   0.2500000   0.3333333), wk =   0.0277778
        k(   56) = (   0.1666667   0.2500000  -0.5000000), wk =   0.0138889
        k(   57) = (   0.1666667   0.3333333   0.0000000), wk =   0.0138889
        k(   58) = (   0.1666667   0.3333333   0.1666667), wk =   0.0277778
        k(   59) = (   0.1666667   0.3333333   0.3333333), wk =   0.0277778
        k(   60) = (   0.1666667   0.3333333  -0.5000000), wk =   0.0138889
        k(   61) = (   0.1666667   0.4166667   0.0000000), wk =   0.0069444
        k(   62) = (   0.1666667   0.4166667   0.1666667), wk =   0.0138889
        k(   63) = (   0.1666667   0.4166667   0.3333333), wk =   0.0138889
        k(   64) = (   0.1666667   0.4166667  -0.5000000), wk =   0.0069444
        k(   65) = (   0.2500000   0.2500000   0.0000000), wk =   0.0069444
        k(   66) = (   0.2500000   0.2500000   0.1666667), wk =   0.0138889
        k(   67) = (   0.2500000   0.2500000   0.3333333), wk =   0.0138889
        k(   68) = (   0.2500000   0.2500000  -0.5000000), wk =   0.0069444
        k(   69) = (   0.2500000   0.3333333   0.0000000), wk =   0.0138889
        k(   70) = (   0.2500000   0.3333333   0.1666667), wk =   0.0277778
        k(   71) = (   0.2500000   0.3333333   0.3333333), wk =   0.0277778
        k(   72) = (   0.2500000   0.3333333  -0.5000000), wk =   0.0138889
        k(   73) = (   0.3333333   0.3333333   0.0000000), wk =   0.0023148
        k(   74) = (   0.3333333   0.3333333   0.1666667), wk =   0.0046296
        k(   75) = (   0.3333333   0.3333333   0.3333333), wk =   0.0046296
        k(   76) = (   0.3333333   0.3333333  -0.5000000), wk =   0.0023148

     Dense  grid:    23973 G-vectors     FFT dimensions: (  36,  36,  54)

     Smooth grid:    23151 G-vectors     FFT dimensions: (  32,  32,  54)

     Dynamical RAM for                 wfc:       0.05 MB

     Dynamical RAM for     wfc (w. buffer):       7.11 MB

     Dynamical RAM for           str. fact:       0.02 MB

     Dynamical RAM for           local pot:       0.00 MB

     Dynamical RAM for          nlocal pot:       0.08 MB

     Dynamical RAM for                qrad:       1.70 MB

     Dynamical RAM for          rho,v,vnew:       0.29 MB

     Dynamical RAM for               rhoin:       0.10 MB

     Dynamical RAM for            rho*nmix:       0.58 MB

     Dynamical RAM for           G-vectors:       0.08 MB

     Dynamical RAM for          h,s,v(r/c):       0.08 MB

     Dynamical RAM for          <psi|beta>:       0.01 MB

     Dynamical RAM for                 psi:       0.09 MB

     Dynamical RAM for                hpsi:       0.09 MB

     Dynamical RAM for                spsi:       0.09 MB

     Dynamical RAM for      wfcinit/wfcrot:       0.10 MB

     Dynamical RAM for           addusdens:       3.45 MB

     Estimated static dynamical RAM per process >       9.58 MB

     Estimated max dynamical RAM per process >      13.62 MB

     Estimated total dynamical RAM >     272.42 MB

     Check: negative core charge=   -0.000043
     Generating pointlists ...
     new r_m :   0.4089 (alat units)  1.9395 (a.u.) for type    1

     The initial density is read from file :
     ./out/Co.save/charge-density


     starting charge      34.0421, renormalised to      34.0000

     negative rho (up, down):  5.063E-02 3.922E-02
     Starting wfcs from file
     Checking if some PAW data can be deallocated... 

     total cpu time spent up to now is        0.6 secs

     Self-consistent Calculation

     iteration #  1     ecut=   110.00 Ry     beta= 0.70
     Davidson diagonalization with overlap

---- Real-time Memory Report at c_bands before calling an iterative solver
            57 MiB given to the printing process from OS
             0 MiB allocation reported by mallinfo(arena+hblkhd)
        352025 MiB available memory on the node where the printing process lives
------------------
     c_bands:  1 eigenvalues not converged
     c_bands:  2 eigenvalues not converged
     c_bands:  1 eigenvalues not converged
     ethr =  1.00E-05,  avg # of iterations = 18.8

     negative rho (up, down):  8.945E-05 7.967E-07

     total cpu time spent up to now is        8.9 secs

     total energy              =    -753.36492300 Ry
     estimated scf accuracy    <       0.02401357 Ry

     total magnetization       =     3.36 Bohr mag/cell
     absolute magnetization    =     3.62 Bohr mag/cell

     iteration #  2     ecut=   110.00 Ry     beta= 0.70
     Davidson diagonalization with overlap

---- Real-time Memory Report at c_bands before calling an iterative solver
            79 MiB given to the printing process from OS
             0 MiB allocation reported by mallinfo(arena+hblkhd)
        351809 MiB available memory on the node where the printing process lives
------------------
     ethr =  7.06E-05,  avg # of iterations =  2.7

     total cpu time spent up to now is       10.4 secs

     total energy              =    -753.44388814 Ry
     estimated scf accuracy    <       0.00398837 Ry

     total magnetization       =     3.35 Bohr mag/cell
     absolute magnetization    =     3.65 Bohr mag/cell

     iteration #  3     ecut=   110.00 Ry     beta= 0.70
     Davidson diagonalization with overlap

---- Real-time Memory Report at c_bands before calling an iterative solver
            80 MiB given to the printing process from OS
             0 MiB allocation reported by mallinfo(arena+hblkhd)
        351796 MiB available memory on the node where the printing process lives
------------------
     ethr =  1.17E-05,  avg # of iterations =  4.4

     total cpu time spent up to now is       12.3 secs

     total energy              =    -753.45457474 Ry
     estimated scf accuracy    <       0.00022360 Ry

     total magnetization       =     3.34 Bohr mag/cell
     absolute magnetization    =     3.66 Bohr mag/cell

     iteration #  4     ecut=   110.00 Ry     beta= 0.70
     Davidson diagonalization with overlap

---- Real-time Memory Report at c_bands before calling an iterative solver
            81 MiB given to the printing process from OS
             0 MiB allocation reported by mallinfo(arena+hblkhd)
        351790 MiB available memory on the node where the printing process lives
------------------
     ethr =  6.58E-07,  avg # of iterations =  5.7

     total cpu time spent up to now is       14.7 secs

     total energy              =    -753.45476738 Ry
     estimated scf accuracy    <       0.00001948 Ry

     total magnetization       =     3.34 Bohr mag/cell
     absolute magnetization    =     3.67 Bohr mag/cell

     iteration #  5     ecut=   110.00 Ry     beta= 0.70
     Davidson diagonalization with overlap

---- Real-time Memory Report at c_bands before calling an iterative solver
            83 MiB given to the printing process from OS
             0 MiB allocation reported by mallinfo(arena+hblkhd)
        351777 MiB available memory on the node where the printing process lives
------------------
     ethr =  5.73E-08,  avg # of iterations =  7.6

     total cpu time spent up to now is       17.2 secs

     total energy              =    -753.45478679 Ry
     estimated scf accuracy    <       0.00000586 Ry

     total magnetization       =     3.34 Bohr mag/cell
     absolute magnetization    =     3.67 Bohr mag/cell

     iteration #  6     ecut=   110.00 Ry     beta= 0.70
     Davidson diagonalization with overlap

---- Real-time Memory Report at c_bands before calling an iterative solver
            84 MiB given to the printing process from OS
             0 MiB allocation reported by mallinfo(arena+hblkhd)
        351769 MiB available memory on the node where the printing process lives
------------------
     ethr =  1.72E-08,  avg # of iterations =  4.2

     total cpu time spent up to now is       19.0 secs

     total energy              =    -753.45478872 Ry
     estimated scf accuracy    <       0.00000143 Ry

     total magnetization       =     3.35 Bohr mag/cell
     absolute magnetization    =     3.68 Bohr mag/cell

     iteration #  7     ecut=   110.00 Ry     beta= 0.70
     Davidson diagonalization with overlap

---- Real-time Memory Report at c_bands before calling an iterative solver
            84 MiB given to the printing process from OS
             0 MiB allocation reported by mallinfo(arena+hblkhd)
        351762 MiB available memory on the node where the printing process lives
------------------
     ethr =  4.20E-09,  avg # of iterations =  6.2

     total cpu time spent up to now is       21.3 secs

     total energy              =    -753.45478815 Ry
     estimated scf accuracy    <       0.00000359 Ry

     total magnetization       =     3.35 Bohr mag/cell
     absolute magnetization    =     3.68 Bohr mag/cell

     iteration #  8     ecut=   110.00 Ry     beta= 0.70
     Davidson diagonalization with overlap

---- Real-time Memory Report at c_bands before calling an iterative solver
            85 MiB given to the printing process from OS
             0 MiB allocation reported by mallinfo(arena+hblkhd)
        351757 MiB available memory on the node where the printing process lives
------------------
     ethr =  4.20E-09,  avg # of iterations =  6.2

     total cpu time spent up to now is       23.7 secs

     total energy              =    -753.45478758 Ry
     estimated scf accuracy    <       0.00001059 Ry

     total magnetization       =     3.35 Bohr mag/cell
     absolute magnetization    =     3.68 Bohr mag/cell

     iteration #  9     ecut=   110.00 Ry     beta= 0.70
     Davidson diagonalization with overlap

---- Real-time Memory Report at c_bands before calling an iterative solver
            89 MiB given to the printing process from OS
             0 MiB allocation reported by mallinfo(arena+hblkhd)
        351746 MiB available memory on the node where the printing process lives
------------------
     ethr =  4.20E-09,  avg # of iterations =  5.2

     total cpu time spent up to now is       26.0 secs

     total energy              =    -753.45479011 Ry
     estimated scf accuracy    <       0.00000101 Ry

     total magnetization       =     3.35 Bohr mag/cell
     absolute magnetization    =     3.68 Bohr mag/cell

     iteration # 10     ecut=   110.00 Ry     beta= 0.70
     Davidson diagonalization with overlap

---- Real-time Memory Report at c_bands before calling an iterative solver
            89 MiB given to the printing process from OS
             0 MiB allocation reported by mallinfo(arena+hblkhd)
        351742 MiB available memory on the node where the printing process lives
------------------
     ethr =  2.97E-09,  avg # of iterations =  1.9
 
     Magnetic moment per site  (integrated on atomic sphere of radius R)
     atom   1 (R=0.409)  charge= 15.5926  magn=  1.7526
     atom   2 (R=0.409)  charge= 15.5926  magn=  1.7526

     total cpu time spent up to now is       27.3 secs

     End of self-consistent calculation

 ------ SPIN UP ------------


          k = 0.0000 0.0000 0.0000 (  2875 PWs)   bands (ev):

   -77.8227 -77.7695 -41.2153 -40.9423 -40.9423 -40.9046 -40.8965 -40.8965
     9.4071  13.1916  15.6907  15.6993  15.6993  16.0079  16.0079  16.3213
    16.3213  17.4131  17.4131  18.1175  24.4994

     occupation numbers 
     1.0000   1.0000   1.0000   1.0000   1.0000   1.0000   1.0000   1.0000
     1.0000   1.0000   1.0000   1.0000   1.0000   1.0000   1.0000   1.0000
     1.0000   1.0000   1.0000   1.0000   0.0000

          k = 0.0000 0.0000 0.1034 (  2893 PWs)   bands (ev):

   -77.8191 -77.7731 -41.1947 -40.9393 -40.9393 -40.9257 -40.8995 -40.8995
     9.6823  13.1231  15.6206  15.6318  15.6318  15.9338  15.9338  16.4860
    16.4860  17.1507  17.3980  17.3980  26.0310

     occupation numbers 
     1.0000   1.0000   1.0000   1.0000   1.0000   1.0000   1.0000   1.0000
     1.0000   1.0000   1.0000   1.0000   1.0000   1.0000   1.0000   1.0000
     1.0000   1.0000   1.0000   1.0000   0.0000

          k = 0.0000 0.0000 0.2068 (  2894 PWs)   bands (ev):

   -77.8094 -77.7828 -41.1384 -40.9831 -40.9309 -40.9309 -40.9079 -40.9079
    10.4721  12.6873  15.4579  15.5752  15.5752  15.7710  15.7710  15.8274
    16.8064  16.8064  17.3129  17.3129  29.2485

     occupation numbers 
     1.0000   1.0000   1.0000   1.0000   1.0000   1.0000   1.0000   1.0000
     1.0000   1.0000   1.0000   1.0000   1.0000   1.0000   1.0000   1.0000
     1.0000   1.0000   1.0000   1.0000   0.0000

          k = 0.0000 0.0000-0.3103 (  2858 PWs)   bands (ev):

   -77.7961 -77.7961 -41.0610 -41.0610 -40.9194 -40.9194 -40.9194 -40.9194
    11.6248  11.6248  15.3788  15.3788  15.6265  15.6265  15.6265  15.6265
    17.1101  17.1101  17.1101  17.1101  33.0822

     occupation numbers 
     1.0000   1.0000   1.0000   1.0000   1.0000   1.0000   1.0000   1.0000
     1.0000   1.0000   1.0000   1.0000   1.0000   1.0000   1.0000   1.0000
     1.0000   1.0000   1.0000   1.0000   0.0000

          k = 0.0000 0.0962 0.0000 (  2875 PWs)   bands (ev):

   -77.8198 -77.7682 -41.2086 -40.9567 -40.9471 -40.9115 -40.9074 -40.8989
     9.6450  13.3327  15.4711  15.8096  15.8815  15.9640  16.1053  16.1752
    16.2522  16.6560  17.4428  19.1867  24.5405

     occupation numbers 
     1.0000   1.0000   1.0000   1.0000   1.0000   1.0000   1.0000   1.0000
     1.0000   1.0000   1.0000   1.0000   1.0000   1.0000   1.0000   1.0000
     1.0000   1.0000   1.0000   0.0000   0.0000

          k = 0.0000 0.0962 0.1034 (  2884 PWs)   bands (ev):

   -77.8163 -77.7717 -41.1892 -40.9532 -40.9439 -40.9343 -40.9080 -40.9021
     9.9161  13.2789  15.4674  15.7055  15.7248  15.7857  16.0251  16.3312
    16.4445  16.5435  17.4204  18.3896  26.1404

     occupation numbers 
     1.0000   1.0000   1.0000   1.0000   1.0000   1.0000   1.0000   1.0000
     1.0000   1.0000   1.0000   1.0000   1.0000   1.0000   1.0000   1.0000
     1.0000   1.0000   1.0000   0.0000   0.0000

          k = 0.0000 0.0962 0.2068 (  2879 PWs)   bands (ev):

   -77.8069 -77.7811 -41.1361 -40.9894 -40.9434 -40.9351 -40.9169 -40.9109
    10.6936  12.8720  15.3662  15.4315  15.5059  15.6617  15.8613  15.9447
    16.7825  16.8285  17.3191  17.6108  29.4006

     occupation numbers 
     1.0000   1.0000   1.0000   1.0000   1.0000   1.0000   1.0000   1.0000
     1.0000   1.0000   1.0000   1.0000   1.0000   1.0000   1.0000   1.0000
     1.0000   1.0000   1.0000   1.0000   0.0000

          k = 0.0000 0.0962-0.3103 (  2888 PWs)   bands (ev):

   -77.7940 -77.7940 -41.0630 -41.0630 -40.9301 -40.9301 -40.9230 -40.9230
    11.8280  11.8280  15.2264  15.2264  15.6497  15.6497  15.7148  15.7148
    17.0998  17.0998  17.2014  17.2014  33.2473

     occupation numbers 
     1.0000   1.0000   1.0000   1.0000   1.0000   1.0000   1.0000   1.0000
     1.0000   1.0000   1.0000   1.0000   1.0000   1.0000   1.0000   1.0000
     1.0000   1.0000   1.0000   1.0000   0.0000

          k = 0.0000 0.1925 0.0000 (  2890 PWs)   bands (ev):

   -77.8117 -77.7648 -41.1896 -40.9963 -40.9599 -40.9520 -40.9161 -40.9056
    10.3339  13.6821  15.2020  15.4857  15.7974  16.0816  16.1213  16.1786
    16.2900  16.3783  17.5063  20.7487  24.6846

     occupation numbers 
     1.0000   1.0000   1.0000   1.0000   1.0000   1.0000   1.0000   1.0000
     1.0000   1.0000   1.0000   1.0000   1.0000   1.0000   1.0000   1.0000
     1.0000   1.0000   1.0000   0.0000   0.0000

          k = 0.0000 0.1925 0.1034 (  2884 PWs)   bands (ev):

   -77.8085 -77.7680 -41.1741 -40.9912 -40.9684 -40.9562 -40.9208 -40.9093
    10.5894  13.6730  15.2163  15.2423  15.6817  15.9210  16.0622  16.2619
    16.4329  16.5324  17.4678  19.6035  26.4952

     occupation numbers 
     1.0000   1.0000   1.0000   1.0000   1.0000   1.0000   1.0000   1.0000
     1.0000   1.0000   1.0000   1.0000   1.0000   1.0000   1.0000   1.0000
     1.0000   1.0000   1.0000   0.0000   0.0000

          k = 0.0000 0.1925 0.2068 (  2892 PWs)   bands (ev):

   -77.8000 -77.7766 -41.1315 -41.0139 -40.9749 -40.9463 -40.9348 -40.9192
    11.3189  13.3513  14.8804  15.2913  15.4104  15.8720  15.8846  16.1119
    16.7592  16.9209  17.3325  18.2505  29.8548

     occupation numbers 
     1.0000   1.0000   1.0000   1.0000   1.0000   1.0000   1.0000   1.0000
     1.0000   1.0000   1.0000   1.0000   1.0000   1.0000   1.0000   1.0000
     1.0000   1.0000   1.0000   0.9900   0.0000

          k = 0.0000 0.1925-0.3103 (  2900 PWs)   bands (ev):

   -77.7883 -77.7883 -41.0729 -41.0729 -40.9548 -40.9548 -40.9328 -40.9328
    12.3761  12.3761  14.9950  14.9950  15.5997  15.5997  15.9503  15.9503
    17.0856  17.0856  17.4467  17.4467  33.6921

     occupation numbers 
     1.0000   1.0000   1.0000   1.0000   1.0000   1.0000   1.0000   1.0000
     1.0000   1.0000   1.0000   1.0000   1.0000   1.0000   1.0000   1.0000
     1.0000   1.0000   1.0000   1.0000   0.0000

          k = 0.0000 0.2887 0.0000 (  2894 PWs)   bands (ev):

   -77.8002 -77.7606 -41.1611 -41.0507 -41.0066 -40.9768 -40.9304 -40.9154
    11.3791  13.9653  14.7812  15.0347  15.7085  15.8763  16.0977  16.5731
    16.5930  16.7707  17.5667  22.5142  24.9614

     occupation numbers 
     1.0000   1.0000   1.0000   1.0000   1.0000   1.0000   1.0000   1.0000
     1.0000   1.0000   1.0000   1.0000   1.0000   1.0000   1.0000   1.0000
     1.0000   1.0000   1.0000   0.0000   0.0000

          k = 0.0000 0.2887 0.1034 (  2891 PWs)   bands (ev):

   -77.7975 -77.7633 -41.1543 -41.0411 -41.0198 -40.9727 -40.9338 -40.9195
    11.5931  14.0099  14.6390  15.0839  15.5586  15.9137  16.1054  16.6172
    16.7076  16.7249  17.5134  20.8677  27.1272

     occupation numbers 
     1.0000   1.0000   1.0000   1.0000   1.0000   1.0000   1.0000   1.0000
     1.0000   1.0000   1.0000   1.0000   1.0000   1.0000   1.0000   1.0000
     1.0000   1.0000   1.0000   0.0000   0.0000

          k = 0.0000 0.2887 0.2068 (  2894 PWs)   bands (ev):

   -77.7903 -77.7705 -41.1333 -41.0593 -41.0085 -40.9615 -40.9483 -40.9307
    12.1893  13.7814  14.5527  15.1216  15.4247  15.9504  16.0333  16.4661
    16.8769  17.0823  17.3581  19.0177  30.4598

     occupation numbers 
     1.0000   1.0000   1.0000   1.0000   1.0000   1.0000   1.0000   1.0000
     1.0000   1.0000   1.0000   1.0000   1.0000   1.0000   1.0000   1.0000
     1.0000   1.0000   1.0000   0.0000   0.0000

          k = 0.0000 0.2887-0.3103 (  2924 PWs)   bands (ev):

   -77.7804 -77.7804 -41.0993 -41.0993 -40.9755 -40.9755 -40.9461 -40.9461
    13.0146  13.0146  14.8450  14.8450  15.6559  15.6559  16.2317  16.2317
    17.1268  17.1268  17.7898  17.7898  32.4459

     occupation numbers 
     1.0000   1.0000   1.0000   1.0000   1.0000   1.0000   1.0000   1.0000
     1.0000   1.0000   1.0000   1.0000   1.0000   1.0000   1.0000   1.0000
     1.0000   1.0000   1.0000   1.0000   0.0000

          k = 0.0000 0.3849 0.0000 (  2886 PWs)   bands (ev):

   -77.7878 -77.7573 -41.1276 -41.1056 -41.0601 -40.9933 -40.9497 -40.9254
    12.5294  13.9052  14.2693  15.1338  15.6913  15.8276  15.9283  17.0539
    17.1964  17.2543  17.6084  24.4412  25.0132

     occupation numbers 
     1.0000   1.0000   1.0000   1.0000   1.0000   1.0000   1.0000   1.0000
     1.0000   1.0000   1.0000   1.0000   1.0000   1.0000   1.0000   1.0000
     1.0000   1.0000   1.0000   0.0000   0.0000

          k = 0.0000 0.3849 0.1034 (  2896 PWs)   bands (ev):

   -77.7858 -77.7593 -41.1461 -41.0830 -41.0643 -40.9888 -40.9497 -40.9300
    12.6330  13.9403  14.2981  15.0019  15.7426  15.7818  16.2638  17.0750
    17.1043  17.1915  17.5551  22.0958  27.0842

     occupation numbers 
     1.0000   1.0000   1.0000   1.0000   1.0000   1.0000   1.0000   1.0000
     1.0000   1.0000   1.0000   1.0000   1.0000   1.0000   1.0000   1.0000
     1.0000   1.0000   1.0000   0.0000   0.0000

          k = 0.0000 0.3849 0.2068 (  2903 PWs)   bands (ev):

   -77.7802 -77.7649 -41.1526 -41.1094 -41.0232 -40.9764 -40.9581 -40.9425
    12.9200  13.7646  14.4332  14.9345  15.8301  16.0371  16.5549  16.7978
    17.1776  17.3062  17.4374  19.9003  28.1387

     occupation numbers 
     1.0000   1.0000   1.0000   1.0000   1.0000   1.0000   1.0000   1.0000
     1.0000   1.0000   1.0000   1.0000   1.0000   1.0000   1.0000   1.0000
     1.0000   1.0000   1.0000   0.0000   0.0000

          k = 0.0000 0.3849-0.3103 (  2910 PWs)   bands (ev):

   -77.7725 -77.7725 -41.1384 -41.1384 -40.9832 -40.9832 -40.9594 -40.9594
    13.3326  13.3326  14.7256  14.7256  16.2342  16.2342  16.4061  16.4061
    17.3025  17.3025  18.2677  18.2677  29.2581

     occupation numbers 
     1.0000   1.0000   1.0000   1.0000   1.0000   1.0000   1.0000   1.0000
     1.0000   1.0000   1.0000   1.0000   1.0000   1.0000   1.0000   1.0000
     1.0000   1.0000   0.7037   0.7037   0.0000

          k = 0.0000 0.4811 0.0000 (  2904 PWs)   bands (ev):

   -77.7776 -77.7559 -41.1461 -41.0988 -41.0966 -41.0052 -40.9703 -40.9330
    13.3023  13.7232  13.9632  15.4785  15.5650  15.8087  16.0241  17.4127
    17.5491  17.6309  18.3344  23.1474  26.4324

     occupation numbers 
     1.0000   1.0000   1.0000   1.0000   1.0000   1.0000   1.0000   1.0000
     1.0000   1.0000   1.0000   1.0000   1.0000   1.0000   1.0000   1.0000
     1.0000   1.0000   0.0000   0.0000   0.0000

          k = 0.0000 0.4811 0.1034 (  2903 PWs)   bands (ev):

   -77.7762 -77.7574 -41.1645 -41.1157 -41.0653 -41.0004 -40.9663 -40.9378
    13.2018  13.7246  14.2643  14.9017  15.6759  16.0191  16.6062  17.3602
    17.4503  17.6233  18.1799  22.4022  25.6851

     occupation numbers 
     1.0000   1.0000   1.0000   1.0000   1.0000   1.0000   1.0000   1.0000
     1.0000   1.0000   1.0000   1.0000   1.0000   1.0000   1.0000   1.0000
     1.0000   1.0000   1.0000   0.0000   0.0000

          k = 0.0000 0.4811 0.2068 (  2906 PWs)   bands (ev):

   -77.7722 -77.7613 -41.1785 -41.1466 -41.0200 -40.9872 -40.9666 -40.9511
    13.1775  13.6532  14.4207  14.7484  15.9906  16.2500  16.9606  17.4787
    17.5366  17.5862  17.8836  20.7203  25.7957

     occupation numbers 
     1.0000   1.0000   1.0000   1.0000   1.0000   1.0000   1.0000   1.0000
     1.0000   1.0000   1.0000   1.0000   1.0000   1.0000   1.0000   1.0000
     1.0000   1.0000   1.0000   0.0000   0.0000

          k = 0.0000 0.4811-0.3103 (  2896 PWs)   bands (ev):

   -77.7668 -77.7668 -41.1715 -41.1715 -40.9842 -40.9842 -40.9692 -40.9692
    13.3629  13.3629  14.6095  14.6095  16.4528  16.4528  16.9409  16.9409
    17.5325  17.5325  19.0891  19.0891  26.5746

     occupation numbers 
     1.0000   1.0000   1.0000   1.0000   1.0000   1.0000   1.0000   1.0000
     1.0000   1.0000   1.0000   1.0000   1.0000   1.0000   1.0000   1.0000
     1.0000   1.0000   0.0000   0.0000   0.0000

          k = 0.0000-0.5774 0.0000 (  2906 PWs)   bands (ev):

   -77.7734 -77.7560 -41.1610 -41.1128 -41.0821 -41.0095 -40.9810 -40.9358
    13.5715  13.5808  13.8616  15.5203  15.7190  15.7656  16.0988  17.5423
    17.6378  17.6919  19.4706  21.4328  27.7236

     occupation numbers 
     1.0000   1.0000   1.0000   1.0000   1.0000   1.0000   1.0000   1.0000
     1.0000   1.0000   1.0000   1.0000   1.0000   1.0000   1.0000   1.0000
     1.0000   1.0000   0.0000   0.0000   0.0000

          k = 0.0000-0.5774 0.1034 (  2912 PWs)   bands (ev):

   -77.7722 -77.7571 -41.1757 -41.1289 -41.0574 -41.0046 -40.9748 -40.9407
    13.3087  13.6309  14.3001  14.8746  15.6370  16.1052  16.8000  17.4243
    17.5928  17.6842  19.2742  21.2675  26.8268

     occupation numbers 
     1.0000   1.0000   1.0000   1.0000   1.0000   1.0000   1.0000   1.0000
     1.0000   1.0000   1.0000   1.0000   1.0000   1.0000   1.0000   1.0000
     1.0000   1.0000   0.0000   0.0000   0.0000

          k = 0.0000-0.5774 0.2068 (  2892 PWs)   bands (ev):

   -77.7690 -77.7603 -41.1897 -41.1602 -41.0159 -40.9911 -40.9707 -40.9543
    13.2014  13.6098  14.4443  14.6636  15.9689  16.3911  16.9962  17.6056
    17.6497  17.6630  18.9783  20.7013  25.7412

     occupation numbers 
     1.0000   1.0000   1.0000   1.0000   1.0000   1.0000   1.0000   1.0000
     1.0000   1.0000   1.0000   1.0000   1.0000   1.0000   1.0000   1.0000
     1.0000   1.0000   0.0000   0.0000   0.0000

          k = 0.0000-0.5774-0.3103 (  2900 PWs)   bands (ev):

   -77.7647 -77.7647 -41.1842 -41.1842 -40.9840 -40.9840 -40.9727 -40.9727
    13.3480  13.3480  14.5635  14.5635  16.4575  16.4575  17.1775  17.1775
    17.6340  17.6340  19.7360  19.7360  25.3298

     occupation numbers 
     1.0000   1.0000   1.0000   1.0000   1.0000   1.0000   1.0000   1.0000
     1.0000   1.0000   1.0000   1.0000   1.0000   1.0000   1.0000   1.0000
     1.0000   1.0000   0.0000   0.0000   0.0000

          k = 0.0833 0.1443 0.0000 (  2872 PWs)   bands (ev):

   -77.8142 -77.7659 -41.1958 -40.9812 -40.9616 -40.9340 -40.9132 -40.9053
    10.1092  13.5835  15.2596  15.7245  15.8617  16.0351  16.0352  16.0564
    16.3207  16.4046  17.4801  20.3102  24.6350

     occupation numbers 
     1.0000   1.0000   1.0000   1.0000   1.0000   1.0000   1.0000   1.0000
     1.0000   1.0000   1.0000   1.0000   1.0000   1.0000   1.0000   1.0000
     1.0000   1.0000   1.0000   0.0000   0.0000

          k = 0.0833 0.1443 0.1034 (  2874 PWs)   bands (ev):

   -77.8110 -77.7691 -41.1789 -40.9766 -40.9633 -40.9479 -40.9162 -40.9088
    10.3706  13.5600  15.2834  15.3997  15.7235  15.8870  16.0365  16.1812
    16.4616  16.5111  17.4494  19.2741  26.3745

     occupation numbers 
     1.0000   1.0000   1.0000   1.0000   1.0000   1.0000   1.0000   1.0000
     1.0000   1.0000   1.0000   1.0000   1.0000   1.0000   1.0000   1.0000
     1.0000   1.0000   1.0000   0.0000   0.0000

          k = 0.0833 0.1443 0.2068 (  2890 PWs)   bands (ev):

   -77.8022 -77.7780 -41.1325 -41.0049 -40.9639 -40.9460 -40.9270 -40.9182
    11.1187  13.2103  15.0018  15.3377  15.4220  15.8129  15.8960  16.0335
    16.7876  16.8654  17.3320  18.0651  29.7066

     occupation numbers 
     1.0000   1.0000   1.0000   1.0000   1.0000   1.0000   1.0000   1.0000
     1.0000   1.0000   1.0000   1.0000   1.0000   1.0000   1.0000   1.0000
     1.0000   1.0000   1.0000   1.0000   0.0000

          k = 0.0833 0.1443-0.3103 (  2892 PWs)   bands (ev):

   -77.7901 -77.7901 -41.0689 -41.0689 -40.9475 -40.9475 -40.9300 -40.9300
    12.2071  12.2071  15.0530  15.0530  15.5995  15.5995  15.8887  15.8887
    17.0908  17.0908  17.3700  17.3700  33.5644

     occupation numbers 
     1.0000   1.0000   1.0000   1.0000   1.0000   1.0000   1.0000   1.0000
     1.0000   1.0000   1.0000   1.0000   1.0000   1.0000   1.0000   1.0000
     1.0000   1.0000   1.0000   1.0000   0.0000

          k = 0.0833 0.2406 0.0000 (  2892 PWs)   bands (ev):

   -77.8044 -77.7621 -41.1720 -41.0247 -40.9973 -40.9614 -40.9248 -40.9165
    10.9842  13.9419  14.9928  15.0404  15.7464  15.8398  16.2548  16.2824
    16.4459  16.7235  17.5263  21.8766  24.8665

     occupation numbers 
     1.0000   1.0000   1.0000   1.0000   1.0000   1.0000   1.0000   1.0000
     1.0000   1.0000   1.0000   1.0000   1.0000   1.0000   1.0000   1.0000
     1.0000   1.0000   1.0000   0.0000   0.0000

          k = 0.0833 0.2406 0.1034 (  2889 PWs)   bands (ev):

   -77.8016 -77.7649 -41.1610 -41.0178 -41.0049 -40.9658 -40.9275 -40.9199
    11.2191  13.9771  14.8330  15.0402  15.6242  15.8780  16.0698  16.3886
    16.6370  16.7078  17.4899  20.4316  26.8898

     occupation numbers 
     1.0000   1.0000   1.0000   1.0000   1.0000   1.0000   1.0000   1.0000
     1.0000   1.0000   1.0000   1.0000   1.0000   1.0000   1.0000   1.0000
     1.0000   1.0000   1.0000   0.0000   0.0000

          k = 0.0833 0.2406 0.2068 (  2896 PWs)   bands (ev):

   -77.7939 -77.7727 -41.1303 -41.0406 -40.9947 -40.9633 -40.9387 -40.9298
    11.8829  13.7203  14.6337  15.1409  15.3713  15.7829  16.0136  16.3408
    16.8766  16.9947  17.3719  18.7506  30.3012

     occupation numbers 
     1.0000   1.0000   1.0000   1.0000   1.0000   1.0000   1.0000   1.0000
     1.0000   1.0000   1.0000   1.0000   1.0000   1.0000   1.0000   1.0000
     1.0000   1.0000   1.0000   0.0000   0.0000

          k = 0.0833 0.2406-0.3103 (  2910 PWs)   bands (ev):

   -77.7833 -77.7833 -41.0866 -41.0866 -40.9701 -40.9701 -40.9421 -40.9421
    12.8288  12.8288  14.8971  14.8971  15.5005  15.5005  16.1581  16.1581
    17.1344  17.1344  17.6666  17.6666  33.8534

     occupation numbers 
     1.0000   1.0000   1.0000   1.0000   1.0000   1.0000   1.0000   1.0000
     1.0000   1.0000   1.0000   1.0000   1.0000   1.0000   1.0000   1.0000
     1.0000   1.0000   1.0000   1.0000   0.0000

          k = 0.0833 0.3368 0.0000 (  2899 PWs)   bands (ev):

   -77.7925 -77.7584 -41.1407 -41.0781 -41.0425 -40.9862 -40.9418 -40.9285
    12.1169  14.0642  14.4795  14.9173  15.6576  15.7585  16.0669  16.6710
    16.9332  17.2708  17.5653  23.6856  25.2126

     occupation numbers 
     1.0000   1.0000   1.0000   1.0000   1.0000   1.0000   1.0000   1.0000
     1.0000   1.0000   1.0000   1.0000   1.0000   1.0000   1.0000   1.0000
     1.0000   1.0000   1.0000   0.0000   0.0000

          k = 0.0833 0.3368 0.1034 (  2896 PWs)   bands (ev):

   -77.7902 -77.7607 -41.1441 -41.0659 -41.0476 -40.9859 -40.9430 -40.9313
    12.2831  14.1316  14.3858  14.9652  15.5411  15.8809  16.0501  16.6898
    17.0226  17.1404  17.5704  21.6816  27.6027

     occupation numbers 
     1.0000   1.0000   1.0000   1.0000   1.0000   1.0000   1.0000   1.0000
     1.0000   1.0000   1.0000   1.0000   1.0000   1.0000   1.0000   1.0000
     1.0000   1.0000   1.0000   0.0000   0.0000

          k = 0.0833 0.3368 0.2068 (  2901 PWs)   bands (ev):

   -77.7839 -77.7669 -41.1398 -41.0879 -41.0182 -40.9793 -40.9527 -40.9402
    12.7325  13.9008  14.4843  15.0458  15.4525  15.9135  16.0903  16.6616
    17.0999  17.2583  17.5355  19.6002  29.7694

     occupation numbers 
     1.0000   1.0000   1.0000   1.0000   1.0000   1.0000   1.0000   1.0000
     1.0000   1.0000   1.0000   1.0000   1.0000   1.0000   1.0000   1.0000
     1.0000   1.0000   1.0000   0.0000   0.0000

          k = 0.0833 0.3368-0.3103 (  2910 PWs)   bands (ev):

   -77.7754 -77.7754 -41.1193 -41.1193 -40.9852 -40.9852 -40.9546 -40.9546
    13.3305  13.3305  14.8227  14.8227  15.6640  15.6640  16.3493  16.3493
    17.3247  17.3247  18.1207  18.1207  30.9547

     occupation numbers 
     1.0000   1.0000   1.0000   1.0000   1.0000   1.0000   1.0000   1.0000
     1.0000   1.0000   1.0000   1.0000   1.0000   1.0000   1.0000   1.0000
     1.0000   1.0000   1.0000   1.0000   0.0000

          k = 0.0833 0.4330 0.0000 (  2906 PWs)   bands (ev):

   -77.7810 -77.7562 -41.1255 -41.1076 -41.0824 -41.0054 -40.9627 -40.9388
    13.1272  13.8982  14.0997  15.1335  15.5392  15.8814  15.9447  17.1577
    17.3494  17.5898  18.0468  24.4832  25.6530

     occupation numbers 
     1.0000   1.0000   1.0000   1.0000   1.0000   1.0000   1.0000   1.0000
     1.0000   1.0000   1.0000   1.0000   1.0000   1.0000   1.0000   1.0000
     1.0000   1.0000   1.0000   0.0000   0.0000

          k = 0.0833 0.4330 0.1034 (  2904 PWs)   bands (ev):

   -77.7794 -77.7578 -41.1499 -41.1013 -41.0666 -41.0022 -40.9608 -40.9415
    13.1277  13.9258  14.2417  14.9094  15.6182  15.9488  16.2208  17.1059
    17.4091  17.4117  18.0484  22.7412  26.1874

     occupation numbers 
     1.0000   1.0000   1.0000   1.0000   1.0000   1.0000   1.0000   1.0000
     1.0000   1.0000   1.0000   1.0000   1.0000   1.0000   1.0000   1.0000
     1.0000   1.0000   1.0000   0.0000   0.0000

          k = 0.0833 0.4330 0.2068 (  2896 PWs)   bands (ev):

   -77.7748 -77.7624 -41.1630 -41.1295 -41.0244 -40.9902 -40.9668 -40.9482
    13.2198  13.7987  14.4235  14.8950  15.7258  16.1407  16.5894  16.8509
    17.2790  17.5710  18.1164  20.6099  26.8844

     occupation numbers 
     1.0000   1.0000   1.0000   1.0000   1.0000   1.0000   1.0000   1.0000
     1.0000   1.0000   1.0000   1.0000   1.0000   1.0000   1.0000   1.0000
     1.0000   1.0000   1.0000   0.0000   0.0000

          k = 0.0833 0.4330-0.3103 (  2892 PWs)   bands (ev):

   -77.7686 -77.7686 -41.1546 -41.1546 -40.9935 -40.9935 -40.9629 -40.9629
    13.4676  13.4676  14.7134  14.7134  16.1559  16.1559  16.5304  16.5304
    17.5231  17.5231  18.9511  18.9511  27.9277

     occupation numbers 
     1.0000   1.0000   1.0000   1.0000   1.0000   1.0000   1.0000   1.0000
     1.0000   1.0000   1.0000   1.0000   1.0000   1.0000   1.0000   1.0000
     1.0000   1.0000   0.0000   0.0000   0.0000

          k = 0.0833 0.5292 0.0000 (  2918 PWs)   bands (ev):

   -77.7734 -77.7559 -41.1530 -41.1055 -41.0823 -41.0161 -40.9809 -40.9447
    13.5911  13.7378  13.9097  15.4847  15.4915  15.7586  16.0957  17.5055
    17.5751  17.6007  19.2977  22.1890  27.5320

     occupation numbers 
     1.0000   1.0000   1.0000   1.0000   1.0000   1.0000   1.0000   1.0000
     1.0000   1.0000   1.0000   1.0000   1.0000   1.0000   1.0000   1.0000
     1.0000   1.0000   0.0000   0.0000   0.0000

          k = 0.0833 0.5292 0.1034 (  2907 PWs)   bands (ev):

   -77.7722 -77.7571 -41.1678 -41.1221 -41.0589 -41.0096 -40.9762 -40.9477
    13.3854  13.7578  14.3272  14.8556  15.5446  16.1410  16.4713  17.3751
    17.5372  17.6073  19.2366  21.9454  26.2332

     occupation numbers 
     1.0000   1.0000   1.0000   1.0000   1.0000   1.0000   1.0000   1.0000
     1.0000   1.0000   1.0000   1.0000   1.0000   1.0000   1.0000   1.0000
     1.0000   1.0000   0.0000   0.0000   0.0000

          k = 0.0833 0.5292 0.2068 (  2909 PWs)   bands (ev):

   -77.7690 -77.7603 -41.1819 -41.1531 -41.0244 -40.9909 -40.9786 -40.9533
    13.3015  13.7326  14.4511  14.7656  15.7163  16.4431  16.8499  17.0889
    17.4957  17.6844  19.2903  21.1243  25.4751

     occupation numbers 
     1.0000   1.0000   1.0000   1.0000   1.0000   1.0000   1.0000   1.0000
     1.0000   1.0000   1.0000   1.0000   1.0000   1.0000   1.0000   1.0000
     1.0000   1.0000   0.0000   0.0000   0.0000

          k = 0.0833 0.5292-0.3103 (  2902 PWs)   bands (ev):

   -77.7647 -77.7647 -41.1768 -41.1768 -40.9982 -40.9982 -40.9660 -40.9660
    13.4578  13.4578  14.6325  14.6325  16.2541  16.2541  16.9531  16.9531
    17.5632  17.5632  20.0229  20.0229  25.7445

     occupation numbers 
     1.0000   1.0000   1.0000   1.0000   1.0000   1.0000   1.0000   1.0000
     1.0000   1.0000   1.0000   1.0000   1.0000   1.0000   1.0000   1.0000
     1.0000   1.0000   0.0000   0.0000   0.0000

          k = 0.1667 0.2887 0.0000 (  2902 PWs)   bands (ev):

   -77.7941 -77.7588 -41.1453 -41.0562 -41.0472 -40.9779 -40.9392 -40.9359
    11.9711  14.2313  14.5901  14.7068  15.5907  15.7561  16.1560  16.4452
    16.9215  17.2906  17.5286  23.4300  25.2532

     occupation numbers 
     1.0000   1.0000   1.0000   1.0000   1.0000   1.0000   1.0000   1.0000
     1.0000   1.0000   1.0000   1.0000   1.0000   1.0000   1.0000   1.0000
     1.0000   1.0000   1.0000   0.0000   0.0000

          k = 0.1667 0.2887 0.1034 (  2905 PWs)   bands (ev):

   -77.7918 -77.7612 -41.1442 -41.0542 -41.0418 -40.9853 -40.9398 -40.9365
    12.1584  14.3260  14.4518  14.7582  15.5665  15.7661  16.0345  16.5190
    17.0380  17.1314  17.5827  21.5438  27.6081

     occupation numbers 
     1.0000   1.0000   1.0000   1.0000   1.0000   1.0000   1.0000   1.0000
     1.0000   1.0000   1.0000   1.0000   1.0000   1.0000   1.0000   1.0000
     1.0000   1.0000   1.0000   0.0000   0.0000

          k = 0.1667 0.2887 0.2068 (  2902 PWs)   bands (ev):

   -77.7853 -77.7676 -41.1343 -41.0786 -41.0108 -40.9878 -40.9493 -40.9414
    12.6714  14.0184  14.5835  14.9075  15.4018  15.6329  16.0283  16.6016
    17.1144  17.2353  17.6101  19.5226  30.9477

     occupation numbers 
     1.0000   1.0000   1.0000   1.0000   1.0000   1.0000   1.0000   1.0000
     1.0000   1.0000   1.0000   1.0000   1.0000   1.0000   1.0000   1.0000
     1.0000   1.0000   1.0000   0.0000   0.0000

          k = 0.1667 0.2887-0.3103 (  2910 PWs)   bands (ev):

   -77.7765 -77.7765 -41.1104 -41.1104 -40.9873 -40.9873 -40.9534 -40.9534
    13.3625  13.3625  14.9008  14.9008  15.3531  15.3531  16.3007  16.3007
    17.3736  17.3736  18.0995  18.0995  32.6718

     occupation numbers 
     1.0000   1.0000   1.0000   1.0000   1.0000   1.0000   1.0000   1.0000
     1.0000   1.0000   1.0000   1.0000   1.0000   1.0000   1.0000   1.0000
     1.0000   1.0000   1.0000   1.0000   0.0000

          k = 0.1667 0.3849 0.0000 (  2911 PWs)   bands (ev):

   -77.7829 -77.7564 -41.1134 -41.0983 -41.0778 -41.0036 -40.9587 -40.9546
    13.0582  14.2229  14.2362  14.6738  15.4401  15.8963  15.9710  16.7434
    17.3508  17.5270  18.0683  25.2612  25.6130

     occupation numbers 
     1.0000   1.0000   1.0000   1.0000   1.0000   1.0000   1.0000   1.0000
     1.0000   1.0000   1.0000   1.0000   1.0000   1.0000   1.0000   1.0000
     1.0000   1.0000   1.0000   0.0000   0.0000

          k = 0.1667 0.3849 0.1034 (  2906 PWs)   bands (ev):

   -77.7812 -77.7582 -41.1353 -41.0946 -41.0564 -41.0098 -40.9611 -40.9492
    13.1408  14.1676  14.3239  14.7545  15.4970  15.8703  15.9297  16.7721
    17.3141  17.4379  18.1566  22.8203  27.6257

     occupation numbers 
     1.0000   1.0000   1.0000   1.0000   1.0000   1.0000   1.0000   1.0000
     1.0000   1.0000   1.0000   1.0000   1.0000   1.0000   1.0000   1.0000
     1.0000   1.0000   1.0000   0.0000   0.0000

          k = 0.1667 0.3849 0.2068 (  2898 PWs)   bands (ev):

   -77.7763 -77.7630 -41.1465 -41.1152 -41.0224 -41.0068 -40.9683 -40.9471
    13.3632  13.9697  14.5663  14.9855  15.4231  15.7073  16.0574  16.7286
    17.2198  17.5865  18.3394  20.6234  28.5719

     occupation numbers 
     1.0000   1.0000   1.0000   1.0000   1.0000   1.0000   1.0000   1.0000
     1.0000   1.0000   1.0000   1.0000   1.0000   1.0000   1.0000   1.0000
     1.0000   1.0000   0.0000   0.0000   0.0000

          k = 0.1667 0.3849-0.3103 (  2894 PWs)   bands (ev):

   -77.7697 -77.7697 -41.1379 -41.1379 -41.0057 -41.0057 -40.9596 -40.9596
    13.6668  13.6668  14.9026  14.9026  15.4972  15.4972  16.3220  16.3220
    17.5771  17.5771  19.0355  19.0355  29.7245

     occupation numbers 
     1.0000   1.0000   1.0000   1.0000   1.0000   1.0000   1.0000   1.0000
     1.0000   1.0000   1.0000   1.0000   1.0000   1.0000   1.0000   1.0000
     1.0000   1.0000   0.0000   0.0000   0.0000

          k = 0.1667 0.4811 0.0000 (  2914 PWs)   bands (ev):

   -77.7734 -77.7559 -41.1321 -41.0923 -41.0826 -41.0280 -40.9805 -40.9673
    13.7572  14.0176  14.0298  14.9682  15.3983  15.7706  16.0922  17.1372
    17.5247  17.5649  19.2167  23.8277  27.2471

     occupation numbers 
     1.0000   1.0000   1.0000   1.0000   1.0000   1.0000   1.0000   1.0000
     1.0000   1.0000   1.0000   1.0000   1.0000   1.0000   1.0000   1.0000
     1.0000   1.0000   0.0000   0.0000   0.0000

          k = 0.1667 0.4811 0.1034 (  2906 PWs)   bands (ev):

   -77.7723 -77.7571 -41.1472 -41.1114 -41.0588 -41.0231 -40.9811 -40.9611
    13.6139  14.0939  14.2660  14.7969  15.4501  15.9010  16.1548  17.1202
    17.3325  17.6262  19.3008  23.3073  26.0178

     occupation numbers 
     1.0000   1.0000   1.0000   1.0000   1.0000   1.0000   1.0000   1.0000
     1.0000   1.0000   1.0000   1.0000   1.0000   1.0000   1.0000   1.0000
     1.0000   1.0000   0.0000   0.0000   0.0000

          k = 0.1667 0.4811 0.2068 (  2908 PWs)   bands (ev):

   -77.7691 -77.7603 -41.1625 -41.1384 -41.0398 -41.0073 -40.9813 -40.9532
    13.5798  14.0145  14.4649  15.0008  15.3470  16.0205  16.3610  16.8157
    17.3030  17.7021  19.6148  21.8169  26.0725

     occupation numbers 
     1.0000   1.0000   1.0000   1.0000   1.0000   1.0000   1.0000   1.0000
     1.0000   1.0000   1.0000   1.0000   1.0000   1.0000   1.0000   1.0000
     1.0000   1.0000   0.0000   0.0000   0.0000

          k = 0.1667 0.4811-0.3103 (  2900 PWs)   bands (ev):

   -77.7647 -77.7647 -41.1593 -41.1593 -41.0208 -41.0208 -40.9611 -40.9611
    13.7361  13.7361  14.8066  14.8066  15.7488  15.7488  16.5080  16.5080
    17.5829  17.5829  20.4212  20.4212  26.9503

     occupation numbers 
     1.0000   1.0000   1.0000   1.0000   1.0000   1.0000   1.0000   1.0000
     1.0000   1.0000   1.0000   1.0000   1.0000   1.0000   1.0000   1.0000
     1.0000   1.0000   0.0000   0.0000   0.0000

          k = 0.1667 0.5774 0.0000 (  2920 PWs)   bands (ev):

   -77.7692 -77.7565 -41.1444 -41.0966 -41.0670 -41.0383 -40.9928 -40.9717
    13.9322  13.9362  13.9443  15.1814  15.4144  15.6665  16.1759  17.4038
    17.5236  17.5447  20.4657  21.9939  28.3434

     occupation numbers 
     1.0000   1.0000   1.0000   1.0000   1.0000   1.0000   1.0000   1.0000
     1.0000   1.0000   1.0000   1.0000   1.0000   1.0000   1.0000   1.0000
     1.0000   1.0000   0.0000   0.0000   0.0000

          k = 0.1667 0.5774 0.1034 (  2910 PWs)   bands (ev):

   -77.7684 -77.7573 -41.1562 -41.1142 -41.0621 -41.0187 -40.9934 -40.9661
    13.6436  14.0109  14.4284  14.7779  15.3742  16.0185  16.2428  17.3035
    17.4001  17.5979  20.5682  21.9510  27.3225

     occupation numbers 
     1.0000   1.0000   1.0000   1.0000   1.0000   1.0000   1.0000   1.0000
     1.0000   1.0000   1.0000   1.0000   1.0000   1.0000   1.0000   1.0000
     1.0000   1.0000   0.0000   0.0000   0.0000

          k = 0.1667 0.5774 0.2068 (  2905 PWs)   bands (ev):

   -77.7660 -77.7596 -41.1701 -41.1456 -41.0473 -41.0063 -40.9849 -40.9562
    13.5799  14.0280  14.5003  14.9599  15.2647  16.2173  16.4782  16.8845
    17.4151  17.6365  20.8806  21.7726  26.0323

     occupation numbers 
     1.0000   1.0000   1.0000   1.0000   1.0000   1.0000   1.0000   1.0000
     1.0000   1.0000   1.0000   1.0000   1.0000   1.0000   1.0000   1.0000
     1.0000   1.0000   0.0000   0.0000   0.0000

          k = 0.1667 0.5774-0.3103 (  2910 PWs)   bands (ev):

   -77.7628 -77.7628 -41.1673 -41.1673 -41.0266 -41.0266 -40.9612 -40.9612
    13.7399  13.7399  14.7676  14.7676  15.7871  15.7871  16.7067  16.7067
    17.5236  17.5236  21.3674  21.3674  25.5380

     occupation numbers 
     1.0000   1.0000   1.0000   1.0000   1.0000   1.0000   1.0000   1.0000
     1.0000   1.0000   1.0000   1.0000   1.0000   1.0000   1.0000   1.0000
     1.0000   1.0000   0.0000   0.0000   0.0000

          k = 0.2500 0.4330 0.0000 (  2902 PWs)   bands (ev):

   -77.7735 -77.7559 -41.1139 -41.0939 -41.0828 -41.0281 -40.9840 -40.9803
    13.8794  14.0795  14.4089  14.4635  15.3364  15.7852  16.0990  16.9179
    17.4857  17.5710  19.2224  25.5791  26.3099

     occupation numbers 
     1.0000   1.0000   1.0000   1.0000   1.0000   1.0000   1.0000   1.0000
     1.0000   1.0000   1.0000   1.0000   1.0000   1.0000   1.0000   1.0000
     1.0000   1.0000   0.0000   0.0000   0.0000

          k = 0.2500 0.4330 0.1034 (  2908 PWs)   bands (ev):

   -77.7723 -77.7571 -41.1268 -41.1178 -41.0446 -41.0412 -40.9867 -40.9660
    13.8881  14.0321  14.4757  14.5872  15.4856  15.6450  16.0887  16.9487
    17.2823  17.6341  19.3477  24.0964  26.5923

     occupation numbers 
     1.0000   1.0000   1.0000   1.0000   1.0000   1.0000   1.0000   1.0000
     1.0000   1.0000   1.0000   1.0000   1.0000   1.0000   1.0000   1.0000
     1.0000   1.0000   0.0000   0.0000   0.0000

          k = 0.2500 0.4330 0.2068 (  2909 PWs)   bands (ev):

   -77.7691 -77.7603 -41.1480 -41.1331 -41.0454 -41.0224 -40.9806 -40.9534
    13.8992  13.9792  14.6381  14.9662  15.3291  15.5985  16.1147  16.7327
    17.2734  17.7089  19.7245  22.0887  27.3736

     occupation numbers 
     1.0000   1.0000   1.0000   1.0000   1.0000   1.0000   1.0000   1.0000
     1.0000   1.0000   1.0000   1.0000   1.0000   1.0000   1.0000   1.0000
     1.0000   1.0000   0.0000   0.0000   0.0000

          k = 0.2500 0.4330-0.3103 (  2898 PWs)   bands (ev):

   -77.7647 -77.7647 -41.1485 -41.1485 -41.0332 -41.0332 -40.9596 -40.9596
    13.9318  13.9318  14.9512  14.9512  15.3869  15.3869  16.3146  16.3146
    17.6019  17.6019  20.5711  20.5711  28.3975

     occupation numbers 
     1.0000   1.0000   1.0000   1.0000   1.0000   1.0000   1.0000   1.0000
     1.0000   1.0000   1.0000   1.0000   1.0000   1.0000   1.0000   1.0000
     1.0000   1.0000   0.0000   0.0000   0.0000

          k = 0.2500 0.5292 0.0000 (  2914 PWs)   bands (ev):

   -77.7663 -77.7573 -41.1260 -41.0853 -41.0554 -41.0553 -41.0028 -41.0026
    14.0056  14.1754  14.2795  14.7604  15.3546  15.5929  16.2620  17.1837
    17.4613  17.5188  20.8511  23.3699  25.6671

     occupation numbers 
     1.0000   1.0000   1.0000   1.0000   1.0000   1.0000   1.0000   1.0000
     1.0000   1.0000   1.0000   1.0000   1.0000   1.0000   1.0000   1.0000
     1.0000   1.0000   0.0000   0.0000   0.0000

          k = 0.2500 0.5292 0.1034 (  2915 PWs)   bands (ev):

   -77.7657 -77.7579 -41.1324 -41.1079 -41.0736 -41.0253 -41.0072 -40.9808
    13.9475  14.3050  14.4009  14.6624  15.3839  15.5943  16.2649  17.1888
    17.2594  17.5616  21.0388  23.3979  25.7188

     occupation numbers 
     1.0000   1.0000   1.0000   1.0000   1.0000   1.0000   1.0000   1.0000
     1.0000   1.0000   1.0000   1.0000   1.0000   1.0000   1.0000   1.0000
     1.0000   1.0000   0.0000   0.0000   0.0000

          k = 0.2500 0.5292 0.2068 (  2918 PWs)   bands (ev):

   -77.7641 -77.7595 -41.1483 -41.1345 -41.0720 -41.0329 -40.9790 -40.9602
    13.9652  14.3085  14.5638  14.8446  15.2580  15.6123  16.3046  16.7619
    17.3393  17.6005  21.5359  23.1313  25.6525

     occupation numbers 
     1.0000   1.0000   1.0000   1.0000   1.0000   1.0000   1.0000   1.0000
     1.0000   1.0000   1.0000   1.0000   1.0000   1.0000   1.0000   1.0000
     1.0000   1.0000   0.0000   0.0000   0.0000

          k = 0.2500 0.5292-0.3103 (  2904 PWs)   bands (ev):

   -77.7618 -77.7618 -41.1510 -41.1510 -41.0536 -41.0536 -40.9588 -40.9588
    14.1000  14.1000  14.8490  14.8490  15.3930  15.3930  16.4284  16.4284
    17.5146  17.5146  22.3034  22.3034  26.1898

     occupation numbers 
     1.0000   1.0000   1.0000   1.0000   1.0000   1.0000   1.0000   1.0000
     1.0000   1.0000   1.0000   1.0000   1.0000   1.0000   1.0000   1.0000
     1.0000   1.0000   0.0000   0.0000   0.0000

          k = 0.3333 0.5774 0.0000 (  2934 PWs)   bands (ev):

   -77.7607 -77.7607 -41.1181 -41.0725 -41.0725 -41.0280 -41.0280 -41.0246
    14.0117  14.3670  14.3670  14.6532  15.4286  15.4286  16.3576  17.3249
    17.3249  17.4360  22.5760  23.3605  23.3605

     occupation numbers 
     1.0000   1.0000   1.0000   1.0000   1.0000   1.0000   1.0000   1.0000
     1.0000   1.0000   1.0000   1.0000   1.0000   1.0000   1.0000   1.0000
     1.0000   1.0000   0.0000   0.0000   0.0000

          k = 0.3333 0.5774 0.1034 (  2910 PWs)   bands (ev):

   -77.7607 -77.7607 -41.1119 -41.1001 -41.1001 -41.0309 -41.0002 -41.0002
    14.1047  14.3909  14.3909  14.6729  15.4041  15.4041  16.3294  17.2051
    17.3627  17.3627  22.9729  23.4391  23.4391

     occupation numbers 
     1.0000   1.0000   1.0000   1.0000   1.0000   1.0000   1.0000   1.0000
     1.0000   1.0000   1.0000   1.0000   1.0000   1.0000   1.0000   1.0000
     1.0000   1.0000   0.0000   0.0000   0.0000

          k = 0.3333 0.5774 0.2068 (  2901 PWs)   bands (ev):

   -77.7607 -77.7607 -41.1307 -41.1307 -41.0948 -41.0481 -40.9695 -40.9695
    14.3425  14.4370  14.4370  14.6892  15.3615  15.3615  16.2906  16.7340
    17.4342  17.4342  23.6353  23.6353  23.9886

     occupation numbers 
     1.0000   1.0000   1.0000   1.0000   1.0000   1.0000   1.0000   1.0000
     1.0000   1.0000   1.0000   1.0000   1.0000   1.0000   1.0000   1.0000
     1.0000   1.0000   0.0000   0.0000   0.0000

          k = 0.3333 0.5774-0.3103 (  2922 PWs)   bands (ev):

   -77.7607 -77.7607 -41.1422 -41.1422 -41.0715 -41.0715 -40.9579 -40.9579
    14.4590  14.4590  14.5891  14.5891  15.3435  15.3435  16.3820  16.3820
    17.4680  17.4680  23.7631  23.7632  25.3872

     occupation numbers 
     1.0000   1.0000   1.0000   1.0000   1.0000   1.0000   1.0000   1.0000
     1.0000   1.0000   1.0000   1.0000   1.0000   1.0000   1.0000   1.0000
     1.0000   1.0000   0.0000   0.0000   0.0000

 ------ SPIN DOWN ----------


          k = 0.0000 0.0000 0.0000 (  2875 PWs)   bands (ev):

   -75.6801 -75.6228 -39.1425 -38.8565 -38.8565 -38.8071 -38.8071 -38.8028
     9.4050  14.1726  17.3981  17.4090  17.4090  17.7747  17.7747  18.0558
    18.1741  18.1741  19.3923  19.3923  25.5643

     occupation numbers 
     1.0000   1.0000   1.0000   1.0000   1.0000   1.0000   1.0000   1.0000
     1.0000   1.0000   1.0000   1.0000   1.0000   1.0000   1.0000   1.0000
     1.0000   1.0000   0.0000   0.0000   0.0000

          k = 0.0000 0.0000 0.1034 (  2893 PWs)   bands (ev):

   -75.6763 -75.6266 -39.1201 -38.8532 -38.8532 -38.8259 -38.8104 -38.8104
     9.6816  13.9356  17.3059  17.3396  17.3396  17.4702  17.6897  17.6897
    18.3544  18.3544  19.3779  19.3779  26.8842

     occupation numbers 
     1.0000   1.0000   1.0000   1.0000   1.0000   1.0000   1.0000   1.0000
     1.0000   1.0000   1.0000   1.0000   1.0000   1.0000   1.0000   1.0000
     0.0000   0.0000   0.0000   0.0000   0.0000

          k = 0.0000 0.0000 0.2068 (  2894 PWs)   bands (ev):

   -75.6658 -75.6371 -39.0586 -38.8887 -38.8442 -38.8442 -38.8195 -38.8195
    10.4820  13.0390  16.8450  17.0715  17.2806  17.2806  17.5039  17.5039
    18.7140  18.7140  19.2860  19.2860  29.8617

     occupation numbers 
     1.0000   1.0000   1.0000   1.0000   1.0000   1.0000   1.0000   1.0000
     1.0000   1.0000   1.0000   1.0000   1.0000   1.0000   1.0000   1.0000
     0.0000   0.0000   0.0000   0.0000   0.0000

          k = 0.0000 0.0000-0.3103 (  2858 PWs)   bands (ev):

   -75.6515 -75.6515 -38.9740 -38.9740 -38.8318 -38.8318 -38.8318 -38.8318
    11.6972  11.6972  16.8282  16.8282  17.3400  17.3400  17.3400  17.3400
    19.0580  19.0580  19.0580  19.0580  33.5135

     occupation numbers 
     1.0000   1.0000   1.0000   1.0000   1.0000   1.0000   1.0000   1.0000
     1.0000   1.0000   1.0000   1.0000   1.0000   1.0000   1.0000   1.0000
     0.0000   0.0000   0.0000   0.0000   0.0000

          k = 0.0000 0.0962 0.0000 (  2875 PWs)   bands (ev):

   -75.6770 -75.6214 -39.1352 -38.8723 -38.8617 -38.8235 -38.8096 -38.8059
     9.6441  14.3348  17.1320  17.4418  17.5314  17.6171  17.7136  17.8826
    18.0924  18.1092  19.4280  20.2211  25.5814

     occupation numbers 
     1.0000   1.0000   1.0000   1.0000   1.0000   1.0000   1.0000   1.0000
     1.0000   1.0000   1.0000   1.0000   1.0000   1.0000   1.0000   1.0000
     1.0000   1.0000   0.0000   0.0000   0.0000

          k = 0.0000 0.0962 0.1034 (  2884 PWs)   bands (ev):

   -75.6732 -75.6251 -39.1141 -38.8685 -38.8583 -38.8400 -38.8150 -38.8131
     9.9170  14.1112  17.0150  17.1289  17.4181  17.4447  17.7287  17.7898
    18.3027  18.3217  19.4047  19.8768  26.9670

     occupation numbers 
     1.0000   1.0000   1.0000   1.0000   1.0000   1.0000   1.0000   1.0000
     1.0000   1.0000   1.0000   1.0000   1.0000   1.0000   1.0000   1.0000
     0.0010   0.0000   0.0000   0.0000   0.0000

          k = 0.0000 0.0962 0.2068 (  2879 PWs)   bands (ev):

   -75.6631 -75.6353 -39.0562 -38.8969 -38.8577 -38.8487 -38.8280 -38.8227
    10.7069  13.2314  16.6228  17.0567  17.1782  17.3774  17.5350  17.6027
    18.6836  18.7199  19.2929  19.4748  29.9975

     occupation numbers 
     1.0000   1.0000   1.0000   1.0000   1.0000   1.0000   1.0000   1.0000
     1.0000   1.0000   1.0000   1.0000   1.0000   1.0000   1.0000   1.0000
     0.0000   0.0000   0.0000   0.0000   0.0000

          k = 0.0000 0.0962-0.3103 (  2888 PWs)   bands (ev):

   -75.6492 -75.6492 -38.9766 -38.9766 -38.8430 -38.8430 -38.8357 -38.8357
    11.9060  11.9060  16.7295  16.7295  17.3111  17.3111  17.4374  17.4374
    19.0445  19.0445  19.1205  19.1205  33.6720

     occupation numbers 
     1.0000   1.0000   1.0000   1.0000   1.0000   1.0000   1.0000   1.0000
     1.0000   1.0000   1.0000   1.0000   1.0000   1.0000   1.0000   1.0000
     0.0000   0.0000   0.0000   0.0000   0.0000

          k = 0.0000 0.1925 0.0000 (  2890 PWs)   bands (ev):

   -75.6682 -75.6177 -39.1143 -38.9156 -38.8756 -38.8679 -38.8170 -38.8153
    10.3404  14.7525  16.6217  16.7796  17.4932  17.8789  17.8921  17.9424
    17.9511  18.1861  19.5035  21.6598  25.6503

     occupation numbers 
[...]
    19.5313  19.6123  20.6850  23.1366  28.0400

     occupation numbers 
     1.0000   1.0000   1.0000   1.0000   1.0000   1.0000   1.0000   1.0000
     1.0000   1.0000   1.0000   1.0000   1.0000   1.0000   1.0000   0.0000
     0.0000   0.0000   0.0000   0.0000   0.0000

          k = 0.0833 0.5292 0.1034 (  2907 PWs)   bands (ev):

   -75.6257 -75.6094 -39.1018 -39.0523 -38.9735 -38.9292 -38.8829 -38.8613
    14.3364  14.9725  15.5047  16.0111  17.2281  17.7259  17.7808  19.3341
    19.4904  19.5727  20.5525  22.8151  26.9562

     occupation numbers 
     1.0000   1.0000   1.0000   1.0000   1.0000   1.0000   1.0000   1.0000
     1.0000   1.0000   1.0000   1.0000   1.0000   1.0000   1.0000   0.0000
     0.0000   0.0000   0.0000   0.0000   0.0000

          k = 0.0833 0.5292 0.2068 (  2909 PWs)   bands (ev):

   -75.6222 -75.6128 -39.1159 -39.0850 -38.9395 -38.9059 -38.8907 -38.8636
    14.3281  14.8078  15.8024  16.1171  17.2782  18.0215  18.2180  18.8762
    19.4396  19.6650  20.3410  21.9070  26.3884

     occupation numbers 
     1.0000   1.0000   1.0000   1.0000   1.0000   1.0000   1.0000   1.0000
     1.0000   1.0000   1.0000   1.0000   1.0000   1.0000   1.0000   0.0000
     0.0000   0.0000   0.0000   0.0000   0.0000

          k = 0.0833 0.5292-0.3103 (  2902 PWs)   bands (ev):

   -75.6175 -75.6175 -39.1103 -39.1103 -38.9130 -38.9130 -38.8770 -38.8770
    14.5085  14.5085  16.0730  16.0730  17.7644  17.7644  18.5214  18.5214
    19.5196  19.5196  20.8709  20.8709  26.6393

     occupation numbers 
     1.0000   1.0000   1.0000   1.0000   1.0000   1.0000   1.0000   1.0000
     1.0000   1.0000   1.0000   1.0000   1.0000   1.0000   0.0000   0.0000
     0.0000   0.0000   0.0000   0.0000   0.0000

          k = 0.1667 0.2887 0.0000 (  2902 PWs)   bands (ev):

   -75.6493 -75.6112 -39.0655 -38.9811 -38.9720 -38.8955 -38.8499 -38.8403
    12.0389  15.4501  15.7938  16.1407  17.2849  17.3725  17.8466  18.2527
    18.7638  19.1165  19.5287  24.2080  26.0155

     occupation numbers 
     1.0000   1.0000   1.0000   1.0000   1.0000   1.0000   1.0000   1.0000
     1.0000   1.0000   1.0000   1.0000   1.0000   1.0000   1.0000   0.9817
     0.0000   0.0000   0.0000   0.0000   0.0000

          k = 0.1667 0.2887 0.1034 (  2905 PWs)   bands (ev):

   -75.6468 -75.6138 -39.0663 -38.9786 -38.9636 -38.9019 -38.8541 -38.8399
    12.2527  15.3835  15.6909  16.2057  17.2047  17.4003  17.7345  18.3272
    18.8912  19.0003  19.5336  22.5677  28.2036

     occupation numbers 
     1.0000   1.0000   1.0000   1.0000   1.0000   1.0000   1.0000   1.0000
     1.0000   1.0000   1.0000   1.0000   1.0000   1.0000   1.0000   0.0000
     0.0000   0.0000   0.0000   0.0000   0.0000

          k = 0.1667 0.2887 0.2068 (  2902 PWs)   bands (ev):

   -75.6398 -75.6207 -39.0582 -39.0027 -38.9271 -38.9039 -38.8642 -38.8485
    12.8595  14.6964  15.9355  16.3715  16.9596  17.2339  17.7876  18.3786
    19.0106  19.1160  19.4825  20.8675  31.4305

     occupation numbers 
     1.0000   1.0000   1.0000   1.0000   1.0000   1.0000   1.0000   1.0000
     1.0000   1.0000   1.0000   1.0000   1.0000   1.0000   1.0000   0.0000
     0.0000   0.0000   0.0000   0.0000   0.0000

          k = 0.1667 0.2887-0.3103 (  2910 PWs)   bands (ev):

   -75.6303 -75.6303 -39.0347 -39.0347 -38.9015 -38.9015 -38.8662 -38.8662
    13.7453  13.7453  16.3087  16.3087  16.9215  16.9215  18.0873  18.0873
    19.3064  19.3064  19.7116  19.7116  33.0932

     occupation numbers 
     1.0000   1.0000   1.0000   1.0000   1.0000   1.0000   1.0000   1.0000
     1.0000   1.0000   1.0000   1.0000   1.0000   1.0000   1.0000   1.0000
     0.0000   0.0000   0.0000   0.0000   0.0000

          k = 0.1667 0.3849 0.0000 (  2911 PWs)   bands (ev):

   -75.6372 -75.6086 -39.0305 -39.0276 -39.0049 -38.9235 -38.8702 -38.8615
    13.2811  15.4966  15.5288  15.9433  17.0907  17.5069  17.6220  18.5830
    19.2581  19.5267  19.8150  25.9544  26.2330

     occupation numbers 
     1.0000   1.0000   1.0000   1.0000   1.0000   1.0000   1.0000   1.0000
     1.0000   1.0000   1.0000   1.0000   1.0000   1.0000   1.0000   0.0000
     0.0000   0.0000   0.0000   0.0000   0.0000

          k = 0.1667 0.3849 0.1034 (  2906 PWs)   bands (ev):

   -75.6353 -75.6105 -39.0607 -39.0224 -38.9758 -38.9288 -38.8759 -38.8547
    13.4330  15.3580  15.6322  16.0457  17.0719  17.4661  17.5783  18.6151
    19.2580  19.3593  19.9275  23.6455  28.2458

     occupation numbers 
     1.0000   1.0000   1.0000   1.0000   1.0000   1.0000   1.0000   1.0000
     1.0000   1.0000   1.0000   1.0000   1.0000   1.0000   1.0000   0.0000
     0.0000   0.0000   0.0000   0.0000   0.0000

          k = 0.1667 0.3849 0.2068 (  2898 PWs)   bands (ev):

   -75.6301 -75.6158 -39.0745 -39.0434 -38.9392 -38.9233 -38.8838 -38.8540
    13.8492  14.9721  15.9148  16.2603  16.9427  17.1828  17.7625  18.5613
    19.1184  19.5418  20.0082  21.6704  29.1762

     occupation numbers 
     1.0000   1.0000   1.0000   1.0000   1.0000   1.0000   1.0000   1.0000
     1.0000   1.0000   1.0000   1.0000   1.0000   1.0000   1.0000   0.0000
     0.0000   0.0000   0.0000   0.0000   0.0000

          k = 0.1667 0.3849-0.3103 (  2894 PWs)   bands (ev):

   -75.6229 -75.6229 -39.0664 -39.0664 -38.9226 -38.9226 -38.8701 -38.8701
    14.4165  14.4165  16.2535  16.2535  16.9123  16.9123  18.1187  18.1187
    19.5450  19.5450  20.3591  20.3591  30.2859

     occupation numbers 
     1.0000   1.0000   1.0000   1.0000   1.0000   1.0000   1.0000   1.0000
     1.0000   1.0000   1.0000   1.0000   1.0000   1.0000   1.0000   1.0000
     0.0000   0.0000   0.0000   0.0000   0.0000

          k = 0.1667 0.4811 0.0000 (  2914 PWs)   bands (ev):

   -75.6270 -75.6081 -39.0647 -39.0208 -38.9968 -38.9502 -38.8853 -38.8839
    14.3880  15.3173  15.3224  15.9763  17.0330  17.3706  17.7379  19.0199
    19.5148  19.5238  20.6969  24.5850  27.8354

     occupation numbers 
     1.0000   1.0000   1.0000   1.0000   1.0000   1.0000   1.0000   1.0000
     1.0000   1.0000   1.0000   1.0000   1.0000   1.0000   1.0000   0.0000
     0.0000   0.0000   0.0000   0.0000   0.0000

          k = 0.1667 0.4811 0.1034 (  2906 PWs)   bands (ev):

   -75.6257 -75.6093 -39.0786 -39.0399 -38.9763 -38.9418 -38.8950 -38.8699
    14.4151  15.2690  15.4804  16.0227  17.0476  17.3494  17.7902  19.0077
    19.2885  19.5897  20.7495  24.0041  26.7819

     occupation numbers 
     1.0000   1.0000   1.0000   1.0000   1.0000   1.0000   1.0000   1.0000
     1.0000   1.0000   1.0000   1.0000   1.0000   1.0000   1.0000   0.0000
     0.0000   0.0000   0.0000   0.0000   0.0000

          k = 0.1667 0.4811 0.2068 (  2908 PWs)   bands (ev):

   -75.6222 -75.6128 -39.0940 -39.0686 -38.9596 -38.9234 -38.8950 -38.8607
    14.5345  15.0650  15.8101  16.3039  16.8858  17.3166  17.9877  18.6862
    19.2191  19.6865  20.9004  22.5913  26.8856

     occupation numbers 
     1.0000   1.0000   1.0000   1.0000   1.0000   1.0000   1.0000   1.0000
     1.0000   1.0000   1.0000   1.0000   1.0000   1.0000   1.0000   0.0000
     0.0000   0.0000   0.0000   0.0000   0.0000

          k = 0.1667 0.4811-0.3103 (  2900 PWs)   bands (ev):

   -75.6175 -75.6175 -39.0906 -39.0906 -38.9398 -38.9398 -38.8701 -38.8701
    14.7697  14.7697  16.2198  16.2198  17.0526  17.0526  18.2578  18.2578
    19.5380  19.5380  21.4253  21.4253  27.6909

     occupation numbers 
     1.0000   1.0000   1.0000   1.0000   1.0000   1.0000   1.0000   1.0000
     1.0000   1.0000   1.0000   1.0000   1.0000   1.0000   0.9414   0.9414
     0.0000   0.0000   0.0000   0.0000   0.0000

          k = 0.1667 0.5774 0.0000 (  2920 PWs)   bands (ev):

   -75.6224 -75.6087 -39.0781 -39.0254 -38.9796 -38.9614 -38.8987 -38.8888
    14.8632  15.1832  15.2659  16.0251  17.0697  17.2204  17.8414  19.3262
    19.4985  19.5223  21.5833  23.0305  28.7615

     occupation numbers 
     1.0000   1.0000   1.0000   1.0000   1.0000   1.0000   1.0000   1.0000
     1.0000   1.0000   1.0000   1.0000   1.0000   1.0000   1.0000   0.0000
     0.0000   0.0000   0.0000   0.0000   0.0000

          k = 0.1667 0.5774 0.1034 (  2910 PWs)   bands (ev):

   -75.6215 -75.6096 -39.0892 -39.0434 -38.9810 -38.9350 -38.9064 -38.8769
    14.7303  15.2273  15.6194  15.8654  17.0049  17.3833  17.9026  19.2586
    19.3238  19.5625  21.6161  22.9388  27.9259

     occupation numbers 
     1.0000   1.0000   1.0000   1.0000   1.0000   1.0000   1.0000   1.0000
     1.0000   1.0000   1.0000   1.0000   1.0000   1.0000   1.0000   0.0000
     0.0000   0.0000   0.0000   0.0000   0.0000

          k = 0.1667 0.5774 0.2068 (  2905 PWs)   bands (ev):

   -75.6190 -75.6121 -39.1030 -39.0763 -38.9680 -38.9236 -38.8963 -38.8643
    14.6981  15.1222  15.8738  16.2194  16.7984  17.4864  18.1312  18.7578
    19.3477  19.6075  21.7486  22.6309  26.8254

     occupation numbers 
     1.0000   1.0000   1.0000   1.0000   1.0000   1.0000   1.0000   1.0000
     1.0000   1.0000   1.0000   1.0000   1.0000   1.0000   1.0000   0.0000
     0.0000   0.0000   0.0000   0.0000   0.0000

          k = 0.1667 0.5774-0.3103 (  2910 PWs)   bands (ev):

   -75.6155 -75.6155 -39.0996 -39.0996 -38.9463 -38.9463 -38.8698 -38.8698
    14.8545  14.8545  16.2128  16.2128  17.1030  17.1030  18.4174  18.4174
    19.4746  19.4746  22.1385  22.1385  26.4432

     occupation numbers 
     1.0000   1.0000   1.0000   1.0000   1.0000   1.0000   1.0000   1.0000
     1.0000   1.0000   1.0000   1.0000   1.0000   1.0000   0.0000   0.0000
     0.0000   0.0000   0.0000   0.0000   0.0000

          k = 0.2500 0.4330 0.0000 (  2902 PWs)   bands (ev):

   -75.6270 -75.6080 -39.0447 -39.0224 -38.9970 -38.9505 -38.9022 -38.8850
    14.3884  15.3943  15.6511  15.6668  16.9446  17.3948  17.7407  18.7877
    19.4787  19.5196  20.7330  26.1425  26.9246

     occupation numbers 
     1.0000   1.0000   1.0000   1.0000   1.0000   1.0000   1.0000   1.0000
     1.0000   1.0000   1.0000   1.0000   1.0000   1.0000   1.0000   0.0000
     0.0000   0.0000   0.0000   0.0000   0.0000

          k = 0.2500 0.4330 0.1034 (  2908 PWs)   bands (ev):

   -75.6257 -75.6093 -39.0536 -39.0483 -38.9627 -38.9604 -38.9048 -38.8719
    14.4738  15.3109  15.7193  15.8528  16.9875  17.2215  17.7389  18.8209
    19.2339  19.5986  20.8381  24.7466  27.2128

     occupation numbers 
     1.0000   1.0000   1.0000   1.0000   1.0000   1.0000   1.0000   1.0000
     1.0000   1.0000   1.0000   1.0000   1.0000   1.0000   1.0000   0.0000
     0.0000   0.0000   0.0000   0.0000   0.0000

          k = 0.2500 0.4330 0.2068 (  2909 PWs)   bands (ev):

   -75.6223 -75.6128 -39.0769 -39.0630 -38.9673 -38.9404 -38.8938 -38.8601
    14.6917  15.1679  15.9387  16.2084  16.8437  16.9624  17.8110  18.5923
    19.1804  19.6946  21.0728  22.9047  27.9931

     occupation numbers 
     1.0000   1.0000   1.0000   1.0000   1.0000   1.0000   1.0000   1.0000
     1.0000   1.0000   1.0000   1.0000   1.0000   1.0000   1.0000   0.0000
     0.0000   0.0000   0.0000   0.0000   0.0000

          k = 0.2500 0.4330-0.3103 (  2898 PWs)   bands (ev):

   -75.6175 -75.6175 -39.0784 -39.0784 -38.9542 -38.9542 -38.8681 -38.8681
    14.9528  14.9528  16.2736  16.2736  16.7357  16.7357  18.0994  18.0994
    19.5611  19.5611  21.6350  21.6350  29.0034

     occupation numbers 
     1.0000   1.0000   1.0000   1.0000   1.0000   1.0000   1.0000   1.0000
     1.0000   1.0000   1.0000   1.0000   1.0000   1.0000   1.0000   1.0000
     0.0000   0.0000   0.0000   0.0000   0.0000

          k = 0.2500 0.5292 0.0000 (  2914 PWs)   bands (ev):

   -75.6193 -75.6095 -39.0578 -39.0131 -38.9803 -38.9669 -38.9227 -38.9093
    15.1148  15.3599  15.4908  15.7405  16.9464  17.1604  17.9368  19.0847
    19.4503  19.4664  21.9826  24.1815  26.2466

     occupation numbers 
     1.0000   1.0000   1.0000   1.0000   1.0000   1.0000   1.0000   1.0000
     1.0000   1.0000   1.0000   1.0000   1.0000   1.0000   1.0000   0.0000
     0.0000   0.0000   0.0000   0.0000   0.0000

          k = 0.2500 0.5292 0.1034 (  2915 PWs)   bands (ev):

   -75.6186 -75.6102 -39.0632 -39.0354 -38.9974 -38.9414 -38.9236 -38.8890
    15.0914  15.4616  15.5760  15.8124  16.9239  17.0616  17.9417  19.1002
    19.2006  19.5192  22.1449  24.1665  26.3256

     occupation numbers 
     1.0000   1.0000   1.0000   1.0000   1.0000   1.0000   1.0000   1.0000
     1.0000   1.0000   1.0000   1.0000   1.0000   1.0000   1.0000   0.0000
     0.0000   0.0000   0.0000   0.0000   0.0000

          k = 0.2500 0.5292 0.2068 (  2918 PWs)   bands (ev):

   -75.6168 -75.6120 -39.0784 -39.0636 -38.9968 -38.9544 -38.8889 -38.8675
    15.1385  15.4247  15.8507  16.1583  16.6810  16.9168  18.0015  18.6319
    19.2639  19.5651  22.5263  23.8293  26.4079

     occupation numbers 
     1.0000   1.0000   1.0000   1.0000   1.0000   1.0000   1.0000   1.0000
     1.0000   1.0000   1.0000   1.0000   1.0000   1.0000   1.0000   0.0000
     0.0000   0.0000   0.0000   0.0000   0.0000

          k = 0.2500 0.5292-0.3103 (  2904 PWs)   bands (ev):

   -75.6144 -75.6144 -39.0810 -39.0810 -38.9772 -38.9772 -38.8664 -38.8664
    15.2728  15.2728  16.2439  16.2439  16.6335  16.6335  18.2028  18.2028
    19.4622  19.4622  23.1140  23.1140  26.9468

     occupation numbers 
     1.0000   1.0000   1.0000   1.0000   1.0000   1.0000   1.0000   1.0000
     1.0000   1.0000   1.0000   1.0000   1.0000   1.0000   1.0000   1.0000
     0.0000   0.0000   0.0000   0.0000   0.0000

          k = 0.3333 0.5774 0.0000 (  2934 PWs)   bands (ev):

   -75.6133 -75.6133 -39.0490 -38.9992 -38.9992 -38.9465 -38.9370 -38.9370
    15.3907  15.4696  15.4696  15.6765  16.9906  16.9906  18.0424  19.2482
    19.2482  19.4211  23.4089  24.1678  24.1678

     occupation numbers 
     1.0000   1.0000   1.0000   1.0000   1.0000   1.0000   1.0000   1.0000
     1.0000   1.0000   1.0000   1.0000   1.0000   1.0000   1.0000   0.0000
     0.0000   0.0000   0.0000   0.0000   0.0000

          k = 0.3333 0.5774 0.1034 (  2910 PWs)   bands (ev):

   -75.6133 -75.6133 -39.0422 -39.0260 -39.0260 -38.9534 -38.9100 -38.9100
    15.4630  15.5461  15.5461  15.7097  16.9055  16.9055  18.0200  19.1472
    19.2926  19.2926  23.8225  24.2209  24.2209

     occupation numbers 
     1.0000   1.0000   1.0000   1.0000   1.0000   1.0000   1.0000   1.0000
     1.0000   1.0000   1.0000   1.0000   1.0000   1.0000   1.0000   0.0000
     0.0000   0.0000   0.0000   0.0000   0.0000

          k = 0.3333 0.5774 0.2068 (  2901 PWs)   bands (ev):

   -75.6133 -75.6133 -39.0582 -39.0582 -39.0235 -38.9722 -38.8776 -38.8776
    15.6316  15.7291  15.7291  15.7722  16.7133  16.7133  18.0133  18.6059
    19.3729  19.3729  24.3531  24.3531  24.8244

     occupation numbers 
     1.0000   1.0000   1.0000   1.0000   1.0000   1.0000   1.0000   1.0000
     1.0000   1.0000   1.0000   1.0000   1.0000   1.0000   1.0000   0.0000
     0.0000   0.0000   0.0000   0.0000   0.0000

          k = 0.3333 0.5774-0.3103 (  2922 PWs)   bands (ev):

   -75.6133 -75.6133 -39.0706 -39.0706 -38.9979 -38.9979 -38.8651 -38.8651
    15.7660  15.7660  15.8493  15.8493  16.5920  16.5920  18.1772  18.1772
    19.4092  19.4092  24.4375  24.4375  26.1447

     occupation numbers 
     1.0000   1.0000   1.0000   1.0000   1.0000   1.0000   1.0000   1.0000
     1.0000   1.0000   1.0000   1.0000   1.0000   1.0000   1.0000   1.0000
     0.0000   0.0000   0.0000   0.0000   0.0000

     the Fermi energy is    18.2728 ev

!    total energy              =    -753.45479028 Ry
     total all-electron energy =     -5573.811482 Ry
     estimated scf accuracy    <       0.00000001 Ry
     smearing contrib. (-TS)   =      -0.00002557 Ry
     internal energy E=F+TS    =    -753.45476471 Ry

     The total energy is F=E-TS. E is the sum of the following terms:
     one-electron contribution =    -286.56958905 Ry
     hartree contribution      =     166.44906688 Ry
     xc contribution           =     -61.38016808 Ry
     ewald contribution        =    -396.77967626 Ry
     one-center paw contrib.   =    -175.17439820 Ry
      -> PAW hartree energy AE =     221.90626598 Ry
      -> PAW hartree energy PS =    -220.85114862 Ry
      -> PAW xc energy AE      =    -117.66695067 Ry
      -> PAW xc energy PS      =      29.02463421 Ry
      -> total E_H with PAW    =     167.50418424 Ry
      -> total E_XC with PAW   =    -150.02248455 Ry

     total magnetization       =     3.35 Bohr mag/cell
     absolute magnetization    =     3.68 Bohr mag/cell

     convergence has been achieved in  10 iterations

     Writing all to output data dir ./out/Co.save/
 
     init_run     :      0.40s CPU      0.51s WALL (       1 calls)
     electrons    :     25.44s CPU     26.66s WALL (       1 calls)

     Called by init_run:
     wfcinit      :      0.27s CPU      0.35s WALL (       1 calls)
     potinit      :      0.09s CPU      0.10s WALL (       1 calls)
     hinit0       :      0.03s CPU      0.03s WALL (       1 calls)

     Called by electrons:
     c_bands      :     22.74s CPU     23.72s WALL (      10 calls)
     sum_band     :      1.80s CPU      1.88s WALL (      10 calls)
     v_of_rho     :      0.04s CPU      0.04s WALL (      11 calls)
     v_h          :      0.00s CPU      0.00s WALL (      11 calls)
     v_xc         :      0.04s CPU      0.04s WALL (      11 calls)
     newd         :      0.04s CPU      0.05s WALL (      11 calls)
     PAW_pot      :      0.89s CPU      1.04s WALL (      11 calls)
     mix_rho      :      0.01s CPU      0.01s WALL (      10 calls)

     Called by c_bands:
     init_us_2    :      0.12s CPU      0.12s WALL (    3040 calls)
     init_us_2:cp :      0.12s CPU      0.12s WALL (    3040 calls)
     cegterg      :     21.97s CPU     22.83s WALL (    1520 calls)

     Called by sum_band:
     sum_band:wei :      0.01s CPU      0.01s WALL (      10 calls)
     sum_band:loo :      1.70s CPU      1.78s WALL (      10 calls)
     sum_band:buf :      0.01s CPU      0.01s WALL (    1520 calls)
     sum_band:ini :      0.07s CPU      0.06s WALL (    1520 calls)
     sum_band:cal :      0.15s CPU      0.15s WALL (    1520 calls)
     sum_band:bec :      0.00s CPU      0.01s WALL (    1520 calls)
     addusdens    :      0.07s CPU      0.07s WALL (      10 calls)
                                        0.00s GPU  (      10 calls)
     addusd:skk   :      0.00s CPU      0.00s WALL (      10 calls)
                                        0.00s GPU  (      10 calls)

     Called by *egterg:
     cdiaghg      :      5.54s CPU      5.65s WALL (   10919 calls)
     cegterg:over :      0.77s CPU      0.74s WALL (    9551 calls)
     cegterg:upda :      0.09s CPU      0.19s WALL (    9551 calls)
     cegterg:last :      0.36s CPU      0.39s WALL (    7000 calls)
     h_psi        :     14.30s CPU     14.94s WALL (   11071 calls)
     s_psi        :      0.31s CPU      0.26s WALL (   11071 calls)
     g_psi        :      0.05s CPU      0.06s WALL (    9551 calls)

     Called by h_psi:
     h_psi:calbec :      0.79s CPU      0.76s WALL (   11071 calls)
     vloc_psi     :     13.29s CPU     13.84s WALL (   11071 calls)
     add_vuspsi   :      0.18s CPU      0.27s WALL (   11071 calls)

     General routines
     calbec       :      0.94s CPU      0.89s WALL (   12591 calls)
     fft          :      0.02s CPU      0.02s WALL (     269 calls)
     ffts         :      0.00s CPU      0.00s WALL (      42 calls)
     fftw         :     13.90s CPU     14.20s WALL (  337078 calls)
     interpolate  :      0.00s CPU      0.00s WALL (      22 calls)
 
     Parallel routines

     PAW routines
     PAW_pot      :      0.89s CPU      1.04s WALL (      11 calls)
     PAW_symme    :      0.01s CPU      0.01s WALL (      20 calls)
 
     PWSCF        :     26.18s CPU     27.97s WALL

 
   This run was terminated on:   8:25:59  22Mar2024            

=------------------------------------------------------------------------------=
   JOB DONE.
=------------------------------------------------------------------------------=
