
     Program PWSCF v.7.2 starts on 22Mar2024 at  8:49:20 

     This program is part of the open-source Quantum ESPRESSO suite
     for quantum simulation of materials; please cite
         "P. Giannozzi et al., J. Phys.:Condens. Matter 21 395502 (2009);
         "P. Giannozzi et al., J. Phys.:Condens. Matter 29 465901 (2017);
         "P. Giannozzi et al., J. Chem. Phys. 152 154105 (2020);
          URL http://www.quantum-espresso.org", 
     in publications or presentations arising from this work. More details at
     http://www.quantum-espresso.org/quote

     Parallel version (MPI), running on    20 processors

     MPI processes distributed on     1 nodes
     241358 MiB available memory on the printing compute node when the environment starts
 
     Waiting for input...
     Reading input from standard input

     Current dimensions of program PWSCF are:
     Max number of different atomic species (ntypx) = 10
     Max number of k-points (npk) = 120000
     Max angular momentum in pseudopotentials (lmaxx) =  4
     file Co.pbe-spn-kjpaw_psl.0.3.1.UPF: wavefunction(s)  3P 3D renormalized
 
     R & G space division:  proc/nbgrp/npool/nimage =      20
     Subspace diagonalization in iterative solution of the eigenvalue problem:
     a serial algorithm will be used

 
     Parallelization info
     --------------------
     sticks:   dense  smooth     PW     G-vecs:    dense   smooth      PW
     Min          33      33      9                 1157     1129     179
     Max          34      34     10                 1172     1134     186
     Sum         673     673    199                23307    22611    3693
 
     Using Slab Decomposition
 


     bravais-lattice index     =            4
     lattice parameter (alat)  =       4.6865  a.u.
     unit-cell volume          =     144.6760 (a.u.)^3
     number of atoms/cell      =            2
     number of atomic types    =            1
     number of electrons       =        34.00
     number of Kohn-Sham states=           21
     kinetic-energy cutoff     =     110.0000  Ry
     charge density cutoff     =     450.0000  Ry
     scf convergence threshold =      1.0E-06
     mixing beta               =       0.7000
     number of iterations used =            8  plain     mixing
     Exchange-correlation= SLA  PW   PBX  PBC
                           (   1   4   3   4   0   0   0)

     celldm(1)=   4.686521  celldm(2)=   0.000000  celldm(3)=   1.622984
     celldm(4)=   0.000000  celldm(5)=   0.000000  celldm(6)=   0.000000

     crystal axes: (cart. coord. in units of alat)
               a(1) = (   1.000000   0.000000   0.000000 )  
               a(2) = (  -0.500000   0.866025   0.000000 )  
               a(3) = (   0.000000   0.000000   1.622984 )  

     reciprocal axes: (cart. coord. in units 2 pi/alat)
               b(1) = (  1.000000  0.577350  0.000000 )  
               b(2) = (  0.000000  1.154701  0.000000 )  
               b(3) = (  0.000000  0.000000  0.616149 )  


     PseudoPot. # 1 for Co read from file:
     /truba/home/amuhaymin/ZnS/pseudo/QE/Co.pbe-spn-kjpaw_psl.0.3.1.UPF
     MD5 check sum: b0a1ad65bf214e88c1f3d33b20c7d919
     Pseudo is Projector augmented-wave + core cor, Zval = 17.0
     Generated using &quot;atomic&quot; code by A. Dal Corso  v.6.2.2
     Shape of augmentation charge: PSQ
     Using radial grid of 1193 points,  6 beta functions with: 
                l(1) =   0
                l(2) =   0
                l(3) =   1
                l(4) =   1
                l(5) =   2
                l(6) =   2
     Q(r) pseudized with 0 coefficients 


     atomic species   valence    mass     pseudopotential
        Co            17.00    58.93300     Co( 1.00)

     Starting magnetic structure 
     atomic species   magnetization
        Co           0.294

     24 Sym. Ops., with inversion, found (12 have fractional translation)


                                    s                        frac. trans.

      isym =  1     identity                                     

 cryst.   s( 1) = (     1          0          0      )
                  (     0          1          0      )
                  (     0          0          1      )

 cart.    s( 1) = (  1.0000000  0.0000000  0.0000000 )
                  (  0.0000000  1.0000000  0.0000000 )
                  (  0.0000000  0.0000000  1.0000000 )


      isym =  2     180 deg rotation - cart. axis [0,0,1]        

 cryst.   s( 2) = (    -1          0          0      )    f =(  0.0000000 )
                  (     0         -1          0      )       (  0.0000000 )
                  (     0          0          1      )       ( -0.5000000 )

 cart.    s( 2) = ( -1.0000000  0.0000000  0.0000000 )    f =(  0.0000000 )
                  (  0.0000000 -1.0000000  0.0000000 )       (  0.0000000 )
                  (  0.0000000  0.0000000  1.0000000 )       ( -0.8114919 )


      isym =  3     180 deg rotation - cart. axis [0,1,0]        

 cryst.   s( 3) = (    -1          0          0      )    f =(  0.0000000 )
                  (     1          1          0      )       (  0.0000000 )
                  (     0          0         -1      )       (  0.5000000 )

 cart.    s( 3) = ( -1.0000000  0.0000000  0.0000000 )    f =(  0.0000000 )
                  (  0.0000000  1.0000000  0.0000000 )       (  0.0000000 )
                  (  0.0000000  0.0000000 -1.0000000 )       (  0.8114919 )


      isym =  4     180 deg rotation - cart. axis [1,0,0]        

 cryst.   s( 4) = (     1          0          0      )
                  (    -1         -1          0      )
                  (     0          0         -1      )

 cart.    s( 4) = (  1.0000000  0.0000000  0.0000000 )
                  (  0.0000000 -1.0000000  0.0000000 )
                  (  0.0000000  0.0000000 -1.0000000 )


      isym =  5      60 deg rotation - cryst. axis [0,0,1]       

 cryst.   s( 5) = (     1          1          0      )    f =(  0.0000000 )
                  (    -1          0          0      )       ( -0.0000000 )
                  (     0          0          1      )       ( -0.5000000 )

 cart.    s( 5) = (  0.5000000 -0.8660254  0.0000000 )    f =(  0.0000000 )
                  (  0.8660254  0.5000000  0.0000000 )       ( -0.0000000 )
                  (  0.0000000  0.0000000  1.0000000 )       ( -0.8114919 )


      isym =  6      60 deg rotation - cryst. axis [0,0,-1]      

 cryst.   s( 6) = (     0         -1          0      )    f =(  0.0000000 )
                  (     1          1          0      )       ( -0.0000000 )
                  (     0          0          1      )       ( -0.5000000 )

 cart.    s( 6) = (  0.5000000  0.8660254  0.0000000 )    f =(  0.0000000 )
                  ( -0.8660254  0.5000000  0.0000000 )       ( -0.0000000 )
                  (  0.0000000  0.0000000  1.0000000 )       ( -0.8114919 )


      isym =  7     120 deg rotation - cryst. axis [0,0,1]       

 cryst.   s( 7) = (     0          1          0      )
                  (    -1         -1          0      )
                  (     0          0          1      )

 cart.    s( 7) = ( -0.5000000 -0.8660254  0.0000000 )
                  (  0.8660254 -0.5000000  0.0000000 )
                  (  0.0000000  0.0000000  1.0000000 )


      isym =  8     120 deg rotation - cryst. axis [0,0,-1]      

 cryst.   s( 8) = (    -1         -1          0      )
                  (     1          0          0      )
                  (     0          0          1      )

 cart.    s( 8) = ( -0.5000000  0.8660254  0.0000000 )
                  ( -0.8660254 -0.5000000  0.0000000 )
                  (  0.0000000  0.0000000  1.0000000 )


      isym =  9     180 deg rotation - cryst. axis [1,-1,0]      

 cryst.   s( 9) = (     0         -1          0      )    f =(  0.0000000 )
                  (    -1          0          0      )       (  0.0000000 )
                  (     0          0         -1      )       (  0.5000000 )

 cart.    s( 9) = (  0.5000000 -0.8660254  0.0000000 )    f =(  0.0000000 )
                  ( -0.8660254 -0.5000000  0.0000000 )       (  0.0000000 )
                  (  0.0000000  0.0000000 -1.0000000 )       (  0.8114919 )


      isym = 10     180 deg rotation - cryst. axis [2,1,0]       

 cryst.   s(10) = (     1          1          0      )    f =(  0.0000000 )
                  (     0         -1          0      )       ( -0.0000000 )
                  (     0          0         -1      )       (  0.5000000 )

 cart.    s(10) = (  0.5000000  0.8660254  0.0000000 )    f =(  0.0000000 )
                  (  0.8660254 -0.5000000  0.0000000 )       ( -0.0000000 )
                  (  0.0000000  0.0000000 -1.0000000 )       (  0.8114919 )


      isym = 11     180 deg rotation - cryst. axis [0,1,0]       

 cryst.   s(11) = (    -1         -1          0      )
                  (     0          1          0      )
                  (     0          0         -1      )

 cart.    s(11) = ( -0.5000000 -0.8660254  0.0000000 )
                  ( -0.8660254  0.5000000  0.0000000 )
                  (  0.0000000  0.0000000 -1.0000000 )


      isym = 12     180 deg rotation - cryst. axis [1,1,0]       

 cryst.   s(12) = (     0          1          0      )
                  (     1          0          0      )
                  (     0          0         -1      )

 cart.    s(12) = ( -0.5000000  0.8660254  0.0000000 )
                  (  0.8660254  0.5000000  0.0000000 )
                  (  0.0000000  0.0000000 -1.0000000 )


      isym = 13     inversion                                    

 cryst.   s(13) = (    -1          0          0      )
                  (     0         -1          0      )
                  (     0          0         -1      )

 cart.    s(13) = ( -1.0000000  0.0000000  0.0000000 )
                  (  0.0000000 -1.0000000  0.0000000 )
                  (  0.0000000  0.0000000 -1.0000000 )


      isym = 14     inv. 180 deg rotation - cart. axis [0,0,1]   

 cryst.   s(14) = (     1          0          0      )    f =(  0.0000000 )
                  (     0          1          0      )       (  0.0000000 )
                  (     0          0         -1      )       (  0.5000000 )

 cart.    s(14) = (  1.0000000  0.0000000  0.0000000 )    f =(  0.0000000 )
                  (  0.0000000  1.0000000  0.0000000 )       (  0.0000000 )
                  (  0.0000000  0.0000000 -1.0000000 )       (  0.8114919 )


      isym = 15     inv. 180 deg rotation - cart. axis [0,1,0]   

 cryst.   s(15) = (     1          0          0      )    f =(  0.0000000 )
                  (    -1         -1          0      )       (  0.0000000 )
                  (     0          0          1      )       ( -0.5000000 )

 cart.    s(15) = (  1.0000000  0.0000000  0.0000000 )    f =(  0.0000000 )
                  (  0.0000000 -1.0000000  0.0000000 )       (  0.0000000 )
                  (  0.0000000  0.0000000  1.0000000 )       ( -0.8114919 )


      isym = 16     inv. 180 deg rotation - cart. axis [1,0,0]   

 cryst.   s(16) = (    -1          0          0      )
                  (     1          1          0      )
                  (     0          0          1      )

 cart.    s(16) = ( -1.0000000  0.0000000  0.0000000 )
                  (  0.0000000  1.0000000  0.0000000 )
                  (  0.0000000  0.0000000  1.0000000 )


      isym = 17     inv.  60 deg rotation - cryst. axis [0,0,1]  

 cryst.   s(17) = (    -1         -1          0      )    f =(  0.0000000 )
                  (     1          0          0      )       (  0.0000000 )
                  (     0          0         -1      )       (  0.5000000 )

 cart.    s(17) = ( -0.5000000  0.8660254  0.0000000 )    f =(  0.0000000 )
                  ( -0.8660254 -0.5000000  0.0000000 )       (  0.0000000 )
                  (  0.0000000  0.0000000 -1.0000000 )       (  0.8114919 )


      isym = 18     inv.  60 deg rotation - cryst. axis [0,0,-1] 

 cryst.   s(18) = (     0          1          0      )    f =(  0.0000000 )
                  (    -1         -1          0      )       ( -0.0000000 )
                  (     0          0         -1      )       (  0.5000000 )

 cart.    s(18) = ( -0.5000000 -0.8660254  0.0000000 )    f =(  0.0000000 )
                  (  0.8660254 -0.5000000  0.0000000 )       ( -0.0000000 )
                  (  0.0000000  0.0000000 -1.0000000 )       (  0.8114919 )


      isym = 19     inv. 120 deg rotation - cryst. axis [0,0,1]  

 cryst.   s(19) = (     0         -1          0      )
                  (     1          1          0      )
                  (     0          0         -1      )

 cart.    s(19) = (  0.5000000  0.8660254  0.0000000 )
                  ( -0.8660254  0.5000000  0.0000000 )
                  (  0.0000000  0.0000000 -1.0000000 )


      isym = 20     inv. 120 deg rotation - cryst. axis [0,0,-1] 

 cryst.   s(20) = (     1          1          0      )
                  (    -1          0          0      )
                  (     0          0         -1      )

 cart.    s(20) = (  0.5000000 -0.8660254  0.0000000 )
                  (  0.8660254  0.5000000  0.0000000 )
                  (  0.0000000  0.0000000 -1.0000000 )


      isym = 21     inv. 180 deg rotation - cryst. axis [1,-1,0] 

 cryst.   s(21) = (     0          1          0      )    f =(  0.0000000 )
                  (     1          0          0      )       ( -0.0000000 )
                  (     0          0          1      )       ( -0.5000000 )

 cart.    s(21) = ( -0.5000000  0.8660254  0.0000000 )    f =(  0.0000000 )
                  (  0.8660254  0.5000000  0.0000000 )       ( -0.0000000 )
                  (  0.0000000  0.0000000  1.0000000 )       ( -0.8114919 )


      isym = 22     inv. 180 deg rotation - cryst. axis [2,1,0]  

 cryst.   s(22) = (    -1         -1          0      )    f =(  0.0000000 )
                  (     0          1          0      )       ( -0.0000000 )
                  (     0          0          1      )       ( -0.5000000 )

 cart.    s(22) = ( -0.5000000 -0.8660254  0.0000000 )    f =(  0.0000000 )
                  ( -0.8660254  0.5000000  0.0000000 )       ( -0.0000000 )
                  (  0.0000000  0.0000000  1.0000000 )       ( -0.8114919 )


      isym = 23     inv. 180 deg rotation - cryst. axis [0,1,0]  

 cryst.   s(23) = (     1          1          0      )
                  (     0         -1          0      )
                  (     0          0          1      )

 cart.    s(23) = (  0.5000000  0.8660254  0.0000000 )
                  (  0.8660254 -0.5000000  0.0000000 )
                  (  0.0000000  0.0000000  1.0000000 )


      isym = 24     inv. 180 deg rotation - cryst. axis [1,1,0]  

 cryst.   s(24) = (     0         -1          0      )
                  (    -1          0          0      )
                  (     0          0          1      )

 cart.    s(24) = (  0.5000000 -0.8660254  0.0000000 )
                  ( -0.8660254 -0.5000000  0.0000000 )
                  (  0.0000000  0.0000000  1.0000000 )


     point group D_6h(6/mmm)
     there are 12 classes
     the character table:

       E     2C6   2C3   C2    3C2'  3C2'' i     2S3   2S6   s_h   3s_d  3s_v 
A_1g   1.00  1.00  1.00  1.00  1.00  1.00  1.00  1.00  1.00  1.00  1.00  1.00
A_2g   1.00  1.00  1.00  1.00 -1.00 -1.00  1.00  1.00  1.00  1.00 -1.00 -1.00
B_1g   1.00 -1.00  1.00 -1.00  1.00 -1.00  1.00 -1.00  1.00 -1.00  1.00 -1.00
B_2g   1.00 -1.00  1.00 -1.00 -1.00  1.00  1.00 -1.00  1.00 -1.00 -1.00  1.00
E_1g   2.00  1.00 -1.00 -2.00  0.00  0.00  2.00  1.00 -1.00 -2.00  0.00  0.00
E_2g   2.00 -1.00 -1.00  2.00  0.00  0.00  2.00 -1.00 -1.00  2.00  0.00  0.00
A_1u   1.00  1.00  1.00  1.00  1.00  1.00 -1.00 -1.00 -1.00 -1.00 -1.00 -1.00
A_2u   1.00  1.00  1.00  1.00 -1.00 -1.00 -1.00 -1.00 -1.00 -1.00  1.00  1.00
B_1u   1.00 -1.00  1.00 -1.00  1.00 -1.00 -1.00  1.00 -1.00  1.00 -1.00  1.00
B_2u   1.00 -1.00  1.00 -1.00 -1.00  1.00 -1.00  1.00 -1.00  1.00  1.00 -1.00
E_1u   2.00  1.00 -1.00 -2.00  0.00  0.00 -2.00 -1.00  1.00  2.00  0.00  0.00
E_2u   2.00 -1.00 -1.00  2.00  0.00  0.00 -2.00  1.00  1.00 -2.00  0.00  0.00

     the symmetry operations in each class and the name of the first element:

     E        1
          identity                                               
     2C6      5    6
           60 deg rotation - cryst. axis [0,0,1]                 
     2C3      7    8
          120 deg rotation - cryst. axis [0,0,1]                 
     C2       2
          180 deg rotation - cart. axis [0,0,1]                  
     3C2'     4   12   11
          180 deg rotation - cart. axis [1,0,0]                  
     3C2''    3    9   10
          180 deg rotation - cart. axis [0,1,0]                  
     i       13
          inversion                                              
     2S3     17   18
          inv.  60 deg rotation - cryst. axis [0,0,1]            
     2S6     19   20
          inv. 120 deg rotation - cryst. axis [0,0,1]            
     s_h     14
          inv. 180 deg rotation - cart. axis [0,0,1]             
     3s_d    16   24   23
          inv. 180 deg rotation - cart. axis [1,0,0]             
     3s_v    15   21   22
          inv. 180 deg rotation - cart. axis [0,1,0]             

   Cartesian axes

     site n.     atom                  positions (alat units)
         1           Co  tau(   1) = (  -0.0000000   0.5773503   0.4057460  )
         2           Co  tau(   2) = (   0.5000000   0.2886751   1.2172379  )

   Crystallographic axes

     site n.     atom                  positions (cryst. coord.)
         1           Co  tau(   1) = (  0.3333333  0.6666667  0.2500000  )
         2           Co  tau(   2) = (  0.6666667  0.3333333  0.7500000  )

     number of k points=    76  Gaussian smearing, width (Ry)=  0.0010
                       cart. coord. in units 2pi/alat
        k(    1) = (   0.0000000   0.0000000   0.0000000), wk =   0.0011574
        k(    2) = (   0.0000000   0.0000000   0.1026915), wk =   0.0023148
        k(    3) = (   0.0000000   0.0000000   0.2053830), wk =   0.0023148
        k(    4) = (   0.0000000   0.0000000  -0.3080745), wk =   0.0011574
        k(    5) = (   0.0000000   0.0962250   0.0000000), wk =   0.0069444
        k(    6) = (   0.0000000   0.0962250   0.1026915), wk =   0.0138889
        k(    7) = (   0.0000000   0.0962250   0.2053830), wk =   0.0138889
        k(    8) = (   0.0000000   0.0962250  -0.3080745), wk =   0.0069444
        k(    9) = (   0.0000000   0.1924501   0.0000000), wk =   0.0069444
        k(   10) = (   0.0000000   0.1924501   0.1026915), wk =   0.0138889
        k(   11) = (   0.0000000   0.1924501   0.2053830), wk =   0.0138889
        k(   12) = (   0.0000000   0.1924501  -0.3080745), wk =   0.0069444
        k(   13) = (   0.0000000   0.2886751   0.0000000), wk =   0.0069444
        k(   14) = (   0.0000000   0.2886751   0.1026915), wk =   0.0138889
        k(   15) = (   0.0000000   0.2886751   0.2053830), wk =   0.0138889
        k(   16) = (   0.0000000   0.2886751  -0.3080745), wk =   0.0069444
        k(   17) = (   0.0000000   0.3849002   0.0000000), wk =   0.0069444
        k(   18) = (   0.0000000   0.3849002   0.1026915), wk =   0.0138889
        k(   19) = (   0.0000000   0.3849002   0.2053830), wk =   0.0138889
        k(   20) = (   0.0000000   0.3849002  -0.3080745), wk =   0.0069444
        k(   21) = (   0.0000000   0.4811252   0.0000000), wk =   0.0069444
        k(   22) = (   0.0000000   0.4811252   0.1026915), wk =   0.0138889
        k(   23) = (   0.0000000   0.4811252   0.2053830), wk =   0.0138889
        k(   24) = (   0.0000000   0.4811252  -0.3080745), wk =   0.0069444
        k(   25) = (   0.0000000  -0.5773503   0.0000000), wk =   0.0034722
        k(   26) = (   0.0000000  -0.5773503   0.1026915), wk =   0.0069444
        k(   27) = (   0.0000000  -0.5773503   0.2053830), wk =   0.0069444
        k(   28) = (   0.0000000  -0.5773503  -0.3080745), wk =   0.0034722
        k(   29) = (   0.0833333   0.1443376   0.0000000), wk =   0.0069444
        k(   30) = (   0.0833333   0.1443376   0.1026915), wk =   0.0138889
        k(   31) = (   0.0833333   0.1443376   0.2053830), wk =   0.0138889
        k(   32) = (   0.0833333   0.1443376  -0.3080745), wk =   0.0069444
        k(   33) = (   0.0833333   0.2405626   0.0000000), wk =   0.0138889
        k(   34) = (   0.0833333   0.2405626   0.1026915), wk =   0.0277778
        k(   35) = (   0.0833333   0.2405626   0.2053830), wk =   0.0277778
        k(   36) = (   0.0833333   0.2405626  -0.3080745), wk =   0.0138889
        k(   37) = (   0.0833333   0.3367877   0.0000000), wk =   0.0138889
        k(   38) = (   0.0833333   0.3367877   0.1026915), wk =   0.0277778
        k(   39) = (   0.0833333   0.3367877   0.2053830), wk =   0.0277778
        k(   40) = (   0.0833333   0.3367877  -0.3080745), wk =   0.0138889
        k(   41) = (   0.0833333   0.4330127   0.0000000), wk =   0.0138889
        k(   42) = (   0.0833333   0.4330127   0.1026915), wk =   0.0277778
        k(   43) = (   0.0833333   0.4330127   0.2053830), wk =   0.0277778
        k(   44) = (   0.0833333   0.4330127  -0.3080745), wk =   0.0138889
        k(   45) = (   0.0833333   0.5292377   0.0000000), wk =   0.0138889
        k(   46) = (   0.0833333   0.5292377   0.1026915), wk =   0.0277778
        k(   47) = (   0.0833333   0.5292377   0.2053830), wk =   0.0277778
        k(   48) = (   0.0833333   0.5292377  -0.3080745), wk =   0.0138889
        k(   49) = (   0.1666667   0.2886751   0.0000000), wk =   0.0069444
        k(   50) = (   0.1666667   0.2886751   0.1026915), wk =   0.0138889
        k(   51) = (   0.1666667   0.2886751   0.2053830), wk =   0.0138889
        k(   52) = (   0.1666667   0.2886751  -0.3080745), wk =   0.0069444
        k(   53) = (   0.1666667   0.3849002   0.0000000), wk =   0.0138889
        k(   54) = (   0.1666667   0.3849002   0.1026915), wk =   0.0277778
        k(   55) = (   0.1666667   0.3849002   0.2053830), wk =   0.0277778
        k(   56) = (   0.1666667   0.3849002  -0.3080745), wk =   0.0138889
        k(   57) = (   0.1666667   0.4811252   0.0000000), wk =   0.0138889
        k(   58) = (   0.1666667   0.4811252   0.1026915), wk =   0.0277778
        k(   59) = (   0.1666667   0.4811252   0.2053830), wk =   0.0277778
        k(   60) = (   0.1666667   0.4811252  -0.3080745), wk =   0.0138889
        k(   61) = (   0.1666667   0.5773503   0.0000000), wk =   0.0069444
        k(   62) = (   0.1666667   0.5773503   0.1026915), wk =   0.0138889
        k(   63) = (   0.1666667   0.5773503   0.2053830), wk =   0.0138889
        k(   64) = (   0.1666667   0.5773503  -0.3080745), wk =   0.0069444
        k(   65) = (   0.2500000   0.4330127   0.0000000), wk =   0.0069444
        k(   66) = (   0.2500000   0.4330127   0.1026915), wk =   0.0138889
        k(   67) = (   0.2500000   0.4330127   0.2053830), wk =   0.0138889
        k(   68) = (   0.2500000   0.4330127  -0.3080745), wk =   0.0069444
        k(   69) = (   0.2500000   0.5292377   0.0000000), wk =   0.0138889
        k(   70) = (   0.2500000   0.5292377   0.1026915), wk =   0.0277778
        k(   71) = (   0.2500000   0.5292377   0.2053830), wk =   0.0277778
        k(   72) = (   0.2500000   0.5292377  -0.3080745), wk =   0.0138889
        k(   73) = (   0.3333333   0.5773503   0.0000000), wk =   0.0023148
        k(   74) = (   0.3333333   0.5773503   0.1026915), wk =   0.0046296
        k(   75) = (   0.3333333   0.5773503   0.2053830), wk =   0.0046296
        k(   76) = (   0.3333333   0.5773503  -0.3080745), wk =   0.0023148

                       cryst. coord.
        k(    1) = (   0.0000000   0.0000000   0.0000000), wk =   0.0011574
        k(    2) = (   0.0000000   0.0000000   0.1666667), wk =   0.0023148
        k(    3) = (   0.0000000   0.0000000   0.3333333), wk =   0.0023148
        k(    4) = (   0.0000000   0.0000000  -0.5000000), wk =   0.0011574
        k(    5) = (   0.0000000   0.0833333   0.0000000), wk =   0.0069444
        k(    6) = (   0.0000000   0.0833333   0.1666667), wk =   0.0138889
        k(    7) = (   0.0000000   0.0833333   0.3333333), wk =   0.0138889
        k(    8) = (   0.0000000   0.0833333  -0.5000000), wk =   0.0069444
        k(    9) = (   0.0000000   0.1666667   0.0000000), wk =   0.0069444
        k(   10) = (   0.0000000   0.1666667   0.1666667), wk =   0.0138889
        k(   11) = (   0.0000000   0.1666667   0.3333333), wk =   0.0138889
        k(   12) = (   0.0000000   0.1666667  -0.5000000), wk =   0.0069444
        k(   13) = (   0.0000000   0.2500000   0.0000000), wk =   0.0069444
        k(   14) = (   0.0000000   0.2500000   0.1666667), wk =   0.0138889
        k(   15) = (   0.0000000   0.2500000   0.3333333), wk =   0.0138889
        k(   16) = (   0.0000000   0.2500000  -0.5000000), wk =   0.0069444
        k(   17) = (   0.0000000   0.3333333   0.0000000), wk =   0.0069444
        k(   18) = (   0.0000000   0.3333333   0.1666667), wk =   0.0138889
        k(   19) = (   0.0000000   0.3333333   0.3333333), wk =   0.0138889
        k(   20) = (   0.0000000   0.3333333  -0.5000000), wk =   0.0069444
        k(   21) = (   0.0000000   0.4166667   0.0000000), wk =   0.0069444
        k(   22) = (   0.0000000   0.4166667   0.1666667), wk =   0.0138889
        k(   23) = (   0.0000000   0.4166667   0.3333333), wk =   0.0138889
        k(   24) = (   0.0000000   0.4166667  -0.5000000), wk =   0.0069444
        k(   25) = (   0.0000000  -0.5000000   0.0000000), wk =   0.0034722
        k(   26) = (   0.0000000  -0.5000000   0.1666667), wk =   0.0069444
        k(   27) = (   0.0000000  -0.5000000   0.3333333), wk =   0.0069444
        k(   28) = (   0.0000000  -0.5000000  -0.5000000), wk =   0.0034722
        k(   29) = (   0.0833333   0.0833333   0.0000000), wk =   0.0069444
        k(   30) = (   0.0833333   0.0833333   0.1666667), wk =   0.0138889
        k(   31) = (   0.0833333   0.0833333   0.3333333), wk =   0.0138889
        k(   32) = (   0.0833333   0.0833333  -0.5000000), wk =   0.0069444
        k(   33) = (   0.0833333   0.1666667   0.0000000), wk =   0.0138889
        k(   34) = (   0.0833333   0.1666667   0.1666667), wk =   0.0277778
        k(   35) = (   0.0833333   0.1666667   0.3333333), wk =   0.0277778
        k(   36) = (   0.0833333   0.1666667  -0.5000000), wk =   0.0138889
        k(   37) = (   0.0833333   0.2500000   0.0000000), wk =   0.0138889
        k(   38) = (   0.0833333   0.2500000   0.1666667), wk =   0.0277778
        k(   39) = (   0.0833333   0.2500000   0.3333333), wk =   0.0277778
        k(   40) = (   0.0833333   0.2500000  -0.5000000), wk =   0.0138889
        k(   41) = (   0.0833333   0.3333333   0.0000000), wk =   0.0138889
        k(   42) = (   0.0833333   0.3333333   0.1666667), wk =   0.0277778
        k(   43) = (   0.0833333   0.3333333   0.3333333), wk =   0.0277778
        k(   44) = (   0.0833333   0.3333333  -0.5000000), wk =   0.0138889
        k(   45) = (   0.0833333   0.4166667   0.0000000), wk =   0.0138889
        k(   46) = (   0.0833333   0.4166667   0.1666667), wk =   0.0277778
        k(   47) = (   0.0833333   0.4166667   0.3333333), wk =   0.0277778
        k(   48) = (   0.0833333   0.4166667  -0.5000000), wk =   0.0138889
        k(   49) = (   0.1666667   0.1666667   0.0000000), wk =   0.0069444
        k(   50) = (   0.1666667   0.1666667   0.1666667), wk =   0.0138889
        k(   51) = (   0.1666667   0.1666667   0.3333333), wk =   0.0138889
        k(   52) = (   0.1666667   0.1666667  -0.5000000), wk =   0.0069444
        k(   53) = (   0.1666667   0.2500000   0.0000000), wk =   0.0138889
        k(   54) = (   0.1666667   0.2500000   0.1666667), wk =   0.0277778
        k(   55) = (   0.1666667   0.2500000   0.3333333), wk =   0.0277778
        k(   56) = (   0.1666667   0.2500000  -0.5000000), wk =   0.0138889
        k(   57) = (   0.1666667   0.3333333   0.0000000), wk =   0.0138889
        k(   58) = (   0.1666667   0.3333333   0.1666667), wk =   0.0277778
        k(   59) = (   0.1666667   0.3333333   0.3333333), wk =   0.0277778
        k(   60) = (   0.1666667   0.3333333  -0.5000000), wk =   0.0138889
        k(   61) = (   0.1666667   0.4166667   0.0000000), wk =   0.0069444
        k(   62) = (   0.1666667   0.4166667   0.1666667), wk =   0.0138889
        k(   63) = (   0.1666667   0.4166667   0.3333333), wk =   0.0138889
        k(   64) = (   0.1666667   0.4166667  -0.5000000), wk =   0.0069444
        k(   65) = (   0.2500000   0.2500000   0.0000000), wk =   0.0069444
        k(   66) = (   0.2500000   0.2500000   0.1666667), wk =   0.0138889
        k(   67) = (   0.2500000   0.2500000   0.3333333), wk =   0.0138889
        k(   68) = (   0.2500000   0.2500000  -0.5000000), wk =   0.0069444
        k(   69) = (   0.2500000   0.3333333   0.0000000), wk =   0.0138889
        k(   70) = (   0.2500000   0.3333333   0.1666667), wk =   0.0277778
        k(   71) = (   0.2500000   0.3333333   0.3333333), wk =   0.0277778
        k(   72) = (   0.2500000   0.3333333  -0.5000000), wk =   0.0138889
        k(   73) = (   0.3333333   0.3333333   0.0000000), wk =   0.0023148
        k(   74) = (   0.3333333   0.3333333   0.1666667), wk =   0.0046296
        k(   75) = (   0.3333333   0.3333333   0.3333333), wk =   0.0046296
        k(   76) = (   0.3333333   0.3333333  -0.5000000), wk =   0.0023148

     Dense  grid:    23307 G-vectors     FFT dimensions: (  32,  32,  54)

     Smooth grid:    22611 G-vectors     FFT dimensions: (  32,  32,  54)

     Dynamical RAM for                 wfc:       0.04 MB

     Dynamical RAM for     wfc (w. buffer):       6.86 MB

     Dynamical RAM for           str. fact:       0.02 MB

     Dynamical RAM for           local pot:       0.00 MB

     Dynamical RAM for          nlocal pot:       0.08 MB

     Dynamical RAM for                qrad:       1.70 MB

     Dynamical RAM for          rho,v,vnew:       0.25 MB

     Dynamical RAM for               rhoin:       0.08 MB

     Dynamical RAM for            rho*nmix:       0.57 MB

     Dynamical RAM for           G-vectors:       0.08 MB

     Dynamical RAM for          h,s,v(r/c):       0.08 MB

     Dynamical RAM for          <psi|beta>:       0.01 MB

     Dynamical RAM for                 psi:       0.09 MB

     Dynamical RAM for                hpsi:       0.09 MB

     Dynamical RAM for                spsi:       0.09 MB

     Dynamical RAM for      wfcinit/wfcrot:       0.10 MB

     Dynamical RAM for           addusdens:       3.36 MB

     Estimated static dynamical RAM per process >       9.24 MB

     Estimated max dynamical RAM per process >      13.17 MB

     Estimated total dynamical RAM >     263.41 MB

     Check: negative core charge=   -0.000043
     Generating pointlists ...
     new r_m :   0.4108 (alat units)  1.9253 (a.u.) for type    1

     The initial density is read from file :
     ./out/Co.save/charge-density


     starting charge      34.0529, renormalised to      34.0000

     negative rho (up, down):  1.261E-01 1.041E-01
     Starting wfcs from file
     Checking if some PAW data can be deallocated... 

     total cpu time spent up to now is        0.6 secs

     Self-consistent Calculation

     iteration #  1     ecut=   110.00 Ry     beta= 0.70
     Davidson diagonalization with overlap

---- Real-time Memory Report at c_bands before calling an iterative solver
            56 MiB given to the printing process from OS
             0 MiB allocation reported by mallinfo(arena+hblkhd)
        240784 MiB available memory on the node where the printing process lives
------------------
     c_bands:  1 eigenvalues not converged
     c_bands:  1 eigenvalues not converged
     ethr =  1.00E-05,  avg # of iterations = 10.8

     negative rho (up, down):  1.037E-03 4.379E-04

     total cpu time spent up to now is        5.9 secs

     total energy              =    -753.25980324 Ry
     estimated scf accuracy    <       0.07464587 Ry

     total magnetization       =     3.36 Bohr mag/cell
     absolute magnetization    =     3.63 Bohr mag/cell

     iteration #  2     ecut=   110.00 Ry     beta= 0.70
     Davidson diagonalization with overlap

---- Real-time Memory Report at c_bands before calling an iterative solver
            77 MiB given to the printing process from OS
             0 MiB allocation reported by mallinfo(arena+hblkhd)
        240583 MiB available memory on the node where the printing process lives
------------------
     ethr =  2.20E-04,  avg # of iterations =  3.5

     negative rho (up, down):  8.151E-05 0.000E+00

     total cpu time spent up to now is        7.6 secs

     total energy              =    -753.34269645 Ry
     estimated scf accuracy    <       0.06337811 Ry

     total magnetization       =     3.19 Bohr mag/cell
     absolute magnetization    =     3.46 Bohr mag/cell

     iteration #  3     ecut=   110.00 Ry     beta= 0.70
     Davidson diagonalization with overlap

---- Real-time Memory Report at c_bands before calling an iterative solver
            79 MiB given to the printing process from OS
             0 MiB allocation reported by mallinfo(arena+hblkhd)
        240571 MiB available memory on the node where the printing process lives
------------------
     ethr =  1.86E-04,  avg # of iterations =  3.3

     total cpu time spent up to now is        9.3 secs

     total energy              =    -753.45436634 Ry
     estimated scf accuracy    <       0.01220974 Ry

     total magnetization       =     3.28 Bohr mag/cell
     absolute magnetization    =     3.57 Bohr mag/cell

     iteration #  4     ecut=   110.00 Ry     beta= 0.70
     Davidson diagonalization with overlap

---- Real-time Memory Report at c_bands before calling an iterative solver
            80 MiB given to the printing process from OS
             0 MiB allocation reported by mallinfo(arena+hblkhd)
        240559 MiB available memory on the node where the printing process lives
------------------
     ethr =  3.59E-05,  avg # of iterations =  4.1

     total cpu time spent up to now is       11.4 secs

     total energy              =    -753.45245737 Ry
     estimated scf accuracy    <       0.01214803 Ry

     total magnetization       =     3.28 Bohr mag/cell
     absolute magnetization    =     3.58 Bohr mag/cell

     iteration #  5     ecut=   110.00 Ry     beta= 0.70
     Davidson diagonalization with overlap

---- Real-time Memory Report at c_bands before calling an iterative solver
            81 MiB given to the printing process from OS
             0 MiB allocation reported by mallinfo(arena+hblkhd)
        240550 MiB available memory on the node where the printing process lives
------------------
     ethr =  3.57E-05,  avg # of iterations =  2.3

     total cpu time spent up to now is       12.8 secs

     total energy              =    -753.45435653 Ry
     estimated scf accuracy    <       0.00035601 Ry

     total magnetization       =     3.27 Bohr mag/cell
     absolute magnetization    =     3.58 Bohr mag/cell

     iteration #  6     ecut=   110.00 Ry     beta= 0.70
     Davidson diagonalization with overlap

---- Real-time Memory Report at c_bands before calling an iterative solver
            83 MiB given to the printing process from OS
             0 MiB allocation reported by mallinfo(arena+hblkhd)
        240540 MiB available memory on the node where the printing process lives
------------------
     ethr =  1.05E-06,  avg # of iterations =  5.8

     total cpu time spent up to now is       15.5 secs

     total energy              =    -753.45502267 Ry
     estimated scf accuracy    <       0.00009806 Ry

     total magnetization       =     3.28 Bohr mag/cell
     absolute magnetization    =     3.59 Bohr mag/cell

     iteration #  7     ecut=   110.00 Ry     beta= 0.70
     Davidson diagonalization with overlap

---- Real-time Memory Report at c_bands before calling an iterative solver
            84 MiB given to the printing process from OS
             0 MiB allocation reported by mallinfo(arena+hblkhd)
        240532 MiB available memory on the node where the printing process lives
------------------
     ethr =  2.88E-07,  avg # of iterations =  2.0

     total cpu time spent up to now is       16.9 secs

     total energy              =    -753.45505741 Ry
     estimated scf accuracy    <       0.00002589 Ry

     total magnetization       =     3.29 Bohr mag/cell
     absolute magnetization    =     3.59 Bohr mag/cell

     iteration #  8     ecut=   110.00 Ry     beta= 0.70
     Davidson diagonalization with overlap

---- Real-time Memory Report at c_bands before calling an iterative solver
            85 MiB given to the printing process from OS
             0 MiB allocation reported by mallinfo(arena+hblkhd)
        240526 MiB available memory on the node where the printing process lives
------------------
     ethr =  7.62E-08,  avg # of iterations =  6.8

     total cpu time spent up to now is       19.8 secs

     total energy              =    -753.45512789 Ry
     estimated scf accuracy    <       0.00024597 Ry

     total magnetization       =     3.30 Bohr mag/cell
     absolute magnetization    =     3.61 Bohr mag/cell

     iteration #  9     ecut=   110.00 Ry     beta= 0.70
     Davidson diagonalization with overlap

---- Real-time Memory Report at c_bands before calling an iterative solver
            86 MiB given to the printing process from OS
             0 MiB allocation reported by mallinfo(arena+hblkhd)
        240521 MiB available memory on the node where the printing process lives
------------------
     ethr =  7.62E-08,  avg # of iterations =  2.6

     total cpu time spent up to now is       21.3 secs

     total energy              =    -753.45510380 Ry
     estimated scf accuracy    <       0.00029835 Ry

     total magnetization       =     3.31 Bohr mag/cell
     absolute magnetization    =     3.62 Bohr mag/cell

     iteration # 10     ecut=   110.00 Ry     beta= 0.70
     Davidson diagonalization with overlap

---- Real-time Memory Report at c_bands before calling an iterative solver
            86 MiB given to the printing process from OS
             0 MiB allocation reported by mallinfo(arena+hblkhd)
        240516 MiB available memory on the node where the printing process lives
------------------
     ethr =  7.62E-08,  avg # of iterations =  2.1

     total cpu time spent up to now is       22.8 secs

     total energy              =    -753.45503472 Ry
     estimated scf accuracy    <       0.00017567 Ry

     total magnetization       =     3.31 Bohr mag/cell
     absolute magnetization    =     3.62 Bohr mag/cell

     iteration # 11     ecut=   110.00 Ry     beta= 0.70
     Davidson diagonalization with overlap

---- Real-time Memory Report at c_bands before calling an iterative solver
            86 MiB given to the printing process from OS
             0 MiB allocation reported by mallinfo(arena+hblkhd)
        240515 MiB available memory on the node where the printing process lives
------------------
     ethr =  7.62E-08,  avg # of iterations =  5.2

     total cpu time spent up to now is       25.3 secs

     total energy              =    -753.45507396 Ry
     estimated scf accuracy    <       0.00000631 Ry

     total magnetization       =     3.30 Bohr mag/cell
     absolute magnetization    =     3.62 Bohr mag/cell

     iteration # 12     ecut=   110.00 Ry     beta= 0.70
     Davidson diagonalization with overlap

---- Real-time Memory Report at c_bands before calling an iterative solver
            87 MiB given to the printing process from OS
             0 MiB allocation reported by mallinfo(arena+hblkhd)
        240657 MiB available memory on the node where the printing process lives
------------------
     ethr =  1.86E-08,  avg # of iterations =  4.0

     total cpu time spent up to now is       27.2 secs

     total energy              =    -753.45507682 Ry
     estimated scf accuracy    <       0.00000389 Ry

     total magnetization       =     3.31 Bohr mag/cell
     absolute magnetization    =     3.62 Bohr mag/cell

     iteration # 13     ecut=   110.00 Ry     beta= 0.70
     Davidson diagonalization with overlap

---- Real-time Memory Report at c_bands before calling an iterative solver
            87 MiB given to the printing process from OS
             0 MiB allocation reported by mallinfo(arena+hblkhd)
        240656 MiB available memory on the node where the printing process lives
------------------
     ethr =  1.14E-08,  avg # of iterations =  1.1

     total cpu time spent up to now is       28.5 secs

     total energy              =    -753.45507664 Ry
     estimated scf accuracy    <       0.00000221 Ry

     total magnetization       =     3.31 Bohr mag/cell
     absolute magnetization    =     3.62 Bohr mag/cell

     iteration # 14     ecut=   110.00 Ry     beta= 0.70
     Davidson diagonalization with overlap

---- Real-time Memory Report at c_bands before calling an iterative solver
            87 MiB given to the printing process from OS
             0 MiB allocation reported by mallinfo(arena+hblkhd)
        240654 MiB available memory on the node where the printing process lives
------------------
     ethr =  6.50E-09,  avg # of iterations =  1.5
 
     Magnetic moment per site  (integrated on atomic sphere of radius R)
     atom   1 (R=0.411)  charge= 15.5850  magn=  1.7254
     atom   2 (R=0.411)  charge= 15.5850  magn=  1.7254

     total cpu time spent up to now is       29.8 secs

     End of self-consistent calculation

 ------ SPIN UP ------------


          k = 0.0000 0.0000 0.0000 (  2803 PWs)   bands (ev):

   -77.1776 -77.1189 -40.5853 -40.2794 -40.2794 -40.2467 -40.2309 -40.2309
     9.8855  13.6995  16.2682  16.3202  16.3202  16.6364  16.6364  16.9970
    16.9970  18.1117  18.1117  18.6690  25.3056

     occupation numbers 
     1.0000   1.0000   1.0000   1.0000   1.0000   1.0000   1.0000   1.0000
     1.0000   1.0000   1.0000   1.0000   1.0000   1.0000   1.0000   1.0000
     1.0000   1.0000   1.0000   1.0000   0.0000

          k = 0.0000 0.0000 0.1027 (  2827 PWs)   bands (ev):

   -77.1737 -77.1228 -40.5630 -40.2762 -40.2762 -40.2697 -40.2341 -40.2341
    10.1640  13.6294  16.1966  16.2558  16.2558  16.5624  16.5624  17.1607
    17.1607  17.7189  18.0946  18.0946  26.8229

     occupation numbers 
     1.0000   1.0000   1.0000   1.0000   1.0000   1.0000   1.0000   1.0000
     1.0000   1.0000   1.0000   1.0000   1.0000   1.0000   1.0000   1.0000
     1.0000   1.0000   1.0000   1.0000   0.0000

          k = 0.0000 0.0000 0.2054 (  2828 PWs)   bands (ev):

   -77.1630 -77.1336 -40.5017 -40.3323 -40.2673 -40.2673 -40.2430 -40.2430
    10.9620  13.1898  16.0308  16.2011  16.2011  16.3990  16.3990  16.4026
    17.4851  17.4851  18.0049  18.0049  30.0387

     occupation numbers 
     1.0000   1.0000   1.0000   1.0000   1.0000   1.0000   1.0000   1.0000
     1.0000   1.0000   1.0000   1.0000   1.0000   1.0000   1.0000   1.0000
     1.0000   1.0000   1.0000   1.0000   0.0000

          k = 0.0000 0.0000-0.3081 (  2834 PWs)   bands (ev):

   -77.1483 -77.1483 -40.4173 -40.4173 -40.2552 -40.2552 -40.2552 -40.2552
    12.1233  12.1233  15.9508  15.9508  16.2535  16.2535  16.2535  16.2535
    17.7956  17.7956  17.7956  17.7956  33.8788

     occupation numbers 
     1.0000   1.0000   1.0000   1.0000   1.0000   1.0000   1.0000   1.0000
     1.0000   1.0000   1.0000   1.0000   1.0000   1.0000   1.0000   1.0000
     1.0000   1.0000   1.0000   1.0000   0.0000

          k = 0.0000 0.0962 0.0000 (  2813 PWs)   bands (ev):

   -77.1742 -77.1173 -40.5780 -40.2959 -40.2848 -40.2497 -40.2479 -40.2336
    10.1300  13.8476  16.0693  16.4364  16.4818  16.5866  16.7395  16.8321
    16.9245  17.2802  18.1421  19.8297  25.3447

     occupation numbers 
     1.0000   1.0000   1.0000   1.0000   1.0000   1.0000   1.0000   1.0000
     1.0000   1.0000   1.0000   1.0000   1.0000   1.0000   1.0000   1.0000
     1.0000   1.0000   1.0000   0.0000   0.0000

          k = 0.0000 0.0962 0.1027 (  2811 PWs)   bands (ev):

   -77.1704 -77.1211 -40.5568 -40.2922 -40.2814 -40.2777 -40.2454 -40.2371
    10.4042  13.7922  16.0681  16.3056  16.3554  16.4005  16.6594  16.9492
    17.1152  17.1935  18.1176  19.0662  26.9314

     occupation numbers 
     1.0000   1.0000   1.0000   1.0000   1.0000   1.0000   1.0000   1.0000
     1.0000   1.0000   1.0000   1.0000   1.0000   1.0000   1.0000   1.0000
     1.0000   1.0000   1.0000   0.0000   0.0000

          k = 0.0000 0.0962 0.2054 (  2818 PWs)   bands (ev):

   -77.1600 -77.1316 -40.4989 -40.3385 -40.2818 -40.2720 -40.2541 -40.2464
    11.1894  13.3808  15.9536  16.0115  16.1215  16.2935  16.4947  16.5542
    17.4588  17.5042  18.0109  18.3060  30.1927

     occupation numbers 
     1.0000   1.0000   1.0000   1.0000   1.0000   1.0000   1.0000   1.0000
     1.0000   1.0000   1.0000   1.0000   1.0000   1.0000   1.0000   1.0000
     1.0000   1.0000   1.0000   1.0000   0.0000

          k = 0.0000 0.0962-0.3081 (  2828 PWs)   bands (ev):

   -77.1458 -77.1458 -40.4191 -40.4191 -40.2678 -40.2678 -40.2593 -40.2593
    12.3321  12.3321  15.8050  15.8050  16.2644  16.2644  16.3473  16.3473
    17.7842  17.7842  17.8881  17.8881  34.0480

     occupation numbers 
     1.0000   1.0000   1.0000   1.0000   1.0000   1.0000   1.0000   1.0000
     1.0000   1.0000   1.0000   1.0000   1.0000   1.0000   1.0000   1.0000
     1.0000   1.0000   1.0000   1.0000   0.0000

          k = 0.0000 0.1925 0.0000 (  2813 PWs)   bands (ev):

   -77.1649 -77.1132 -40.5569 -40.3410 -40.2991 -40.2941 -40.2588 -40.2415
    10.8369  14.2142  15.7942  16.0742  16.4042  16.7457  16.7648  16.7907
    16.9320  17.0286  18.2067  21.4395  25.4828

     occupation numbers 
     1.0000   1.0000   1.0000   1.0000   1.0000   1.0000   1.0000   1.0000
     1.0000   1.0000   1.0000   1.0000   1.0000   1.0000   1.0000   1.0000
     1.0000   1.0000   1.0000   0.0000   0.0000

          k = 0.0000 0.1925 0.1027 (  2808 PWs)   bands (ev):

   -77.1614 -77.1167 -40.5399 -40.3357 -40.3128 -40.2953 -40.2628 -40.2453
    11.0947  14.2037  15.7963  15.8362  16.2824  16.5709  16.6731  16.9114
    17.0940  17.1838  18.1656  20.3099  27.2847

     occupation numbers 
     1.0000   1.0000   1.0000   1.0000   1.0000   1.0000   1.0000   1.0000
     1.0000   1.0000   1.0000   1.0000   1.0000   1.0000   1.0000   1.0000
     1.0000   1.0000   1.0000   0.0000   0.0000

          k = 0.0000 0.1925 0.2054 (  2811 PWs)   bands (ev):

   -77.1520 -77.1261 -40.4932 -40.3638 -40.3185 -40.2847 -40.2767 -40.2559
    11.8299  13.8755  15.4511  15.8946  15.9946  16.4931  16.5195  16.7600
    17.4310  17.5919  18.0237  18.9571  30.6530

     occupation numbers 
     1.0000   1.0000   1.0000   1.0000   1.0000   1.0000   1.0000   1.0000
     1.0000   1.0000   1.0000   1.0000   1.0000   1.0000   1.0000   1.0000
     1.0000   1.0000   1.0000   0.0001   0.0000

          k = 0.0000 0.1925-0.3081 (  2832 PWs)   bands (ev):

   -77.1391 -77.1391 -40.4289 -40.4289 -40.2974 -40.2974 -40.2703 -40.2703
    12.8938  12.8938  15.5717  15.5717  16.2037  16.2037  16.5975  16.5975
    17.7676  17.7676  18.1371  18.1371  34.5095

     occupation numbers 
     1.0000   1.0000   1.0000   1.0000   1.0000   1.0000   1.0000   1.0000
     1.0000   1.0000   1.0000   1.0000   1.0000   1.0000   1.0000   1.0000
     1.0000   1.0000   1.0000   1.0000   0.0000

          k = 0.0000 0.2887 0.0000 (  2814 PWs)   bands (ev):

   -77.1516 -77.1080 -40.5254 -40.4032 -40.3561 -40.3181 -40.2741 -40.2527
    11.9056  14.5092  15.3388  15.6247  16.3031  16.5309  16.7275  17.2286
    17.2413  17.4443  18.2672  23.2474  25.7507

     occupation numbers 
     1.0000   1.0000   1.0000   1.0000   1.0000   1.0000   1.0000   1.0000
     1.0000   1.0000   1.0000   1.0000   1.0000   1.0000   1.0000   1.0000
     1.0000   1.0000   1.0000   0.0000   0.0000

          k = 0.0000 0.2887 0.1027 (  2801 PWs)   bands (ev):

   -77.1487 -77.1109 -40.5178 -40.3931 -40.3703 -40.3138 -40.2777 -40.2570
    12.1197  14.5526  15.1931  15.6780  16.1495  16.5697  16.7277  17.2854
    17.3555  17.3994  18.2113  21.6013  27.9186

     occupation numbers 
     1.0000   1.0000   1.0000   1.0000   1.0000   1.0000   1.0000   1.0000
     1.0000   1.0000   1.0000   1.0000   1.0000   1.0000   1.0000   1.0000
     1.0000   1.0000   1.0000   0.0000   0.0000

          k = 0.0000 0.2887 0.2054 (  2814 PWs)   bands (ev):

   -77.1407 -77.1189 -40.4944 -40.4135 -40.3581 -40.3018 -40.2934 -40.2691
    12.7160  14.3140  15.1130  15.7101  16.0169  16.5646  16.6930  17.1342
    17.5537  17.7532  18.0495  19.7366  31.2859

     occupation numbers 
     1.0000   1.0000   1.0000   1.0000   1.0000   1.0000   1.0000   1.0000
     1.0000   1.0000   1.0000   1.0000   1.0000   1.0000   1.0000   1.0000
     1.0000   1.0000   1.0000   0.0000   0.0000

          k = 0.0000 0.2887-0.3081 (  2820 PWs)   bands (ev):

   -77.1298 -77.1298 -40.4571 -40.4571 -40.3227 -40.3227 -40.2854 -40.2854
    13.5421  13.5421  15.4150  15.4150  16.2627  16.2627  16.8960  16.8960
    17.8104  17.8104  18.4859  18.4859  33.4568

     occupation numbers 
     1.0000   1.0000   1.0000   1.0000   1.0000   1.0000   1.0000   1.0000
     1.0000   1.0000   1.0000   1.0000   1.0000   1.0000   1.0000   1.0000
     1.0000   1.0000   1.0000   1.0000   0.0000

          k = 0.0000 0.3849 0.0000 (  2824 PWs)   bands (ev):

   -77.1374 -77.1037 -40.4885 -40.4659 -40.4170 -40.3367 -40.2946 -40.2642
    13.0717  14.4416  14.8080  15.7319  16.3374  16.4260  16.5425  17.7499
    17.8949  17.9288  18.3082  25.2146  25.8067

     occupation numbers 
     1.0000   1.0000   1.0000   1.0000   1.0000   1.0000   1.0000   1.0000
     1.0000   1.0000   1.0000   1.0000   1.0000   1.0000   1.0000   1.0000
     1.0000   1.0000   1.0000   0.0000   0.0000

          k = 0.0000 0.3849 0.1027 (  2825 PWs)   bands (ev):

   -77.1352 -77.1060 -40.5089 -40.4415 -40.4207 -40.3319 -40.2949 -40.2691
    13.1702  14.4728  14.8431  15.5884  16.3459  16.4310  16.8911  17.7683
    17.8020  17.8650  18.2547  22.8476  27.9866

     occupation numbers 
     1.0000   1.0000   1.0000   1.0000   1.0000   1.0000   1.0000   1.0000
     1.0000   1.0000   1.0000   1.0000   1.0000   1.0000   1.0000   1.0000
     1.0000   1.0000   1.0000   0.0000   0.0000

          k = 0.0000 0.3849 0.2054 (  2813 PWs)   bands (ev):

   -77.1290 -77.1122 -40.5160 -40.4697 -40.3757 -40.3186 -40.3045 -40.2824
    13.4480  14.2910  14.9869  15.5034  16.4485  16.6950  17.1962  17.4813
    17.8753  17.9852  18.1367  20.6273  29.1172

     occupation numbers 
     1.0000   1.0000   1.0000   1.0000   1.0000   1.0000   1.0000   1.0000
     1.0000   1.0000   1.0000   1.0000   1.0000   1.0000   1.0000   1.0000
     1.0000   1.0000   1.0000   0.0000   0.0000

          k = 0.0000 0.3849-0.3081 (  2822 PWs)   bands (ev):

   -77.1206 -77.1206 -40.5008 -40.5008 -40.3322 -40.3322 -40.3005 -40.3005
    13.8566  13.8566  15.2843  15.2843  16.8689  16.8690  17.0764  17.0764
    18.0011  18.0011  18.9690  18.9690  30.2396

     occupation numbers 
     1.0000   1.0000   1.0000   1.0000   1.0000   1.0000   1.0000   1.0000
     1.0000   1.0000   1.0000   1.0000   1.0000   1.0000   1.0000   1.0000
     1.0000   1.0000   0.0000   0.0000   0.0000

          k = 0.0000 0.4811 0.0000 (  2826 PWs)   bands (ev):

   -77.1258 -77.1018 -40.5121 -40.4608 -40.4543 -40.3500 -40.3168 -40.2729
    13.8399  14.2510  14.4910  16.0912  16.2052  16.4114  16.6340  18.1309
    18.2679  18.3298  19.0568  23.9839  27.2428

     occupation numbers 
     1.0000   1.0000   1.0000   1.0000   1.0000   1.0000   1.0000   1.0000
     1.0000   1.0000   1.0000   1.0000   1.0000   1.0000   1.0000   1.0000
     1.0000   1.0000   0.0000   0.0000   0.0000

          k = 0.0000 0.4811 0.1027 (  2820 PWs)   bands (ev):

   -77.1242 -77.1034 -40.5310 -40.4787 -40.4212 -40.3449 -40.3129 -40.2781
    13.7288  14.2456  14.8095  15.4810  16.3196  16.6344  17.2474  18.0642
    18.1644  18.3366  18.8931  23.1833  26.5924

     occupation numbers 
     1.0000   1.0000   1.0000   1.0000   1.0000   1.0000   1.0000   1.0000
     1.0000   1.0000   1.0000   1.0000   1.0000   1.0000   1.0000   1.0000
     1.0000   1.0000   0.9983   0.0000   0.0000

          k = 0.0000 0.4811 0.2054 (  2818 PWs)   bands (ev):

   -77.1198 -77.1078 -40.5458 -40.5116 -40.3723 -40.3308 -40.3138 -40.2923
    13.6951  14.1741  14.9732  15.3037  16.6443  16.8855  17.6451  18.1963
    18.2330  18.3036  18.5549  21.4545  26.7411

     occupation numbers 
     1.0000   1.0000   1.0000   1.0000   1.0000   1.0000   1.0000   1.0000
     1.0000   1.0000   1.0000   1.0000   1.0000   1.0000   1.0000   1.0000
     1.0000   1.0000   1.0000   0.0000   0.0000

          k = 0.0000 0.4811-0.3081 (  2818 PWs)   bands (ev):

   -77.1138 -77.1138 -40.5384 -40.5384 -40.3334 -40.3334 -40.3116 -40.3116
    13.8806  13.8806  15.1598  15.1598  17.1209  17.1209  17.6061  17.6061
    18.2505  18.2505  19.7930  19.7930  27.5202

     occupation numbers 
     1.0000   1.0000   1.0000   1.0000   1.0000   1.0000   1.0000   1.0000
     1.0000   1.0000   1.0000   1.0000   1.0000   1.0000   1.0000   1.0000
     1.0000   1.0000   0.0000   0.0000   0.0000

          k = 0.0000-0.5774 0.0000 (  2822 PWs)   bands (ev):

   -77.1209 -77.1017 -40.5290 -40.4768 -40.4383 -40.3549 -40.3284 -40.2761
    14.0970  14.1124  14.3858  16.1585  16.3417  16.3640  16.7112  18.2686
    18.3363  18.4190  20.2193  22.2589  28.5570

     occupation numbers 
     1.0000   1.0000   1.0000   1.0000   1.0000   1.0000   1.0000   1.0000
     1.0000   1.0000   1.0000   1.0000   1.0000   1.0000   1.0000   1.0000
     1.0000   1.0000   0.0000   0.0000   0.0000

          k = 0.0000-0.5774 0.1027 (  2820 PWs)   bands (ev):

   -77.1197 -77.1030 -40.5441 -40.4937 -40.4123 -40.3496 -40.3222 -40.2814
    13.8297  14.1477  14.8443  15.4529  16.2789  16.7230  17.4511  18.1247
    18.3127  18.4111  20.0027  22.0755  27.7028

     occupation numbers 
     1.0000   1.0000   1.0000   1.0000   1.0000   1.0000   1.0000   1.0000
     1.0000   1.0000   1.0000   1.0000   1.0000   1.0000   1.0000   1.0000
     1.0000   1.0000   0.0000   0.0000   0.0000

          k = 0.0000-0.5774 0.2054 (  2824 PWs)   bands (ev):

   -77.1161 -77.1065 -40.5587 -40.5270 -40.3678 -40.3353 -40.3184 -40.2959
    13.7146  14.1283  14.9992  15.2120  16.6208  17.0311  17.6793  18.3306
    18.3522  18.3896  19.6540  21.4604  26.6814

     occupation numbers 
     1.0000   1.0000   1.0000   1.0000   1.0000   1.0000   1.0000   1.0000
     1.0000   1.0000   1.0000   1.0000   1.0000   1.0000   1.0000   1.0000
     1.0000   1.0000   0.0000   0.0000   0.0000

          k = 0.0000-0.5774-0.3081 (  2836 PWs)   bands (ev):

   -77.1113 -77.1113 -40.5528 -40.5528 -40.3331 -40.3331 -40.3156 -40.3156
    13.8631  13.8631  15.1110  15.1110  17.1241  17.1241  17.8535  17.8535
    18.3600  18.3600  20.4395  20.4395  26.2643

     occupation numbers 
     1.0000   1.0000   1.0000   1.0000   1.0000   1.0000   1.0000   1.0000
     1.0000   1.0000   1.0000   1.0000   1.0000   1.0000   1.0000   1.0000
     1.0000   1.0000   0.0000   0.0000   0.0000

          k = 0.0833 0.1443 0.0000 (  2815 PWs)   bands (ev):

   -77.1679 -77.1145 -40.5638 -40.3239 -40.3017 -40.2731 -40.2558 -40.2411
    10.6066  14.1109  15.8531  16.3249  16.4780  16.6373  16.6737  16.7137
    16.9660  17.0574  18.1793  20.9894  25.4353

     occupation numbers 
     1.0000   1.0000   1.0000   1.0000   1.0000   1.0000   1.0000   1.0000
     1.0000   1.0000   1.0000   1.0000   1.0000   1.0000   1.0000   1.0000
     1.0000   1.0000   1.0000   0.0000   0.0000

          k = 0.0833 0.1443 0.1027 (  2814 PWs)   bands (ev):

   -77.1643 -77.1181 -40.5453 -40.3190 -40.3058 -40.2882 -40.2569 -40.2448
    10.8706  14.0858  15.8805  15.9867  16.3278  16.5264  16.6492  16.8260
    17.1155  17.1738  18.1463  19.9726  27.1644

     occupation numbers 
     1.0000   1.0000   1.0000   1.0000   1.0000   1.0000   1.0000   1.0000
     1.0000   1.0000   1.0000   1.0000   1.0000   1.0000   1.0000   1.0000
     1.0000   1.0000   1.0000   0.0000   0.0000

          k = 0.0833 0.1443 0.2054 (  2808 PWs)   bands (ev):

   -77.1546 -77.1278 -40.4946 -40.3542 -40.3056 -40.2851 -40.2665 -40.2547
    11.6252  13.7303  15.5767  15.9430  16.0062  16.4491  16.5107  16.6778
    17.4610  17.5371  18.0229  18.7685  30.5027

     occupation numbers 
     1.0000   1.0000   1.0000   1.0000   1.0000   1.0000   1.0000   1.0000
     1.0000   1.0000   1.0000   1.0000   1.0000   1.0000   1.0000   1.0000
     1.0000   1.0000   1.0000   1.0000   0.0000

          k = 0.0833 0.1443-0.3081 (  2822 PWs)   bands (ev):

   -77.1412 -77.1412 -40.4248 -40.4248 -40.2885 -40.2885 -40.2673 -40.2673
    12.7211  12.7211  15.6310  15.6310  16.2049  16.2049  16.5317  16.5317
    17.7732  17.7732  18.0594  18.0594  34.3739

     occupation numbers 
     1.0000   1.0000   1.0000   1.0000   1.0000   1.0000   1.0000   1.0000
     1.0000   1.0000   1.0000   1.0000   1.0000   1.0000   1.0000   1.0000
     1.0000   1.0000   1.0000   1.0000   0.0000

          k = 0.0833 0.2406 0.0000 (  2806 PWs)   bands (ev):

   -77.1566 -77.1098 -40.5374 -40.3736 -40.3438 -40.3025 -40.2680 -40.2538
    11.5030  14.4872  15.5768  15.6082  16.3493  16.4826  16.8993  16.9055
    17.1066  17.3911  18.2245  22.5959  25.6602

     occupation numbers 
     1.0000   1.0000   1.0000   1.0000   1.0000   1.0000   1.0000   1.0000
     1.0000   1.0000   1.0000   1.0000   1.0000   1.0000   1.0000   1.0000
     1.0000   1.0000   1.0000   0.0000   0.0000

          k = 0.0833 0.2406 0.1027 (  2806 PWs)   bands (ev):

   -77.1534 -77.1129 -40.5253 -40.3665 -40.3529 -40.3070 -40.2702 -40.2576
    11.7391  14.5216  15.3943  15.6279  16.2281  16.4990  16.7156  17.0339
    17.3030  17.3715  18.1858  21.1574  27.6804

     occupation numbers 
     1.0000   1.0000   1.0000   1.0000   1.0000   1.0000   1.0000   1.0000
     1.0000   1.0000   1.0000   1.0000   1.0000   1.0000   1.0000   1.0000
     1.0000   1.0000   1.0000   0.0000   0.0000

          k = 0.0833 0.2406 0.2054 (  2810 PWs)   bands (ev):

   -77.1449 -77.1215 -40.4914 -40.3926 -40.3418 -40.3053 -40.2806 -40.2682
    12.4059  14.2548  15.1974  15.7366  15.9553  16.3875  16.6693  17.0027
    17.5513  17.6662  18.0620  19.4666  31.1077

     occupation numbers 
     1.0000   1.0000   1.0000   1.0000   1.0000   1.0000   1.0000   1.0000
     1.0000   1.0000   1.0000   1.0000   1.0000   1.0000   1.0000   1.0000
     1.0000   1.0000   1.0000   0.0000   0.0000

          k = 0.0833 0.2406-0.3081 (  2818 PWs)   bands (ev):

   -77.1332 -77.1332 -40.4433 -40.4433 -40.3157 -40.3157 -40.2813 -40.2813
    13.3559  13.3559  15.4723  15.4723  16.0975  16.0975  16.8173  16.8173
    17.8174  17.8174  18.3612  18.3612  34.7511

     occupation numbers 
     1.0000   1.0000   1.0000   1.0000   1.0000   1.0000   1.0000   1.0000
     1.0000   1.0000   1.0000   1.0000   1.0000   1.0000   1.0000   1.0000
     1.0000   1.0000   1.0000   1.0000   0.0000

          k = 0.0833 0.3368 0.0000 (  2808 PWs)   bands (ev):

   -77.1428 -77.1051 -40.5029 -40.4345 -40.3962 -40.3294 -40.2862 -40.2676
    12.6577  14.6114  15.0267  15.5036  16.2899  16.3549  16.7029  17.3151
    17.6205  17.9674  18.2623  24.4450  25.9998

     occupation numbers 
     1.0000   1.0000   1.0000   1.0000   1.0000   1.0000   1.0000   1.0000
     1.0000   1.0000   1.0000   1.0000   1.0000   1.0000   1.0000   1.0000
     1.0000   1.0000   1.0000   0.0000   0.0000

          k = 0.0833 0.3368 0.1027 (  2816 PWs)   bands (ev):

   -77.1403 -77.1077 -40.5064 -40.4216 -40.4016 -40.3292 -40.2871 -40.2710
    12.8218  14.6772  14.9328  15.5534  16.1388  16.5214  16.6760  17.3428
    17.7108  17.8291  18.2698  22.4304  28.4098

     occupation numbers 
     1.0000   1.0000   1.0000   1.0000   1.0000   1.0000   1.0000   1.0000
     1.0000   1.0000   1.0000   1.0000   1.0000   1.0000   1.0000   1.0000
     1.0000   1.0000   1.0000   0.0000   0.0000

          k = 0.0833 0.3368 0.2054 (  2813 PWs)   bands (ev):

   -77.1334 -77.1146 -40.5015 -40.4454 -40.3697 -40.3232 -40.2963 -40.2810
    13.2661  14.4338  15.0431  15.6281  16.0485  16.5370  16.7396  17.3368
    17.7817  17.9471  18.2344  20.3279  30.7548

     occupation numbers 
     1.0000   1.0000   1.0000   1.0000   1.0000   1.0000   1.0000   1.0000
     1.0000   1.0000   1.0000   1.0000   1.0000   1.0000   1.0000   1.0000
     1.0000   1.0000   1.0000   0.0000   0.0000

          k = 0.0833 0.3368-0.3081 (  2826 PWs)   bands (ev):

   -77.1240 -77.1240 -40.4792 -40.4792 -40.3333 -40.3333 -40.2961 -40.2961
    13.8607  13.8607  15.3904  15.3904  16.2731  16.2731  17.0151  17.0151
    18.0209  18.0209  18.8237  18.8237  31.9577

     occupation numbers 
     1.0000   1.0000   1.0000   1.0000   1.0000   1.0000   1.0000   1.0000
     1.0000   1.0000   1.0000   1.0000   1.0000   1.0000   1.0000   1.0000
     1.0000   1.0000   1.0000   1.0000   0.0000

          k = 0.0833 0.4330 0.0000 (  2820 PWs)   bands (ev):

   -77.1297 -77.1022 -40.4885 -40.4663 -40.4419 -40.3507 -40.3086 -40.2794
    13.6745  14.4343  14.6338  15.7327  16.1676  16.4995  16.5499  17.8392
    18.0590  18.2853  18.7746  25.3175  26.4512

     occupation numbers 
     1.0000   1.0000   1.0000   1.0000   1.0000   1.0000   1.0000   1.0000
     1.0000   1.0000   1.0000   1.0000   1.0000   1.0000   1.0000   1.0000
     1.0000   1.0000   1.0000   0.0000   0.0000

          k = 0.0833 0.4330 0.1027 (  2820 PWs)   bands (ev):

   -77.1279 -77.1041 -40.5140 -40.4620 -40.4229 -40.3473 -40.3066 -40.2826
    13.6657  14.4566  14.7892  15.4913  16.2444  16.5749  16.8470  17.7878
    18.0993  18.1206  18.7752  23.5086  27.1217

     occupation numbers 
     1.0000   1.0000   1.0000   1.0000   1.0000   1.0000   1.0000   1.0000
     1.0000   1.0000   1.0000   1.0000   1.0000   1.0000   1.0000   1.0000
     1.0000   1.0000   1.0000   0.0000   0.0000

          k = 0.0833 0.4330 0.2054 (  2816 PWs)   bands (ev):

   -77.1228 -77.1091 -40.5281 -40.4923 -40.3767 -40.3355 -40.3120 -40.2908
    13.7468  14.3269  14.9777  15.4602  16.3512  16.7872  17.2366  17.5304
    17.9661  18.2814  18.8373  21.3489  27.8457

     occupation numbers 
     1.0000   1.0000   1.0000   1.0000   1.0000   1.0000   1.0000   1.0000
     1.0000   1.0000   1.0000   1.0000   1.0000   1.0000   1.0000   1.0000
     1.0000   1.0000   1.0000   0.0000   0.0000

          k = 0.0833 0.4330-0.3081 (  2816 PWs)   bands (ev):

   -77.1160 -77.1160 -40.5192 -40.5192 -40.3420 -40.3420 -40.3065 -40.3065
    13.9923  13.9923  15.2707  15.2707  16.7960  16.7960  17.1936  17.1936
    18.2308  18.2308  19.6701  19.6701  28.8896

     occupation numbers 
     1.0000   1.0000   1.0000   1.0000   1.0000   1.0000   1.0000   1.0000
     1.0000   1.0000   1.0000   1.0000   1.0000   1.0000   1.0000   1.0000
     1.0000   1.0000   0.0000   0.0000   0.0000

          k = 0.0833 0.5292 0.0000 (  2817 PWs)   bands (ev):

   -77.1210 -77.1017 -40.5198 -40.4684 -40.4385 -40.3625 -40.3282 -40.2863
    14.1287  14.2699  14.4375  16.0996  16.1233  16.3608  16.7086  18.2176
    18.2934  18.2953  20.0554  23.0282  28.3645

     occupation numbers 
     1.0000   1.0000   1.0000   1.0000   1.0000   1.0000   1.0000   1.0000
     1.0000   1.0000   1.0000   1.0000   1.0000   1.0000   1.0000   1.0000
     1.0000   1.0000   0.0000   0.0000   0.0000

          k = 0.0833 0.5292 0.1027 (  2824 PWs)   bands (ev):

   -77.1197 -77.1030 -40.5351 -40.4859 -40.4137 -40.3559 -40.3234 -40.2896
    13.9115  14.2811  14.8771  15.4347  16.1733  16.7667  17.1122  18.0695
    18.2429  18.3247  19.9842  22.7577  27.1190

     occupation numbers 
     1.0000   1.0000   1.0000   1.0000   1.0000   1.0000   1.0000   1.0000
     1.0000   1.0000   1.0000   1.0000   1.0000   1.0000   1.0000   1.0000
     1.0000   1.0000   0.0000   0.0000   0.0000

          k = 0.0833 0.5292 0.2054 (  2822 PWs)   bands (ev):

   -77.1161 -77.1065 -40.5499 -40.5189 -40.3757 -40.3370 -40.3253 -40.2965
    13.8198  14.2570  15.0072  15.3208  16.3474  17.0956  17.5164  17.7762
    18.2008  18.3973  20.0163  21.8854  26.4042

     occupation numbers 
     1.0000   1.0000   1.0000   1.0000   1.0000   1.0000   1.0000   1.0000
     1.0000   1.0000   1.0000   1.0000   1.0000   1.0000   1.0000   1.0000
     1.0000   1.0000   0.0000   0.0000   0.0000

          k = 0.0833 0.5292-0.3081 (  2822 PWs)   bands (ev):

   -77.1113 -77.1113 -40.5443 -40.5443 -40.3466 -40.3466 -40.3108 -40.3108
    13.9781  13.9781  15.1846  15.1846  16.9039  16.9039  17.6303  17.6303
    18.2722  18.2722  20.7528  20.7528  26.6804

     occupation numbers 
     1.0000   1.0000   1.0000   1.0000   1.0000   1.0000   1.0000   1.0000
     1.0000   1.0000   1.0000   1.0000   1.0000   1.0000   1.0000   1.0000
     1.0000   1.0000   0.0000   0.0000   0.0000

          k = 0.1667 0.2887 0.0000 (  2808 PWs)   bands (ev):

   -77.1447 -77.1057 -40.5079 -40.4097 -40.4003 -40.3211 -40.2834 -40.2760
    12.5117  14.7925  15.1423  15.2772  16.2155  16.3570  16.8022  17.0694
    17.6072  17.9902  18.2221  24.1852  26.0438

     occupation numbers 
     1.0000   1.0000   1.0000   1.0000   1.0000   1.0000   1.0000   1.0000
     1.0000   1.0000   1.0000   1.0000   1.0000   1.0000   1.0000   1.0000
     1.0000   1.0000   1.0000   0.0000   0.0000

          k = 0.1667 0.2887 0.1027 (  2807 PWs)   bands (ev):

   -77.1421 -77.1083 -40.5065 -40.4082 -40.3945 -40.3293 -40.2801 -40.2801
    12.6980  14.8890  14.9984  15.3313  16.1793  16.3673  16.6819  17.1596
    17.7266  17.8198  18.2823  22.2924  28.4072

     occupation numbers 
     1.0000   1.0000   1.0000   1.0000   1.0000   1.0000   1.0000   1.0000
     1.0000   1.0000   1.0000   1.0000   1.0000   1.0000   1.0000   1.0000
     1.0000   1.0000   1.0000   0.0000   0.0000

          k = 0.1667 0.2887 0.2054 (  2818 PWs)   bands (ev):

   -77.1350 -77.1155 -40.4953 -40.4348 -40.3613 -40.3328 -40.2901 -40.2846
    13.2085  14.5565  15.1522  15.4873  15.9937  16.2292  16.6811  17.2733
    17.7906  17.9299  18.3115  20.2517  31.7839

     occupation numbers 
     1.0000   1.0000   1.0000   1.0000   1.0000   1.0000   1.0000   1.0000
     1.0000   1.0000   1.0000   1.0000   1.0000   1.0000   1.0000   1.0000
     1.0000   1.0000   1.0000   0.0000   0.0000

          k = 0.1667 0.2887-0.3081 (  2816 PWs)   bands (ev):

   -77.1252 -77.1252 -40.4692 -40.4692 -40.3348 -40.3348 -40.2955 -40.2955
    13.8976  13.8976  15.4793  15.4793  15.9410  15.9410  16.9632  16.9632
    18.0715  18.0715  18.8040  18.8041  33.6783

     occupation numbers 
     1.0000   1.0000   1.0000   1.0000   1.0000   1.0000   1.0000   1.0000
     1.0000   1.0000   1.0000   1.0000   1.0000   1.0000   1.0000   1.0000
     1.0000   1.0000   1.0000   1.0000   0.0000

          k = 0.1667 0.3849 0.0000 (  2818 PWs)   bands (ev):

   -77.1319 -77.1025 -40.4728 -40.4578 -40.4353 -40.3500 -40.3043 -40.2973
    13.6171  14.7778  14.7783  15.2489  16.0542  16.5012  16.6032  17.3879
    18.0569  18.2162  18.8060  26.0548  26.4203

     occupation numbers 
     1.0000   1.0000   1.0000   1.0000   1.0000   1.0000   1.0000   1.0000
     1.0000   1.0000   1.0000   1.0000   1.0000   1.0000   1.0000   1.0000
     1.0000   1.0000   1.0000   0.0000   0.0000

          k = 0.1667 0.3849 0.1027 (  2815 PWs)   bands (ev):

   -77.1299 -77.1045 -40.4969 -40.4538 -40.4118 -40.3567 -40.3050 -40.2933
    13.6942  14.7092  14.8791  15.3325  16.1037  16.4886  16.5559  17.4246
    17.9985  18.1466  18.8933  23.5913  28.5602

     occupation numbers 
     1.0000   1.0000   1.0000   1.0000   1.0000   1.0000   1.0000   1.0000
     1.0000   1.0000   1.0000   1.0000   1.0000   1.0000   1.0000   1.0000
     1.0000   1.0000   0.9982   0.0000   0.0000

          k = 0.1667 0.3849 0.2054 (  2819 PWs)   bands (ev):

   -77.1245 -77.1099 -40.5092 -40.4760 -40.3738 -40.3549 -40.3123 -40.2913
    13.9056  14.5057  15.1290  15.5673  16.0180  16.3208  16.6968  17.3986
    17.8995  18.2996  19.0746  21.3720  29.5525

     occupation numbers 
     1.0000   1.0000   1.0000   1.0000   1.0000   1.0000   1.0000   1.0000
     1.0000   1.0000   1.0000   1.0000   1.0000   1.0000   1.0000   1.0000
     1.0000   1.0000   0.0000   0.0000   0.0000

          k = 0.1667 0.3849-0.3081 (  2818 PWs)   bands (ev):

   -77.1172 -77.1172 -40.5001 -40.5001 -40.3545 -40.3545 -40.3041 -40.3041
    14.2022  14.2022  15.4748  15.4748  16.0992  16.0992  16.9779  16.9779
    18.2848  18.2848  19.7680  19.7680  30.7057

     occupation numbers 
     1.0000   1.0000   1.0000   1.0000   1.0000   1.0000   1.0000   1.0000
     1.0000   1.0000   1.0000   1.0000   1.0000   1.0000   1.0000   1.0000
     1.0000   1.0000   0.0000   0.0000   0.0000

          k = 0.1667 0.4811 0.0000 (  2830 PWs)   bands (ev):

   -77.1210 -77.1016 -40.4960 -40.4528 -40.4389 -40.3771 -40.3278 -40.3118
    14.3163  14.5541  14.5736  15.5616  16.0117  16.3849  16.7059  17.8110
    18.2110  18.2774  19.9909  24.6956  28.0791

     occupation numbers 
     1.0000   1.0000   1.0000   1.0000   1.0000   1.0000   1.0000   1.0000
     1.0000   1.0000   1.0000   1.0000   1.0000   1.0000   1.0000   1.0000
     1.0000   1.0000   0.0000   0.0000   0.0000

          k = 0.1667 0.4811 0.1027 (  2827 PWs)   bands (ev):

   -77.1197 -77.1029 -40.5116 -40.4729 -40.4135 -40.3723 -40.3279 -40.3059
    14.1545  14.6346  14.8248  15.3770  16.0617  16.5209  16.7814  17.7965
    18.0130  18.3400  20.0729  24.1240  26.9249

     occupation numbers 
     1.0000   1.0000   1.0000   1.0000   1.0000   1.0000   1.0000   1.0000
     1.0000   1.0000   1.0000   1.0000   1.0000   1.0000   1.0000   1.0000
     1.0000   1.0000   0.0000   0.0000   0.0000

          k = 0.1667 0.4811 0.2054 (  2821 PWs)   bands (ev):

   -77.1162 -77.1065 -40.5278 -40.5020 -40.3915 -40.3568 -40.3278 -40.2980
    14.1118  14.5545  15.0240  15.5742  15.9528  16.6480  17.0075  17.4862
    17.9889  18.4173  20.3811  22.5905  27.0143

     occupation numbers 
     1.0000   1.0000   1.0000   1.0000   1.0000   1.0000   1.0000   1.0000
     1.0000   1.0000   1.0000   1.0000   1.0000   1.0000   1.0000   1.0000
     1.0000   1.0000   0.0000   0.0000   0.0000

          k = 0.1667 0.4811-0.3081 (  2810 PWs)   bands (ev):

   -77.1113 -77.1113 -40.5243 -40.5243 -40.3709 -40.3709 -40.3067 -40.3067
    14.2691  14.2691  15.3711  15.3711  16.3668  16.3668  17.1670  17.1670
    18.2890  18.2890  21.1843  21.1843  27.8931

     occupation numbers 
     1.0000   1.0000   1.0000   1.0000   1.0000   1.0000   1.0000   1.0000
     1.0000   1.0000   1.0000   1.0000   1.0000   1.0000   1.0000   1.0000
     1.0000   1.0000   0.0000   0.0000   0.0000

          k = 0.1667 0.5774 0.0000 (  2824 PWs)   bands (ev):

   -77.1162 -77.1021 -40.5098 -40.4581 -40.4218 -40.3883 -40.3411 -40.3170
    14.4730  14.4789  14.4909  15.7850  16.0344  16.2673  16.7937  18.0990
    18.2088  18.2504  21.2544  22.8533  29.3115

     occupation numbers 
     1.0000   1.0000   1.0000   1.0000   1.0000   1.0000   1.0000   1.0000
     1.0000   1.0000   1.0000   1.0000   1.0000   1.0000   1.0000   1.0000
     1.0000   1.0000   0.0000   0.0000   0.0000

          k = 0.1667 0.5774 0.1027 (  2825 PWs)   bands (ev):

   -77.1153 -77.1031 -40.5220 -40.4766 -40.4159 -40.3682 -40.3418 -40.3113
    14.1772  14.5483  14.9925  15.3578  15.9828  16.6424  16.8743  17.9849
    18.0955  18.3030  21.3498  22.7983  28.2136

     occupation numbers 
     1.0000   1.0000   1.0000   1.0000   1.0000   1.0000   1.0000   1.0000
     1.0000   1.0000   1.0000   1.0000   1.0000   1.0000   1.0000   1.0000
     1.0000   1.0000   0.0000   0.0000   0.0000

          k = 0.1667 0.5774 0.2054 (  2832 PWs)   bands (ev):

   -77.1127 -77.1057 -40.5366 -40.5100 -40.3996 -40.3555 -40.3325 -40.3014
    14.1081  14.5661  15.0621  15.5297  15.8686  16.8507  17.1331  17.5572
    18.1121  18.3429  21.6485  22.5841  26.9464

     occupation numbers 
     1.0000   1.0000   1.0000   1.0000   1.0000   1.0000   1.0000   1.0000
     1.0000   1.0000   1.0000   1.0000   1.0000   1.0000   1.0000   1.0000
     1.0000   1.0000   0.0000   0.0000   0.0000

          k = 0.1667 0.5774-0.3081 (  2818 PWs)   bands (ev):

   -77.1092 -77.1092 -40.5334 -40.5334 -40.3773 -40.3773 -40.3070 -40.3070
    14.2717  14.2717  15.3300  15.3300  16.4072  16.4072  17.3746  17.3746
    18.2257  18.2257  22.1411  22.1411  26.4661

     occupation numbers 
     1.0000   1.0000   1.0000   1.0000   1.0000   1.0000   1.0000   1.0000
     1.0000   1.0000   1.0000   1.0000   1.0000   1.0000   1.0000   1.0000
     1.0000   1.0000   0.0000   0.0000   0.0000

          k = 0.2500 0.4330 0.0000 (  2844 PWs)   bands (ev):

   -77.1211 -77.1016 -40.4751 -40.4535 -40.4392 -40.3784 -40.3309 -40.3276
    14.4525  14.6213  14.9797  15.0228  15.9402  16.4051  16.7146  17.5716
    18.1676  18.2816  20.0031  26.4528  27.2439

     occupation numbers 
     1.0000   1.0000   1.0000   1.0000   1.0000   1.0000   1.0000   1.0000
     1.0000   1.0000   1.0000   1.0000   1.0000   1.0000   1.0000   1.0000
     1.0000   1.0000   0.0000   0.0000   0.0000

          k = 0.2500 0.4330 0.1027 (  2835 PWs)   bands (ev):

   -77.1197 -77.1029 -40.4880 -40.4795 -40.3989 -40.3922 -40.3337 -40.3122
    14.4555  14.5723  15.0347  15.1621  16.0923  16.2563  16.7103  17.6100
    17.9585  18.3474  20.1280  24.9027  27.5271

     occupation numbers 
     1.0000   1.0000   1.0000   1.0000   1.0000   1.0000   1.0000   1.0000
     1.0000   1.0000   1.0000   1.0000   1.0000   1.0000   1.0000   1.0000
     1.0000   1.0000   0.0000   0.0000   0.0000

          k = 0.2500 0.4330 0.2054 (  2816 PWs)   bands (ev):

   -77.1162 -77.1065 -40.5110 -40.4957 -40.3970 -40.3742 -40.3275 -40.2988
    14.4521  14.5172  15.2036  15.5506  15.9248  16.2029  16.7479  17.3960
    17.9566  18.4250  20.5025  22.8720  28.3097

     occupation numbers 
     1.0000   1.0000   1.0000   1.0000   1.0000   1.0000   1.0000   1.0000
     1.0000   1.0000   1.0000   1.0000   1.0000   1.0000   1.0000   1.0000
     1.0000   1.0000   0.0000   0.0000   0.0000

          k = 0.2500 0.4330-0.3081 (  2812 PWs)   bands (ev):

   -77.1113 -77.1113 -40.5119 -40.5119 -40.3846 -40.3846 -40.3055 -40.3055
    14.4733  14.4733  15.5283  15.5283  15.9841  15.9841  16.9623  16.9623
    18.3090  18.3090  21.3466  21.3466  29.3357

     occupation numbers 
     1.0000   1.0000   1.0000   1.0000   1.0000   1.0000   1.0000   1.0000
     1.0000   1.0000   1.0000   1.0000   1.0000   1.0000   1.0000   1.0000
     1.0000   1.0000   0.0000   0.0000   0.0000

          k = 0.2500 0.5292 0.0000 (  2840 PWs)   bands (ev):

   -77.1130 -77.1029 -40.4883 -40.4443 -40.4092 -40.4091 -40.3524 -40.3516
    14.5488  14.7452  14.8403  15.3425  15.9584  16.1984  16.8854  17.8563
    18.1390  18.2179  21.6678  24.2522  26.5887

     occupation numbers 
     1.0000   1.0000   1.0000   1.0000   1.0000   1.0000   1.0000   1.0000
     1.0000   1.0000   1.0000   1.0000   1.0000   1.0000   1.0000   1.0000
     1.0000   1.0000   0.0000   0.0000   0.0000

          k = 0.2500 0.5292 0.1027 (  2832 PWs)   bands (ev):

   -77.1123 -77.1036 -40.4952 -40.4682 -40.4286 -40.3774 -40.3571 -40.3283
    14.4920  14.8709  14.9656  15.2383  15.9850  16.2002  16.8937  17.8644
    17.9334  18.2635  21.8555  24.2658  26.6217

     occupation numbers 
     1.0000   1.0000   1.0000   1.0000   1.0000   1.0000   1.0000   1.0000
     1.0000   1.0000   1.0000   1.0000   1.0000   1.0000   1.0000   1.0000
     1.0000   1.0000   0.0000   0.0000   0.0000

          k = 0.2500 0.5292 0.2054 (  2821 PWs)   bands (ev):

   -77.1104 -77.1054 -40.5118 -40.4968 -40.4271 -40.3855 -40.3267 -40.3063
    14.5087  14.8664  15.1274  15.4296  15.8451  16.2190  16.9438  17.4224
    18.0288  18.3066  22.3506  23.9576  26.5535

     occupation numbers 
     1.0000   1.0000   1.0000   1.0000   1.0000   1.0000   1.0000   1.0000
     1.0000   1.0000   1.0000   1.0000   1.0000   1.0000   1.0000   1.0000
     1.0000   1.0000   0.0000   0.0000   0.0000

          k = 0.2500 0.5292-0.3081 (  2820 PWs)   bands (ev):

   -77.1079 -77.1079 -40.5145 -40.5145 -40.4077 -40.4077 -40.3049 -40.3049
    14.6471  14.6471  15.4230  15.4230  15.9906  15.9906  17.0771  17.0771
    18.2172  18.2172  23.1152  23.1152  27.1009

     occupation numbers 
     1.0000   1.0000   1.0000   1.0000   1.0000   1.0000   1.0000   1.0000
     1.0000   1.0000   1.0000   1.0000   1.0000   1.0000   1.0000   1.0000
     1.0000   1.0000   0.0000   0.0000   0.0000

          k = 0.3333 0.5774 0.0000 (  2850 PWs)   bands (ev):

   -77.1067 -77.1067 -40.4785 -40.4294 -40.4294 -40.3793 -40.3793 -40.3778
    14.5588  14.9429  14.9429  15.2217  16.0291  16.0291  16.9863  18.0063
    18.0063  18.1103  23.4081  24.2559  24.2559

     occupation numbers 
     1.0000   1.0000   1.0000   1.0000   1.0000   1.0000   1.0000   1.0000
     1.0000   1.0000   1.0000   1.0000   1.0000   1.0000   1.0000   1.0000
     1.0000   1.0000   0.0000   0.0000   0.0000

          k = 0.3333 0.5774 0.1027 (  2841 PWs)   bands (ev):

   -77.1067 -77.1067 -40.4717 -40.4587 -40.4587 -40.3845 -40.3498 -40.3498
    14.6544  14.9645  14.9645  15.2408  16.0031  16.0031  16.9588  17.8739
    18.0490  18.0490  23.8097  24.3269  24.3269

     occupation numbers 
     1.0000   1.0000   1.0000   1.0000   1.0000   1.0000   1.0000   1.0000
     1.0000   1.0000   1.0000   1.0000   1.0000   1.0000   1.0000   1.0000
     1.0000   1.0000   0.0000   0.0000   0.0000

          k = 0.3333 0.5774 0.2054 (  2829 PWs)   bands (ev):

   -77.1067 -77.1067 -40.4916 -40.4915 -40.4534 -40.4030 -40.3167 -40.3167
    14.8984  15.0058  15.0058  15.2548  15.9579  15.9579  16.9235  17.3898
    18.1301  18.1301  24.5028  24.5028  24.8369

     occupation numbers 
     1.0000   1.0000   1.0000   1.0000   1.0000   1.0000   1.0000   1.0000
     1.0000   1.0000   1.0000   1.0000   1.0000   1.0000   1.0000   1.0000
     1.0000   1.0000   0.0000   0.0000   0.0000

          k = 0.3333 0.5774-0.3081 (  2790 PWs)   bands (ev):

   -77.1067 -77.1067 -40.5039 -40.5039 -40.4282 -40.4282 -40.3041 -40.3041
    15.0253  15.0253  15.1507  15.1507  15.9386  15.9386  17.0242  17.0242
    18.1689  18.1689  24.6159  24.6159  26.2486

     occupation numbers 
     1.0000   1.0000   1.0000   1.0000   1.0000   1.0000   1.0000   1.0000
     1.0000   1.0000   1.0000   1.0000   1.0000   1.0000   1.0000   1.0000
     1.0000   1.0000   0.0000   0.0000   0.0000

 ------ SPIN DOWN ----------


          k = 0.0000 0.0000 0.0000 (  2803 PWs)   bands (ev):

   -75.0650 -75.0018 -38.5457 -38.2210 -38.2210 -38.1763 -38.1687 -38.1687
     9.8903  14.6659  17.9502  18.0093  18.0093  18.3817  18.3817  18.6146
    18.8237  18.8237  20.0626  20.0626  26.3749

     occupation numbers 
     1.0000   1.0000   1.0000   1.0000   1.0000   1.0000   1.0000   1.0000
     1.0000   1.0000   1.0000   1.0000   1.0000   1.0000   1.0000   1.0000
     1.0000   1.0000   0.0000   0.0000   0.0000

          k = 0.0000 0.0000 0.1027 (  2827 PWs)   bands (ev):

   -75.0608 -75.0060 -38.5213 -38.2175 -38.2175 -38.2014 -38.1722 -38.1722
    10.1703  14.4332  17.8563  17.9424  17.9424  18.0321  18.2968  18.2968
    19.0034  19.0034  20.0465  20.0465  27.6880

     occupation numbers 
     1.0000   1.0000   1.0000   1.0000   1.0000   1.0000   1.0000   1.0000
     1.0000   1.0000   1.0000   1.0000   1.0000   1.0000   1.0000   1.0000
     0.0000   0.0000   0.0000   0.0000   0.0000

          k = 0.0000 0.0000 0.2054 (  2828 PWs)   bands (ev):

   -75.0492 -75.0176 -38.4545 -38.2698 -38.2079 -38.2079 -38.1818 -38.1818
    10.9795  13.5468  17.3968  17.6181  17.8853  17.8853  18.1106  18.1106
    19.3665  19.3665  19.9503  19.9503  30.6657

     occupation numbers 
[...]
    20.2299  20.2771  21.4304  23.9675  28.8777

     occupation numbers 
     1.0000   1.0000   1.0000   1.0000   1.0000   1.0000   1.0000   1.0000
     1.0000   1.0000   1.0000   1.0000   1.0000   1.0000   1.0000   0.0000
     0.0000   0.0000   0.0000   0.0000   0.0000

          k = 0.0833 0.5292 0.1027 (  2824 PWs)   bands (ev):

   -75.0026 -74.9847 -38.4990 -38.4455 -38.3595 -38.3036 -38.2607 -38.2314
    14.8598  15.4780  16.0314  16.5786  17.8269  18.3343  18.3822  20.0036
    20.1712  20.2693  21.2910  23.6222  27.8474

     occupation numbers 
     1.0000   1.0000   1.0000   1.0000   1.0000   1.0000   1.0000   1.0000
     1.0000   1.0000   1.0000   1.0000   1.0000   1.0000   1.0000   0.0000
     0.0000   0.0000   0.0000   0.0000   0.0000

          k = 0.0833 0.5292 0.2054 (  2822 PWs)   bands (ev):

   -74.9988 -74.9885 -38.5142 -38.4808 -38.3203 -38.2812 -38.2662 -38.2367
    14.8331  15.3169  16.3368  16.6561  17.8775  18.6531  18.8559  19.5336
    20.1218  20.3566  21.0705  22.6726  27.3150

     occupation numbers 
     1.0000   1.0000   1.0000   1.0000   1.0000   1.0000   1.0000   1.0000
     1.0000   1.0000   1.0000   1.0000   1.0000   1.0000   1.0000   0.0000
     0.0000   0.0000   0.0000   0.0000   0.0000

          k = 0.0833 0.5292-0.3081 (  2822 PWs)   bands (ev):

   -74.9936 -74.9936 -38.5080 -38.5080 -38.2900 -38.2900 -38.2516 -38.2516
    15.0115  15.0115  16.6039  16.6039  18.3877  18.3877  19.1749  19.1749
    20.2059  20.2059  21.6077  21.6077  27.5734

     occupation numbers 
     1.0000   1.0000   1.0000   1.0000   1.0000   1.0000   1.0000   1.0000
     1.0000   1.0000   1.0000   1.0000   1.0000   1.0000   0.0000   0.0000
     0.0000   0.0000   0.0000   0.0000   0.0000

          k = 0.1667 0.2887 0.0000 (  2808 PWs)   bands (ev):

   -75.0296 -74.9876 -38.4607 -38.3631 -38.3535 -38.2664 -38.2175 -38.2159
    12.5875  15.9947  16.3111  16.6907  17.8810  17.9493  18.4686  18.8527
    19.4291  19.7948  20.1927  24.9726  26.8150

     occupation numbers 
     1.0000   1.0000   1.0000   1.0000   1.0000   1.0000   1.0000   1.0000
     1.0000   1.0000   1.0000   1.0000   1.0000   1.0000   1.0000   1.0000
     0.0000   0.0000   0.0000   0.0000   0.0000

          k = 0.1667 0.2887 0.1027 (  2807 PWs)   bands (ev):

   -75.0268 -74.9904 -38.4605 -38.3614 -38.3451 -38.2739 -38.2219 -38.2144
    12.8005  15.9189  16.2204  16.7580  17.7898  17.9753  18.3586  18.9437
    19.5587  19.6667  20.2038  23.3177  29.0144

     occupation numbers 
     1.0000   1.0000   1.0000   1.0000   1.0000   1.0000   1.0000   1.0000
     1.0000   1.0000   1.0000   1.0000   1.0000   1.0000   1.0000   0.0103
     0.0000   0.0000   0.0000   0.0000   0.0000

          k = 0.1667 0.2887 0.2054 (  2818 PWs)   bands (ev):

   -75.0191 -74.9981 -38.4504 -38.3885 -38.3070 -38.2771 -38.2327 -38.2219
    13.4045  15.2279  16.4803  16.9300  17.5258  17.8061  18.4146  19.0251
    19.6615  19.7887  20.1581  21.5844  32.2763

     occupation numbers 
     1.0000   1.0000   1.0000   1.0000   1.0000   1.0000   1.0000   1.0000
     1.0000   1.0000   1.0000   1.0000   1.0000   1.0000   1.0000   0.0000
     0.0000   0.0000   0.0000   0.0000   0.0000

          k = 0.1667 0.2887-0.3081 (  2816 PWs)   bands (ev):

   -75.0086 -75.0086 -38.4240 -38.4240 -38.2779 -38.2779 -38.2370 -38.2370
    14.2843  14.2843  16.8642  16.8642  17.4854  17.4854  18.7252  18.7252
    19.9817  19.9817  20.3914  20.3914  34.1075

     occupation numbers 
     1.0000   1.0000   1.0000   1.0000   1.0000   1.0000   1.0000   1.0000
     1.0000   1.0000   1.0000   1.0000   1.0000   1.0000   1.0000   1.0000
     0.0000   0.0000   0.0000   0.0000   0.0000

          k = 0.1667 0.3849 0.0000 (  2818 PWs)   bands (ev):

   -75.0157 -74.9842 -38.4222 -38.4159 -38.3912 -38.2978 -38.2406 -38.2385
    13.8486  16.0059  16.0669  16.4994  17.6750  18.0867  18.2284  19.2035
    19.9441  20.1858  20.5325  26.7559  27.0506

     occupation numbers 
     1.0000   1.0000   1.0000   1.0000   1.0000   1.0000   1.0000   1.0000
     1.0000   1.0000   1.0000   1.0000   1.0000   1.0000   1.0000   0.0000
     0.0000   0.0000   0.0000   0.0000   0.0000

          k = 0.1667 0.3849 0.1027 (  2815 PWs)   bands (ev):

   -75.0136 -74.9863 -38.4531 -38.4107 -38.3613 -38.3039 -38.2474 -38.2298
    13.9956  15.8687  16.1716  16.6042  17.6504  18.0516  18.1849  19.2439
    19.9166  20.0477  20.6401  24.4214  29.1847

     occupation numbers 
     1.0000   1.0000   1.0000   1.0000   1.0000   1.0000   1.0000   1.0000
     1.0000   1.0000   1.0000   1.0000   1.0000   1.0000   1.0000   0.0000
     0.0000   0.0000   0.0000   0.0000   0.0000

          k = 0.1667 0.3849 0.2054 (  2819 PWs)   bands (ev):

   -75.0079 -74.9921 -38.4677 -38.4338 -38.3197 -38.3006 -38.2559 -38.2285
    14.3982  15.4890  16.4590  16.8242  17.5119  17.7666  18.3781  19.2057
    19.7715  20.2344  20.7230  22.4142  30.1619

     occupation numbers 
     1.0000   1.0000   1.0000   1.0000   1.0000   1.0000   1.0000   1.0000
     1.0000   1.0000   1.0000   1.0000   1.0000   1.0000   1.0000   0.0000
     0.0000   0.0000   0.0000   0.0000   0.0000

          k = 0.1667 0.3849-0.3081 (  2818 PWs)   bands (ev):

   -75.0000 -75.0000 -38.4588 -38.4588 -38.3000 -38.3000 -38.2443 -38.2443
    14.9478  14.9478  16.8079  16.8079  17.4875  17.4875  18.7482  18.7482
    20.2293  20.2293  21.0772  21.0772  31.2728

     occupation numbers 
     1.0000   1.0000   1.0000   1.0000   1.0000   1.0000   1.0000   1.0000
     1.0000   1.0000   1.0000   1.0000   1.0000   1.0000   1.0000   1.0000
     0.0000   0.0000   0.0000   0.0000   0.0000

          k = 0.1667 0.4811 0.0000 (  2830 PWs)   bands (ev):

   -75.0041 -74.9832 -38.4576 -38.4101 -38.3852 -38.3273 -38.2640 -38.2564
    14.9543  15.8276  15.8411  16.5546  17.6150  17.9585  18.3260  19.6698
    20.1796  20.2070  21.4567  25.4535  28.6740

     occupation numbers 
     1.0000   1.0000   1.0000   1.0000   1.0000   1.0000   1.0000   1.0000
     1.0000   1.0000   1.0000   1.0000   1.0000   1.0000   1.0000   0.0000
     0.0000   0.0000   0.0000   0.0000   0.0000

          k = 0.1667 0.4811 0.1027 (  2827 PWs)   bands (ev):

   -75.0027 -74.9846 -38.4728 -38.4309 -38.3611 -38.3202 -38.2702 -38.2452
    14.9654  15.7858  16.0103  16.5875  17.6302  17.9389  18.3918  19.6601
    19.9408  20.2828  21.5075  24.8257  27.6926

     occupation numbers 
     1.0000   1.0000   1.0000   1.0000   1.0000   1.0000   1.0000   1.0000
     1.0000   1.0000   1.0000   1.0000   1.0000   1.0000   1.0000   0.0000
     0.0000   0.0000   0.0000   0.0000   0.0000

          k = 0.1667 0.4811 0.2054 (  2821 PWs)   bands (ev):

   -74.9989 -74.9884 -38.4895 -38.4620 -38.3401 -38.3020 -38.2707 -38.2357
    15.0618  15.5838  16.3484  16.8641  17.4596  17.9179  18.6100  19.3292
    19.8809  20.3804  21.6575  23.3709  27.8273

     occupation numbers 
     1.0000   1.0000   1.0000   1.0000   1.0000   1.0000   1.0000   1.0000
     1.0000   1.0000   1.0000   1.0000   1.0000   1.0000   1.0000   0.0000
     0.0000   0.0000   0.0000   0.0000   0.0000

          k = 0.1667 0.4811-0.3081 (  2810 PWs)   bands (ev):

   -74.9936 -74.9936 -38.4858 -38.4858 -38.3184 -38.3184 -38.2457 -38.2457
    15.2869  15.2869  16.7647  16.7647  17.6476  17.6476  18.8905  18.8905
    20.2208  20.2208  22.1875  22.1875  28.6367

     occupation numbers 
     1.0000   1.0000   1.0000   1.0000   1.0000   1.0000   1.0000   1.0000
     1.0000   1.0000   1.0000   1.0000   1.0000   1.0000   0.9993   0.9993
     0.0000   0.0000   0.0000   0.0000   0.0000

          k = 0.1667 0.5774 0.0000 (  2824 PWs)   bands (ev):

   -74.9989 -74.9838 -38.4727 -38.4159 -38.3664 -38.3395 -38.2786 -38.2619
    15.4173  15.7012  15.7698  16.6219  17.6620  17.7903  18.4331  19.9979
    20.1769  20.1836  22.3696  23.8815  29.7378

     occupation numbers 
     1.0000   1.0000   1.0000   1.0000   1.0000   1.0000   1.0000   1.0000
     1.0000   1.0000   1.0000   1.0000   1.0000   1.0000   1.0000   0.0000
     0.0000   0.0000   0.0000   0.0000   0.0000

          k = 0.1667 0.5774 0.1027 (  2825 PWs)   bands (ev):

   -74.9979 -74.9848 -38.4848 -38.4352 -38.3644 -38.3144 -38.2840 -38.2520
    15.2540  15.7477  16.1578  16.4360  17.5859  17.9752  18.5083  19.9113
    19.9959  20.2460  22.3973  23.7793  28.8224

     occupation numbers 
     1.0000   1.0000   1.0000   1.0000   1.0000   1.0000   1.0000   1.0000
     1.0000   1.0000   1.0000   1.0000   1.0000   1.0000   1.0000   0.0000
     0.0000   0.0000   0.0000   0.0000   0.0000

          k = 0.1667 0.5774 0.2054 (  2832 PWs)   bands (ev):

   -74.9951 -74.9875 -38.4996 -38.4707 -38.3492 -38.3014 -38.2740 -38.2395
    15.2081  15.6448  16.4151  16.7773  17.3688  18.0954  18.7604  19.4018
    20.0219  20.2922  22.5225  23.4426  27.7411

     occupation numbers 
     1.0000   1.0000   1.0000   1.0000   1.0000   1.0000   1.0000   1.0000
     1.0000   1.0000   1.0000   1.0000   1.0000   1.0000   1.0000   0.0000
     0.0000   0.0000   0.0000   0.0000   0.0000

          k = 0.1667 0.5774-0.3081 (  2818 PWs)   bands (ev):

   -74.9913 -74.9913 -38.4959 -38.4959 -38.3256 -38.3256 -38.2457 -38.2457
    15.3665  15.3665  16.7538  16.7538  17.7014  17.7014  19.0584  19.0584
    20.1548  20.1548  22.9210  22.9210  27.3690

     occupation numbers 
     1.0000   1.0000   1.0000   1.0000   1.0000   1.0000   1.0000   1.0000
     1.0000   1.0000   1.0000   1.0000   1.0000   1.0000   0.0000   0.0000
     0.0000   0.0000   0.0000   0.0000   0.0000

          k = 0.2500 0.4330 0.0000 (  2844 PWs)   bands (ev):

   -75.0041 -74.9832 -38.4349 -38.4108 -38.3854 -38.3289 -38.2771 -38.2638
    14.9668  15.9043  16.1913  16.2219  17.5190  17.9866  18.3306  19.4184
    20.1298  20.2094  21.4983  27.0237  27.8648

     occupation numbers 
     1.0000   1.0000   1.0000   1.0000   1.0000   1.0000   1.0000   1.0000
     1.0000   1.0000   1.0000   1.0000   1.0000   1.0000   1.0000   0.0000
     0.0000   0.0000   0.0000   0.0000   0.0000

          k = 0.2500 0.4330 0.1027 (  2835 PWs)   bands (ev):

   -75.0027 -74.9846 -38.4451 -38.4392 -38.3453 -38.3424 -38.2799 -38.2490
    15.0442  15.8222  16.2603  16.4101  17.5650  17.8062  18.3345  19.4590
    19.8812  20.2911  21.6027  25.5625  28.1537

     occupation numbers 
     1.0000   1.0000   1.0000   1.0000   1.0000   1.0000   1.0000   1.0000
     1.0000   1.0000   1.0000   1.0000   1.0000   1.0000   1.0000   0.0000
     0.0000   0.0000   0.0000   0.0000   0.0000

          k = 0.2500 0.4330 0.2054 (  2816 PWs)   bands (ev):

   -74.9989 -74.9884 -38.4703 -38.4555 -38.3476 -38.3212 -38.2702 -38.2357
    15.2416  15.6815  16.4851  16.7754  17.4147  17.5417  18.4176  19.2283
    19.8387  20.3895  21.8396  23.6913  28.9360

     occupation numbers 
     1.0000   1.0000   1.0000   1.0000   1.0000   1.0000   1.0000   1.0000
     1.0000   1.0000   1.0000   1.0000   1.0000   1.0000   1.0000   0.0000
     0.0000   0.0000   0.0000   0.0000   0.0000

          k = 0.2500 0.4330-0.3081 (  2812 PWs)   bands (ev):

   -74.9936 -74.9936 -38.4719 -38.4719 -38.3342 -38.3342 -38.2440 -38.2440
    15.4801  15.4801  16.8325  16.8325  17.3093  17.3093  18.7194  18.7194
    20.2451  20.2451  22.4066  22.4066  29.9489

     occupation numbers 
     1.0000   1.0000   1.0000   1.0000   1.0000   1.0000   1.0000   1.0000
     1.0000   1.0000   1.0000   1.0000   1.0000   1.0000   1.0000   1.0000
     0.0000   0.0000   0.0000   0.0000   0.0000

          k = 0.2500 0.5292 0.0000 (  2840 PWs)   bands (ev):

   -74.9954 -74.9846 -38.4491 -38.4009 -38.3625 -38.3526 -38.3005 -38.2900
    15.6833  15.8722  16.0303  16.3110  17.5203  17.7365  18.5338  19.7344
    20.0968  20.1438  22.7940  25.0650  27.1738

     occupation numbers 
     1.0000   1.0000   1.0000   1.0000   1.0000   1.0000   1.0000   1.0000
     1.0000   1.0000   1.0000   1.0000   1.0000   1.0000   1.0000   0.0000
     0.0000   0.0000   0.0000   0.0000   0.0000

          k = 0.2500 0.5292 0.1027 (  2832 PWs)   bands (ev):

   -74.9947 -74.9853 -38.4554 -38.4251 -38.3815 -38.3231 -38.3029 -38.2672
    15.6335  16.0018  16.1156  16.3742  17.4975  17.6378  18.5438  19.7523
    19.8457  20.1994  22.9568  25.0364  27.2362

     occupation numbers 
     1.0000   1.0000   1.0000   1.0000   1.0000   1.0000   1.0000   1.0000
     1.0000   1.0000   1.0000   1.0000   1.0000   1.0000   1.0000   0.0000
     0.0000   0.0000   0.0000   0.0000   0.0000

          k = 0.2500 0.5292 0.2054 (  2821 PWs)   bands (ev):

   -74.9927 -74.9873 -38.4719 -38.4558 -38.3807 -38.3356 -38.2668 -38.2439
    15.6654  15.9610  16.3971  16.7221  17.2449  17.4993  18.6136  19.2638
    19.9310  20.2499  23.3398  24.6630  27.3121

     occupation numbers 
     1.0000   1.0000   1.0000   1.0000   1.0000   1.0000   1.0000   1.0000
     1.0000   1.0000   1.0000   1.0000   1.0000   1.0000   1.0000   0.0000
     0.0000   0.0000   0.0000   0.0000   0.0000

          k = 0.2500 0.5292-0.3081 (  2820 PWs)   bands (ev):

   -74.9900 -74.9900 -38.4747 -38.4747 -38.3599 -38.3599 -38.2427 -38.2427
    15.7988  15.7988  16.7957  16.7957  17.2125  17.2125  18.8235  18.8235
    20.1432  20.1432  23.9307  23.9307  27.8611

     occupation numbers 
     1.0000   1.0000   1.0000   1.0000   1.0000   1.0000   1.0000   1.0000
     1.0000   1.0000   1.0000   1.0000   1.0000   1.0000   1.0000   1.0000
     0.0000   0.0000   0.0000   0.0000   0.0000

          k = 0.3333 0.5774 0.0000 (  2850 PWs)   bands (ev):

   -74.9887 -74.9887 -38.4382 -38.3847 -38.3847 -38.3280 -38.3201 -38.3201
    15.9074  16.0340  16.0340  16.2305  17.5611  17.5611  18.6440  19.9075
    19.9075  20.0640  24.2463  25.0629  25.0629

     occupation numbers 
     1.0000   1.0000   1.0000   1.0000   1.0000   1.0000   1.0000   1.0000
     1.0000   1.0000   1.0000   1.0000   1.0000   1.0000   1.0000   0.0000
     0.0000   0.0000   0.0000   0.0000   0.0000

          k = 0.3333 0.5774 0.1027 (  2841 PWs)   bands (ev):

   -74.9887 -74.9887 -38.4308 -38.4142 -38.4142 -38.3354 -38.2904 -38.2904
    15.9830  16.1069  16.1069  16.2623  17.4758  17.4758  18.6225  19.7860
    19.9569  19.9569  24.6638  25.1094  25.1094

     occupation numbers 
     1.0000   1.0000   1.0000   1.0000   1.0000   1.0000   1.0000   1.0000
     1.0000   1.0000   1.0000   1.0000   1.0000   1.0000   1.0000   0.0000
     0.0000   0.0000   0.0000   0.0000   0.0000

          k = 0.3333 0.5774 0.2054 (  2829 PWs)   bands (ev):

   -74.9887 -74.9887 -38.4492 -38.4492 -38.4108 -38.3557 -38.2551 -38.2551
    16.1604  16.2797  16.2797  16.3202  17.2862  17.2862  18.6195  19.2329
    20.0477  20.0477  25.2243  25.2243  25.6781

     occupation numbers 
     1.0000   1.0000   1.0000   1.0000   1.0000   1.0000   1.0000   1.0000
     1.0000   1.0000   1.0000   1.0000   1.0000   1.0000   1.0000   0.0000
     0.0000   0.0000   0.0000   0.0000   0.0000

          k = 0.3333 0.5774-0.3081 (  2790 PWs)   bands (ev):

   -74.9887 -74.9887 -38.4625 -38.4625 -38.3832 -38.3832 -38.2415 -38.2415
    16.3055  16.3055  16.3913  16.3913  17.1698  17.1698  18.7915  18.7915
    20.0894  20.0894  25.2970  25.2970  27.0147

     occupation numbers 
     1.0000   1.0000   1.0000   1.0000   1.0000   1.0000   1.0000   1.0000
     1.0000   1.0000   1.0000   1.0000   1.0000   1.0000   1.0000   1.0000
     0.0000   0.0000   0.0000   0.0000   0.0000

     the Fermi energy is    18.9214 ev

!    total energy              =    -753.45507599 Ry
     total all-electron energy =     -5573.811767 Ry
     estimated scf accuracy    <       0.00000089 Ry
     smearing contrib. (-TS)   =      -0.00002038 Ry
     internal energy E=F+TS    =    -753.45505560 Ry

     The total energy is F=E-TS. E is the sum of the following terms:
     one-electron contribution =    -280.33034864 Ry
     hartree contribution      =     164.10997356 Ry
     xc contribution           =     -61.41558377 Ry
     ewald contribution        =    -400.64332579 Ry
     one-center paw contrib.   =    -175.17577097 Ry
      -> PAW hartree energy AE =     222.06537237 Ry
      -> PAW hartree energy PS =    -221.00977809 Ry
      -> PAW xc energy AE      =    -117.67378520 Ry
      -> PAW xc energy PS      =      29.03030543 Ry
      -> total E_H with PAW    =     165.16556784 Ry
      -> total E_XC with PAW   =    -150.05906353 Ry

     total magnetization       =     3.31 Bohr mag/cell
     absolute magnetization    =     3.62 Bohr mag/cell

     convergence has been achieved in  14 iterations

     Writing all to output data dir ./out/Co.save/
 
     init_run     :      0.37s CPU      0.50s WALL (       1 calls)
     electrons    :     27.38s CPU     29.25s WALL (       1 calls)

     Called by init_run:
     wfcinit      :      0.22s CPU      0.32s WALL (       1 calls)
     potinit      :      0.10s CPU      0.13s WALL (       1 calls)
     hinit0       :      0.03s CPU      0.04s WALL (       1 calls)

     Called by electrons:
     c_bands      :     23.17s CPU     24.56s WALL (      14 calls)
     sum_band     :      2.71s CPU      2.87s WALL (      14 calls)
     v_of_rho     :      0.05s CPU      0.05s WALL (      15 calls)
     v_h          :      0.00s CPU      0.00s WALL (      15 calls)
     v_xc         :      0.04s CPU      0.04s WALL (      15 calls)
     newd         :      0.06s CPU      0.07s WALL (      15 calls)
     PAW_pot      :      1.47s CPU      1.78s WALL (      15 calls)
     mix_rho      :      0.01s CPU      0.01s WALL (      14 calls)

     Called by c_bands:
     init_us_2    :      0.16s CPU      0.18s WALL (    4256 calls)
     init_us_2:cp :      0.16s CPU      0.17s WALL (    4256 calls)
     cegterg      :     22.06s CPU     23.13s WALL (    2128 calls)

     Called by sum_band:
     sum_band:wei :      0.02s CPU      0.02s WALL (      14 calls)
     sum_band:loo :      2.55s CPU      2.70s WALL (      14 calls)
     sum_band:buf :      0.01s CPU      0.02s WALL (    2128 calls)
     sum_band:ini :      0.10s CPU      0.09s WALL (    2128 calls)
     sum_band:cal :      0.21s CPU      0.20s WALL (    2128 calls)
     sum_band:bec :      0.00s CPU      0.02s WALL (    2128 calls)
     addusdens    :      0.12s CPU      0.12s WALL (      14 calls)
                                        0.00s GPU  (      14 calls)
     addusd:skk   :      0.00s CPU      0.00s WALL (      14 calls)
                                        0.00s GPU  (      14 calls)

     Called by *egterg:
     cdiaghg      :      5.62s CPU      5.76s WALL (   10373 calls)
     cegterg:over :      0.75s CPU      0.71s WALL (    8397 calls)
     cegterg:upda :      0.08s CPU      0.18s WALL (    8397 calls)
     cegterg:last :      0.29s CPU      0.33s WALL (    6045 calls)
     h_psi        :     14.29s CPU     15.13s WALL (   10525 calls)
     s_psi        :      0.33s CPU      0.27s WALL (   10525 calls)
     g_psi        :      0.04s CPU      0.06s WALL (    8397 calls)

     Called by h_psi:
     h_psi:calbec :      0.74s CPU      0.68s WALL (   10525 calls)
     vloc_psi     :     13.31s CPU     14.06s WALL (   10525 calls)
     add_vuspsi   :      0.19s CPU      0.30s WALL (   10525 calls)

     General routines
     calbec       :      0.94s CPU      0.86s WALL (   12653 calls)
     fft          :      0.03s CPU      0.03s WALL (     369 calls)
     ffts         :      0.00s CPU      0.00s WALL (      58 calls)
     fftw         :     14.43s CPU     15.13s WALL (  332560 calls)
     interpolate  :      0.01s CPU      0.01s WALL (      30 calls)
 
     Parallel routines

     PAW routines
     PAW_pot      :      1.47s CPU      1.78s WALL (      15 calls)
     PAW_symme    :      0.02s CPU      0.02s WALL (      28 calls)
 
     PWSCF        :     28.05s CPU     30.65s WALL

 
   This run was terminated on:   8:49:50  22Mar2024            

=------------------------------------------------------------------------------=
   JOB DONE.
=------------------------------------------------------------------------------=
