
     Program PWSCF v.7.2 starts on 22Mar2024 at  9:28:28 

     This program is part of the open-source Quantum ESPRESSO suite
     for quantum simulation of materials; please cite
         "P. Giannozzi et al., J. Phys.:Condens. Matter 21 395502 (2009);
         "P. Giannozzi et al., J. Phys.:Condens. Matter 29 465901 (2017);
         "P. Giannozzi et al., J. Chem. Phys. 152 154105 (2020);
          URL http://www.quantum-espresso.org", 
     in publications or presentations arising from this work. More details at
     http://www.quantum-espresso.org/quote

     Parallel version (MPI), running on    20 processors

     MPI processes distributed on     1 nodes
     336929 MiB available memory on the printing compute node when the environment starts
 
     Waiting for input...
     Reading input from standard input

     Current dimensions of program PWSCF are:
     Max number of different atomic species (ntypx) = 10
     Max number of k-points (npk) = 120000
     Max angular momentum in pseudopotentials (lmaxx) =  4
     file Co.pbe-spn-kjpaw_psl.0.3.1.UPF: wavefunction(s)  3P 3D renormalized
 
     R & G space division:  proc/nbgrp/npool/nimage =      20
     Subspace diagonalization in iterative solution of the eigenvalue problem:
     a serial algorithm will be used

 
     Parallelization info
     --------------------
     sticks:   dense  smooth     PW     G-vecs:    dense   smooth      PW
     Min          32      32      9                 1133     1094     181
     Max          35      33     11                 1143     1101     186
     Sum         661     649    199                22719    21939    3645
 
     Using Slab Decomposition
 


     bravais-lattice index     =            4
     lattice parameter (alat)  =       4.6109  a.u.
     unit-cell volume          =     140.9165 (a.u.)^3
     number of atoms/cell      =            2
     number of atomic types    =            1
     number of electrons       =        34.00
     number of Kohn-Sham states=           21
     kinetic-energy cutoff     =     110.0000  Ry
     charge density cutoff     =     450.0000  Ry
     scf convergence threshold =      1.0E-06
     mixing beta               =       0.7000
     number of iterations used =            8  plain     mixing
     Exchange-correlation= SLA  PW   PBX  PBC
                           (   1   4   3   4   0   0   0)

     celldm(1)=   4.610932  celldm(2)=   0.000000  celldm(3)=   1.659836
     celldm(4)=   0.000000  celldm(5)=   0.000000  celldm(6)=   0.000000

     crystal axes: (cart. coord. in units of alat)
               a(1) = (   1.000000   0.000000   0.000000 )  
               a(2) = (  -0.500000   0.866025   0.000000 )  
               a(3) = (   0.000000   0.000000   1.659836 )  

     reciprocal axes: (cart. coord. in units 2 pi/alat)
               b(1) = (  1.000000  0.577350  0.000000 )  
               b(2) = (  0.000000  1.154701  0.000000 )  
               b(3) = (  0.000000  0.000000  0.602469 )  


     PseudoPot. # 1 for Co read from file:
     /truba/home/amuhaymin/ZnS/pseudo/QE/Co.pbe-spn-kjpaw_psl.0.3.1.UPF
     MD5 check sum: b0a1ad65bf214e88c1f3d33b20c7d919
     Pseudo is Projector augmented-wave + core cor, Zval = 17.0
     Generated using &quot;atomic&quot; code by A. Dal Corso  v.6.2.2
     Shape of augmentation charge: PSQ
     Using radial grid of 1193 points,  6 beta functions with: 
                l(1) =   0
                l(2) =   0
                l(3) =   1
                l(4) =   1
                l(5) =   2
                l(6) =   2
     Q(r) pseudized with 0 coefficients 


     atomic species   valence    mass     pseudopotential
        Co            17.00    58.93300     Co( 1.00)

     Starting magnetic structure 
     atomic species   magnetization
        Co           0.294

     24 Sym. Ops., with inversion, found (12 have fractional translation)


                                    s                        frac. trans.

      isym =  1     identity                                     

 cryst.   s( 1) = (     1          0          0      )
                  (     0          1          0      )
                  (     0          0          1      )

 cart.    s( 1) = (  1.0000000  0.0000000  0.0000000 )
                  (  0.0000000  1.0000000  0.0000000 )
                  (  0.0000000  0.0000000  1.0000000 )


      isym =  2     180 deg rotation - cart. axis [0,0,1]        

 cryst.   s( 2) = (    -1          0          0      )    f =(  0.0000000 )
                  (     0         -1          0      )       (  0.0000000 )
                  (     0          0          1      )       ( -0.5000000 )

 cart.    s( 2) = ( -1.0000000  0.0000000  0.0000000 )    f =(  0.0000000 )
                  (  0.0000000 -1.0000000  0.0000000 )       (  0.0000000 )
                  (  0.0000000  0.0000000  1.0000000 )       ( -0.8299180 )


      isym =  3     180 deg rotation - cart. axis [0,1,0]        

 cryst.   s( 3) = (    -1          0          0      )    f =(  0.0000000 )
                  (     1          1          0      )       (  0.0000000 )
                  (     0          0         -1      )       (  0.5000000 )

 cart.    s( 3) = ( -1.0000000  0.0000000  0.0000000 )    f =(  0.0000000 )
                  (  0.0000000  1.0000000  0.0000000 )       (  0.0000000 )
                  (  0.0000000  0.0000000 -1.0000000 )       (  0.8299180 )


      isym =  4     180 deg rotation - cart. axis [1,0,0]        

 cryst.   s( 4) = (     1          0          0      )
                  (    -1         -1          0      )
                  (     0          0         -1      )

 cart.    s( 4) = (  1.0000000  0.0000000  0.0000000 )
                  (  0.0000000 -1.0000000  0.0000000 )
                  (  0.0000000  0.0000000 -1.0000000 )


      isym =  5      60 deg rotation - cryst. axis [0,0,1]       

 cryst.   s( 5) = (     1          1          0      )    f =(  0.0000000 )
                  (    -1          0          0      )       ( -0.0000000 )
                  (     0          0          1      )       ( -0.5000000 )

 cart.    s( 5) = (  0.5000000 -0.8660254  0.0000000 )    f =(  0.0000000 )
                  (  0.8660254  0.5000000  0.0000000 )       ( -0.0000000 )
                  (  0.0000000  0.0000000  1.0000000 )       ( -0.8299180 )


      isym =  6      60 deg rotation - cryst. axis [0,0,-1]      

 cryst.   s( 6) = (     0         -1          0      )    f =(  0.0000000 )
                  (     1          1          0      )       ( -0.0000000 )
                  (     0          0          1      )       ( -0.5000000 )

 cart.    s( 6) = (  0.5000000  0.8660254  0.0000000 )    f =(  0.0000000 )
                  ( -0.8660254  0.5000000  0.0000000 )       ( -0.0000000 )
                  (  0.0000000  0.0000000  1.0000000 )       ( -0.8299180 )


      isym =  7     120 deg rotation - cryst. axis [0,0,1]       

 cryst.   s( 7) = (     0          1          0      )
                  (    -1         -1          0      )
                  (     0          0          1      )

 cart.    s( 7) = ( -0.5000000 -0.8660254  0.0000000 )
                  (  0.8660254 -0.5000000  0.0000000 )
                  (  0.0000000  0.0000000  1.0000000 )


      isym =  8     120 deg rotation - cryst. axis [0,0,-1]      

 cryst.   s( 8) = (    -1         -1          0      )
                  (     1          0          0      )
                  (     0          0          1      )

 cart.    s( 8) = ( -0.5000000  0.8660254  0.0000000 )
                  ( -0.8660254 -0.5000000  0.0000000 )
                  (  0.0000000  0.0000000  1.0000000 )


      isym =  9     180 deg rotation - cryst. axis [1,-1,0]      

 cryst.   s( 9) = (     0         -1          0      )    f =(  0.0000000 )
                  (    -1          0          0      )       (  0.0000000 )
                  (     0          0         -1      )       (  0.5000000 )

 cart.    s( 9) = (  0.5000000 -0.8660254  0.0000000 )    f =(  0.0000000 )
                  ( -0.8660254 -0.5000000  0.0000000 )       (  0.0000000 )
                  (  0.0000000  0.0000000 -1.0000000 )       (  0.8299180 )


      isym = 10     180 deg rotation - cryst. axis [2,1,0]       

 cryst.   s(10) = (     1          1          0      )    f =(  0.0000000 )
                  (     0         -1          0      )       ( -0.0000000 )
                  (     0          0         -1      )       (  0.5000000 )

 cart.    s(10) = (  0.5000000  0.8660254  0.0000000 )    f =(  0.0000000 )
                  (  0.8660254 -0.5000000  0.0000000 )       ( -0.0000000 )
                  (  0.0000000  0.0000000 -1.0000000 )       (  0.8299180 )


      isym = 11     180 deg rotation - cryst. axis [0,1,0]       

 cryst.   s(11) = (    -1         -1          0      )
                  (     0          1          0      )
                  (     0          0         -1      )

 cart.    s(11) = ( -0.5000000 -0.8660254  0.0000000 )
                  ( -0.8660254  0.5000000  0.0000000 )
                  (  0.0000000  0.0000000 -1.0000000 )


      isym = 12     180 deg rotation - cryst. axis [1,1,0]       

 cryst.   s(12) = (     0          1          0      )
                  (     1          0          0      )
                  (     0          0         -1      )

 cart.    s(12) = ( -0.5000000  0.8660254  0.0000000 )
                  (  0.8660254  0.5000000  0.0000000 )
                  (  0.0000000  0.0000000 -1.0000000 )


      isym = 13     inversion                                    

 cryst.   s(13) = (    -1          0          0      )
                  (     0         -1          0      )
                  (     0          0         -1      )

 cart.    s(13) = ( -1.0000000  0.0000000  0.0000000 )
                  (  0.0000000 -1.0000000  0.0000000 )
                  (  0.0000000  0.0000000 -1.0000000 )


      isym = 14     inv. 180 deg rotation - cart. axis [0,0,1]   

 cryst.   s(14) = (     1          0          0      )    f =(  0.0000000 )
                  (     0          1          0      )       (  0.0000000 )
                  (     0          0         -1      )       (  0.5000000 )

 cart.    s(14) = (  1.0000000  0.0000000  0.0000000 )    f =(  0.0000000 )
                  (  0.0000000  1.0000000  0.0000000 )       (  0.0000000 )
                  (  0.0000000  0.0000000 -1.0000000 )       (  0.8299180 )


      isym = 15     inv. 180 deg rotation - cart. axis [0,1,0]   

 cryst.   s(15) = (     1          0          0      )    f =(  0.0000000 )
                  (    -1         -1          0      )       (  0.0000000 )
                  (     0          0          1      )       ( -0.5000000 )

 cart.    s(15) = (  1.0000000  0.0000000  0.0000000 )    f =(  0.0000000 )
                  (  0.0000000 -1.0000000  0.0000000 )       (  0.0000000 )
                  (  0.0000000  0.0000000  1.0000000 )       ( -0.8299180 )


      isym = 16     inv. 180 deg rotation - cart. axis [1,0,0]   

 cryst.   s(16) = (    -1          0          0      )
                  (     1          1          0      )
                  (     0          0          1      )

 cart.    s(16) = ( -1.0000000  0.0000000  0.0000000 )
                  (  0.0000000  1.0000000  0.0000000 )
                  (  0.0000000  0.0000000  1.0000000 )


      isym = 17     inv.  60 deg rotation - cryst. axis [0,0,1]  

 cryst.   s(17) = (    -1         -1          0      )    f =(  0.0000000 )
                  (     1          0          0      )       (  0.0000000 )
                  (     0          0         -1      )       (  0.5000000 )

 cart.    s(17) = ( -0.5000000  0.8660254  0.0000000 )    f =(  0.0000000 )
                  ( -0.8660254 -0.5000000  0.0000000 )       (  0.0000000 )
                  (  0.0000000  0.0000000 -1.0000000 )       (  0.8299180 )


      isym = 18     inv.  60 deg rotation - cryst. axis [0,0,-1] 

 cryst.   s(18) = (     0          1          0      )    f =(  0.0000000 )
                  (    -1         -1          0      )       ( -0.0000000 )
                  (     0          0         -1      )       (  0.5000000 )

 cart.    s(18) = ( -0.5000000 -0.8660254  0.0000000 )    f =(  0.0000000 )
                  (  0.8660254 -0.5000000  0.0000000 )       ( -0.0000000 )
                  (  0.0000000  0.0000000 -1.0000000 )       (  0.8299180 )


      isym = 19     inv. 120 deg rotation - cryst. axis [0,0,1]  

 cryst.   s(19) = (     0         -1          0      )
                  (     1          1          0      )
                  (     0          0         -1      )

 cart.    s(19) = (  0.5000000  0.8660254  0.0000000 )
                  ( -0.8660254  0.5000000  0.0000000 )
                  (  0.0000000  0.0000000 -1.0000000 )


      isym = 20     inv. 120 deg rotation - cryst. axis [0,0,-1] 

 cryst.   s(20) = (     1          1          0      )
                  (    -1          0          0      )
                  (     0          0         -1      )

 cart.    s(20) = (  0.5000000 -0.8660254  0.0000000 )
                  (  0.8660254  0.5000000  0.0000000 )
                  (  0.0000000  0.0000000 -1.0000000 )


      isym = 21     inv. 180 deg rotation - cryst. axis [1,-1,0] 

 cryst.   s(21) = (     0          1          0      )    f =(  0.0000000 )
                  (     1          0          0      )       ( -0.0000000 )
                  (     0          0          1      )       ( -0.5000000 )

 cart.    s(21) = ( -0.5000000  0.8660254  0.0000000 )    f =(  0.0000000 )
                  (  0.8660254  0.5000000  0.0000000 )       ( -0.0000000 )
                  (  0.0000000  0.0000000  1.0000000 )       ( -0.8299180 )


      isym = 22     inv. 180 deg rotation - cryst. axis [2,1,0]  

 cryst.   s(22) = (    -1         -1          0      )    f =(  0.0000000 )
                  (     0          1          0      )       ( -0.0000000 )
                  (     0          0          1      )       ( -0.5000000 )

 cart.    s(22) = ( -0.5000000 -0.8660254  0.0000000 )    f =(  0.0000000 )
                  ( -0.8660254  0.5000000  0.0000000 )       ( -0.0000000 )
                  (  0.0000000  0.0000000  1.0000000 )       ( -0.8299180 )


      isym = 23     inv. 180 deg rotation - cryst. axis [0,1,0]  

 cryst.   s(23) = (     1          1          0      )
                  (     0         -1          0      )
                  (     0          0          1      )

 cart.    s(23) = (  0.5000000  0.8660254  0.0000000 )
                  (  0.8660254 -0.5000000  0.0000000 )
                  (  0.0000000  0.0000000  1.0000000 )


      isym = 24     inv. 180 deg rotation - cryst. axis [1,1,0]  

 cryst.   s(24) = (     0         -1          0      )
                  (    -1          0          0      )
                  (     0          0          1      )

 cart.    s(24) = (  0.5000000 -0.8660254  0.0000000 )
                  ( -0.8660254 -0.5000000  0.0000000 )
                  (  0.0000000  0.0000000  1.0000000 )


     point group D_6h(6/mmm)
     there are 12 classes
     the character table:

       E     2C6   2C3   C2    3C2'  3C2'' i     2S3   2S6   s_h   3s_d  3s_v 
A_1g   1.00  1.00  1.00  1.00  1.00  1.00  1.00  1.00  1.00  1.00  1.00  1.00
A_2g   1.00  1.00  1.00  1.00 -1.00 -1.00  1.00  1.00  1.00  1.00 -1.00 -1.00
B_1g   1.00 -1.00  1.00 -1.00  1.00 -1.00  1.00 -1.00  1.00 -1.00  1.00 -1.00
B_2g   1.00 -1.00  1.00 -1.00 -1.00  1.00  1.00 -1.00  1.00 -1.00 -1.00  1.00
E_1g   2.00  1.00 -1.00 -2.00  0.00  0.00  2.00  1.00 -1.00 -2.00  0.00  0.00
E_2g   2.00 -1.00 -1.00  2.00  0.00  0.00  2.00 -1.00 -1.00  2.00  0.00  0.00
A_1u   1.00  1.00  1.00  1.00  1.00  1.00 -1.00 -1.00 -1.00 -1.00 -1.00 -1.00
A_2u   1.00  1.00  1.00  1.00 -1.00 -1.00 -1.00 -1.00 -1.00 -1.00  1.00  1.00
B_1u   1.00 -1.00  1.00 -1.00  1.00 -1.00 -1.00  1.00 -1.00  1.00 -1.00  1.00
B_2u   1.00 -1.00  1.00 -1.00 -1.00  1.00 -1.00  1.00 -1.00  1.00  1.00 -1.00
E_1u   2.00  1.00 -1.00 -2.00  0.00  0.00 -2.00 -1.00  1.00  2.00  0.00  0.00
E_2u   2.00 -1.00 -1.00  2.00  0.00  0.00 -2.00  1.00  1.00 -2.00  0.00  0.00

     the symmetry operations in each class and the name of the first element:

     E        1
          identity                                               
     2C6      5    6
           60 deg rotation - cryst. axis [0,0,1]                 
     2C3      7    8
          120 deg rotation - cryst. axis [0,0,1]                 
     C2       2
          180 deg rotation - cart. axis [0,0,1]                  
     3C2'     4   12   11
          180 deg rotation - cart. axis [1,0,0]                  
     3C2''    3    9   10
          180 deg rotation - cart. axis [0,1,0]                  
     i       13
          inversion                                              
     2S3     17   18
          inv.  60 deg rotation - cryst. axis [0,0,1]            
     2S6     19   20
          inv. 120 deg rotation - cryst. axis [0,0,1]            
     s_h     14
          inv. 180 deg rotation - cart. axis [0,0,1]             
     3s_d    16   24   23
          inv. 180 deg rotation - cart. axis [1,0,0]             
     3s_v    15   21   22
          inv. 180 deg rotation - cart. axis [0,1,0]             

   Cartesian axes

     site n.     atom                  positions (alat units)
         1           Co  tau(   1) = (  -0.0000000   0.5773503   0.4149590  )
         2           Co  tau(   2) = (   0.5000000   0.2886751   1.2448770  )

   Crystallographic axes

     site n.     atom                  positions (cryst. coord.)
         1           Co  tau(   1) = (  0.3333333  0.6666667  0.2500000  )
         2           Co  tau(   2) = (  0.6666667  0.3333333  0.7500000  )

     number of k points=    76  Gaussian smearing, width (Ry)=  0.0010
                       cart. coord. in units 2pi/alat
        k(    1) = (   0.0000000   0.0000000   0.0000000), wk =   0.0011574
        k(    2) = (   0.0000000   0.0000000   0.1004115), wk =   0.0023148
        k(    3) = (   0.0000000   0.0000000   0.2008230), wk =   0.0023148
        k(    4) = (   0.0000000   0.0000000  -0.3012346), wk =   0.0011574
        k(    5) = (   0.0000000   0.0962250   0.0000000), wk =   0.0069444
        k(    6) = (   0.0000000   0.0962250   0.1004115), wk =   0.0138889
        k(    7) = (   0.0000000   0.0962250   0.2008230), wk =   0.0138889
        k(    8) = (   0.0000000   0.0962250  -0.3012346), wk =   0.0069444
        k(    9) = (   0.0000000   0.1924501   0.0000000), wk =   0.0069444
        k(   10) = (   0.0000000   0.1924501   0.1004115), wk =   0.0138889
        k(   11) = (   0.0000000   0.1924501   0.2008230), wk =   0.0138889
        k(   12) = (   0.0000000   0.1924501  -0.3012346), wk =   0.0069444
        k(   13) = (   0.0000000   0.2886751   0.0000000), wk =   0.0069444
        k(   14) = (   0.0000000   0.2886751   0.1004115), wk =   0.0138889
        k(   15) = (   0.0000000   0.2886751   0.2008230), wk =   0.0138889
        k(   16) = (   0.0000000   0.2886751  -0.3012346), wk =   0.0069444
        k(   17) = (   0.0000000   0.3849002   0.0000000), wk =   0.0069444
        k(   18) = (   0.0000000   0.3849002   0.1004115), wk =   0.0138889
        k(   19) = (   0.0000000   0.3849002   0.2008230), wk =   0.0138889
        k(   20) = (   0.0000000   0.3849002  -0.3012346), wk =   0.0069444
        k(   21) = (   0.0000000   0.4811252   0.0000000), wk =   0.0069444
        k(   22) = (   0.0000000   0.4811252   0.1004115), wk =   0.0138889
        k(   23) = (   0.0000000   0.4811252   0.2008230), wk =   0.0138889
        k(   24) = (   0.0000000   0.4811252  -0.3012346), wk =   0.0069444
        k(   25) = (   0.0000000  -0.5773503   0.0000000), wk =   0.0034722
        k(   26) = (   0.0000000  -0.5773503   0.1004115), wk =   0.0069444
        k(   27) = (   0.0000000  -0.5773503   0.2008230), wk =   0.0069444
        k(   28) = (   0.0000000  -0.5773503  -0.3012346), wk =   0.0034722
        k(   29) = (   0.0833333   0.1443376   0.0000000), wk =   0.0069444
        k(   30) = (   0.0833333   0.1443376   0.1004115), wk =   0.0138889
        k(   31) = (   0.0833333   0.1443376   0.2008230), wk =   0.0138889
        k(   32) = (   0.0833333   0.1443376  -0.3012346), wk =   0.0069444
        k(   33) = (   0.0833333   0.2405626   0.0000000), wk =   0.0138889
        k(   34) = (   0.0833333   0.2405626   0.1004115), wk =   0.0277778
        k(   35) = (   0.0833333   0.2405626   0.2008230), wk =   0.0277778
        k(   36) = (   0.0833333   0.2405626  -0.3012346), wk =   0.0138889
        k(   37) = (   0.0833333   0.3367877   0.0000000), wk =   0.0138889
        k(   38) = (   0.0833333   0.3367877   0.1004115), wk =   0.0277778
        k(   39) = (   0.0833333   0.3367877   0.2008230), wk =   0.0277778
        k(   40) = (   0.0833333   0.3367877  -0.3012346), wk =   0.0138889
        k(   41) = (   0.0833333   0.4330127   0.0000000), wk =   0.0138889
        k(   42) = (   0.0833333   0.4330127   0.1004115), wk =   0.0277778
        k(   43) = (   0.0833333   0.4330127   0.2008230), wk =   0.0277778
        k(   44) = (   0.0833333   0.4330127  -0.3012346), wk =   0.0138889
        k(   45) = (   0.0833333   0.5292377   0.0000000), wk =   0.0138889
        k(   46) = (   0.0833333   0.5292377   0.1004115), wk =   0.0277778
        k(   47) = (   0.0833333   0.5292377   0.2008230), wk =   0.0277778
        k(   48) = (   0.0833333   0.5292377  -0.3012346), wk =   0.0138889
        k(   49) = (   0.1666667   0.2886751   0.0000000), wk =   0.0069444
        k(   50) = (   0.1666667   0.2886751   0.1004115), wk =   0.0138889
        k(   51) = (   0.1666667   0.2886751   0.2008230), wk =   0.0138889
        k(   52) = (   0.1666667   0.2886751  -0.3012346), wk =   0.0069444
        k(   53) = (   0.1666667   0.3849002   0.0000000), wk =   0.0138889
        k(   54) = (   0.1666667   0.3849002   0.1004115), wk =   0.0277778
        k(   55) = (   0.1666667   0.3849002   0.2008230), wk =   0.0277778
        k(   56) = (   0.1666667   0.3849002  -0.3012346), wk =   0.0138889
        k(   57) = (   0.1666667   0.4811252   0.0000000), wk =   0.0138889
        k(   58) = (   0.1666667   0.4811252   0.1004115), wk =   0.0277778
        k(   59) = (   0.1666667   0.4811252   0.2008230), wk =   0.0277778
        k(   60) = (   0.1666667   0.4811252  -0.3012346), wk =   0.0138889
        k(   61) = (   0.1666667   0.5773503   0.0000000), wk =   0.0069444
        k(   62) = (   0.1666667   0.5773503   0.1004115), wk =   0.0138889
        k(   63) = (   0.1666667   0.5773503   0.2008230), wk =   0.0138889
        k(   64) = (   0.1666667   0.5773503  -0.3012346), wk =   0.0069444
        k(   65) = (   0.2500000   0.4330127   0.0000000), wk =   0.0069444
        k(   66) = (   0.2500000   0.4330127   0.1004115), wk =   0.0138889
        k(   67) = (   0.2500000   0.4330127   0.2008230), wk =   0.0138889
        k(   68) = (   0.2500000   0.4330127  -0.3012346), wk =   0.0069444
        k(   69) = (   0.2500000   0.5292377   0.0000000), wk =   0.0138889
        k(   70) = (   0.2500000   0.5292377   0.1004115), wk =   0.0277778
        k(   71) = (   0.2500000   0.5292377   0.2008230), wk =   0.0277778
        k(   72) = (   0.2500000   0.5292377  -0.3012346), wk =   0.0138889
        k(   73) = (   0.3333333   0.5773503   0.0000000), wk =   0.0023148
        k(   74) = (   0.3333333   0.5773503   0.1004115), wk =   0.0046296
        k(   75) = (   0.3333333   0.5773503   0.2008230), wk =   0.0046296
        k(   76) = (   0.3333333   0.5773503  -0.3012346), wk =   0.0023148

                       cryst. coord.
        k(    1) = (   0.0000000   0.0000000   0.0000000), wk =   0.0011574
        k(    2) = (   0.0000000   0.0000000   0.1666667), wk =   0.0023148
        k(    3) = (   0.0000000   0.0000000   0.3333333), wk =   0.0023148
        k(    4) = (   0.0000000   0.0000000  -0.5000000), wk =   0.0011574
        k(    5) = (   0.0000000   0.0833333   0.0000000), wk =   0.0069444
        k(    6) = (   0.0000000   0.0833333   0.1666667), wk =   0.0138889
        k(    7) = (   0.0000000   0.0833333   0.3333333), wk =   0.0138889
        k(    8) = (   0.0000000   0.0833333  -0.5000000), wk =   0.0069444
        k(    9) = (   0.0000000   0.1666667   0.0000000), wk =   0.0069444
        k(   10) = (   0.0000000   0.1666667   0.1666667), wk =   0.0138889
        k(   11) = (   0.0000000   0.1666667   0.3333333), wk =   0.0138889
        k(   12) = (   0.0000000   0.1666667  -0.5000000), wk =   0.0069444
        k(   13) = (   0.0000000   0.2500000   0.0000000), wk =   0.0069444
        k(   14) = (   0.0000000   0.2500000   0.1666667), wk =   0.0138889
        k(   15) = (   0.0000000   0.2500000   0.3333333), wk =   0.0138889
        k(   16) = (   0.0000000   0.2500000  -0.5000000), wk =   0.0069444
        k(   17) = (   0.0000000   0.3333333   0.0000000), wk =   0.0069444
        k(   18) = (   0.0000000   0.3333333   0.1666667), wk =   0.0138889
        k(   19) = (   0.0000000   0.3333333   0.3333333), wk =   0.0138889
        k(   20) = (   0.0000000   0.3333333  -0.5000000), wk =   0.0069444
        k(   21) = (   0.0000000   0.4166667   0.0000000), wk =   0.0069444
        k(   22) = (   0.0000000   0.4166667   0.1666667), wk =   0.0138889
        k(   23) = (   0.0000000   0.4166667   0.3333333), wk =   0.0138889
        k(   24) = (   0.0000000   0.4166667  -0.5000000), wk =   0.0069444
        k(   25) = (   0.0000000  -0.5000000   0.0000000), wk =   0.0034722
        k(   26) = (   0.0000000  -0.5000000   0.1666667), wk =   0.0069444
        k(   27) = (   0.0000000  -0.5000000   0.3333333), wk =   0.0069444
        k(   28) = (   0.0000000  -0.5000000  -0.5000000), wk =   0.0034722
        k(   29) = (   0.0833333   0.0833333   0.0000000), wk =   0.0069444
        k(   30) = (   0.0833333   0.0833333   0.1666667), wk =   0.0138889
        k(   31) = (   0.0833333   0.0833333   0.3333333), wk =   0.0138889
        k(   32) = (   0.0833333   0.0833333  -0.5000000), wk =   0.0069444
        k(   33) = (   0.0833333   0.1666667   0.0000000), wk =   0.0138889
        k(   34) = (   0.0833333   0.1666667   0.1666667), wk =   0.0277778
        k(   35) = (   0.0833333   0.1666667   0.3333333), wk =   0.0277778
        k(   36) = (   0.0833333   0.1666667  -0.5000000), wk =   0.0138889
        k(   37) = (   0.0833333   0.2500000   0.0000000), wk =   0.0138889
        k(   38) = (   0.0833333   0.2500000   0.1666667), wk =   0.0277778
        k(   39) = (   0.0833333   0.2500000   0.3333333), wk =   0.0277778
        k(   40) = (   0.0833333   0.2500000  -0.5000000), wk =   0.0138889
        k(   41) = (   0.0833333   0.3333333   0.0000000), wk =   0.0138889
        k(   42) = (   0.0833333   0.3333333   0.1666667), wk =   0.0277778
        k(   43) = (   0.0833333   0.3333333   0.3333333), wk =   0.0277778
        k(   44) = (   0.0833333   0.3333333  -0.5000000), wk =   0.0138889
        k(   45) = (   0.0833333   0.4166667   0.0000000), wk =   0.0138889
        k(   46) = (   0.0833333   0.4166667   0.1666667), wk =   0.0277778
        k(   47) = (   0.0833333   0.4166667   0.3333333), wk =   0.0277778
        k(   48) = (   0.0833333   0.4166667  -0.5000000), wk =   0.0138889
        k(   49) = (   0.1666667   0.1666667   0.0000000), wk =   0.0069444
        k(   50) = (   0.1666667   0.1666667   0.1666667), wk =   0.0138889
        k(   51) = (   0.1666667   0.1666667   0.3333333), wk =   0.0138889
        k(   52) = (   0.1666667   0.1666667  -0.5000000), wk =   0.0069444
        k(   53) = (   0.1666667   0.2500000   0.0000000), wk =   0.0138889
        k(   54) = (   0.1666667   0.2500000   0.1666667), wk =   0.0277778
        k(   55) = (   0.1666667   0.2500000   0.3333333), wk =   0.0277778
        k(   56) = (   0.1666667   0.2500000  -0.5000000), wk =   0.0138889
        k(   57) = (   0.1666667   0.3333333   0.0000000), wk =   0.0138889
        k(   58) = (   0.1666667   0.3333333   0.1666667), wk =   0.0277778
        k(   59) = (   0.1666667   0.3333333   0.3333333), wk =   0.0277778
        k(   60) = (   0.1666667   0.3333333  -0.5000000), wk =   0.0138889
        k(   61) = (   0.1666667   0.4166667   0.0000000), wk =   0.0069444
        k(   62) = (   0.1666667   0.4166667   0.1666667), wk =   0.0138889
        k(   63) = (   0.1666667   0.4166667   0.3333333), wk =   0.0138889
        k(   64) = (   0.1666667   0.4166667  -0.5000000), wk =   0.0069444
        k(   65) = (   0.2500000   0.2500000   0.0000000), wk =   0.0069444
        k(   66) = (   0.2500000   0.2500000   0.1666667), wk =   0.0138889
        k(   67) = (   0.2500000   0.2500000   0.3333333), wk =   0.0138889
        k(   68) = (   0.2500000   0.2500000  -0.5000000), wk =   0.0069444
        k(   69) = (   0.2500000   0.3333333   0.0000000), wk =   0.0138889
        k(   70) = (   0.2500000   0.3333333   0.1666667), wk =   0.0277778
        k(   71) = (   0.2500000   0.3333333   0.3333333), wk =   0.0277778
        k(   72) = (   0.2500000   0.3333333  -0.5000000), wk =   0.0138889
        k(   73) = (   0.3333333   0.3333333   0.0000000), wk =   0.0023148
        k(   74) = (   0.3333333   0.3333333   0.1666667), wk =   0.0046296
        k(   75) = (   0.3333333   0.3333333   0.3333333), wk =   0.0046296
        k(   76) = (   0.3333333   0.3333333  -0.5000000), wk =   0.0023148

     Dense  grid:    22719 G-vectors     FFT dimensions: (  32,  32,  54)

     Smooth grid:    21939 G-vectors     FFT dimensions: (  32,  32,  54)

     Dynamical RAM for                 wfc:       0.04 MB

     Dynamical RAM for     wfc (w. buffer):       6.72 MB

     Dynamical RAM for           str. fact:       0.02 MB

     Dynamical RAM for           local pot:       0.00 MB

     Dynamical RAM for          nlocal pot:       0.08 MB

     Dynamical RAM for                qrad:       1.70 MB

     Dynamical RAM for          rho,v,vnew:       0.24 MB

     Dynamical RAM for               rhoin:       0.08 MB

     Dynamical RAM for            rho*nmix:       0.55 MB

     Dynamical RAM for           G-vectors:       0.07 MB

     Dynamical RAM for          h,s,v(r/c):       0.08 MB

     Dynamical RAM for          <psi|beta>:       0.01 MB

     Dynamical RAM for                 psi:       0.09 MB

     Dynamical RAM for                hpsi:       0.09 MB

     Dynamical RAM for                spsi:       0.09 MB

     Dynamical RAM for      wfcinit/wfcrot:       0.10 MB

     Dynamical RAM for           addusdens:       3.27 MB

     Estimated static dynamical RAM per process >       9.09 MB

     Estimated max dynamical RAM per process >      12.91 MB

     Estimated total dynamical RAM >     258.20 MB

     Check: negative core charge=   -0.000044
     Generating pointlists ...
     new r_m :   0.4125 (alat units)  1.9020 (a.u.) for type    1

     The initial density is read from file :
     ./out2/Co.save/charge-density


     starting charge      34.0420, renormalised to      34.0000

     negative rho (up, down):  6.556E-01 6.226E-01
     Starting wfcs from file
     Checking if some PAW data can be deallocated... 

     total cpu time spent up to now is        0.6 secs

     Self-consistent Calculation

     iteration #  1     ecut=   110.00 Ry     beta= 0.70
     Davidson diagonalization with overlap

---- Real-time Memory Report at c_bands before calling an iterative solver
            54 MiB given to the printing process from OS
             0 MiB allocation reported by mallinfo(arena+hblkhd)
        336363 MiB available memory on the node where the printing process lives
------------------
     c_bands:  1 eigenvalues not converged
     c_bands:  5 eigenvalues not converged
     c_bands:  2 eigenvalues not converged
     c_bands:  3 eigenvalues not converged
     c_bands:  1 eigenvalues not converged
     c_bands:  5 eigenvalues not converged
     c_bands:  1 eigenvalues not converged
     c_bands:  2 eigenvalues not converged
     c_bands:  4 eigenvalues not converged
     c_bands:  2 eigenvalues not converged
     c_bands:  4 eigenvalues not converged
     c_bands:  4 eigenvalues not converged
     c_bands:  5 eigenvalues not converged
     c_bands:  4 eigenvalues not converged
     c_bands:  1 eigenvalues not converged
     c_bands:  4 eigenvalues not converged
     c_bands:  5 eigenvalues not converged
     c_bands:  4 eigenvalues not converged
     c_bands:  5 eigenvalues not converged
     c_bands:  3 eigenvalues not converged
     c_bands:  5 eigenvalues not converged
     c_bands:  5 eigenvalues not converged
     c_bands:  1 eigenvalues not converged
     c_bands:  3 eigenvalues not converged
     c_bands:  5 eigenvalues not converged
     c_bands:  5 eigenvalues not converged
     c_bands:  4 eigenvalues not converged
     c_bands:  2 eigenvalues not converged
     c_bands:  5 eigenvalues not converged
     c_bands:  4 eigenvalues not converged
     c_bands:  4 eigenvalues not converged
     c_bands:  5 eigenvalues not converged
     c_bands:  5 eigenvalues not converged
     c_bands:  1 eigenvalues not converged
     c_bands:  3 eigenvalues not converged
     c_bands:  5 eigenvalues not converged
     c_bands:  3 eigenvalues not converged
     c_bands:  2 eigenvalues not converged
     c_bands:  5 eigenvalues not converged
     c_bands:  3 eigenvalues not converged
     c_bands:  5 eigenvalues not converged
     ethr =  1.00E-05,  avg # of iterations = 21.7

     negative rho (up, down):  2.293E-02 1.745E-02

     total cpu time spent up to now is       11.5 secs

     total energy              =    -753.08666802 Ry
     estimated scf accuracy    <       0.47145413 Ry

     total magnetization       =     3.30 Bohr mag/cell
     absolute magnetization    =     3.54 Bohr mag/cell

     iteration #  2     ecut=   110.00 Ry     beta= 0.70
     Davidson diagonalization with overlap

---- Real-time Memory Report at c_bands before calling an iterative solver
            73 MiB given to the printing process from OS
             0 MiB allocation reported by mallinfo(arena+hblkhd)
        336168 MiB available memory on the node where the printing process lives
------------------
     ethr =  1.39E-03,  avg # of iterations =  4.2

     negative rho (up, down):  8.818E-03 6.484E-03

     total cpu time spent up to now is       13.4 secs

     total energy              =    -753.10491827 Ry
     estimated scf accuracy    <       0.74920307 Ry

     total magnetization       =     2.94 Bohr mag/cell
     absolute magnetization    =     3.19 Bohr mag/cell

     iteration #  3     ecut=   110.00 Ry     beta= 0.70
     Davidson diagonalization with overlap

---- Real-time Memory Report at c_bands before calling an iterative solver
            74 MiB given to the printing process from OS
             0 MiB allocation reported by mallinfo(arena+hblkhd)
        336157 MiB available memory on the node where the printing process lives
------------------
     ethr =  1.39E-03,  avg # of iterations =  2.9

     total cpu time spent up to now is       15.0 secs

     total energy              =    -753.42462881 Ry
     estimated scf accuracy    <       0.02287860 Ry

     total magnetization       =     3.16 Bohr mag/cell
     absolute magnetization    =     3.41 Bohr mag/cell

     iteration #  4     ecut=   110.00 Ry     beta= 0.70
     Davidson diagonalization with overlap

---- Real-time Memory Report at c_bands before calling an iterative solver
            75 MiB given to the printing process from OS
             0 MiB allocation reported by mallinfo(arena+hblkhd)
        336146 MiB available memory on the node where the printing process lives
------------------
     ethr =  6.73E-05,  avg # of iterations =  6.2

     total cpu time spent up to now is       17.8 secs

     total energy              =    -753.42338868 Ry
     estimated scf accuracy    <       0.16358956 Ry

     total magnetization       =     3.21 Bohr mag/cell
     absolute magnetization    =     3.49 Bohr mag/cell

     iteration #  5     ecut=   110.00 Ry     beta= 0.70
     Davidson diagonalization with overlap

---- Real-time Memory Report at c_bands before calling an iterative solver
            76 MiB given to the printing process from OS
             0 MiB allocation reported by mallinfo(arena+hblkhd)
        336136 MiB available memory on the node where the printing process lives
------------------
     ethr =  6.73E-05,  avg # of iterations =  4.8

     total cpu time spent up to now is       20.1 secs

     total energy              =    -753.45266698 Ry
     estimated scf accuracy    <       0.00034347 Ry

     total magnetization       =     3.14 Bohr mag/cell
     absolute magnetization    =     3.43 Bohr mag/cell

     iteration #  6     ecut=   110.00 Ry     beta= 0.70
     Davidson diagonalization with overlap

---- Real-time Memory Report at c_bands before calling an iterative solver
            76 MiB given to the printing process from OS
             0 MiB allocation reported by mallinfo(arena+hblkhd)
        336131 MiB available memory on the node where the printing process lives
------------------
     c_bands:  1 eigenvalues not converged
     ethr =  1.01E-06,  avg # of iterations =  6.7

     total cpu time spent up to now is       22.9 secs

     total energy              =    -753.45290837 Ry
     estimated scf accuracy    <       0.00027660 Ry

     total magnetization       =     3.15 Bohr mag/cell
     absolute magnetization    =     3.44 Bohr mag/cell

     iteration #  7     ecut=   110.00 Ry     beta= 0.70
     Davidson diagonalization with overlap

---- Real-time Memory Report at c_bands before calling an iterative solver
            77 MiB given to the printing process from OS
             0 MiB allocation reported by mallinfo(arena+hblkhd)
        336123 MiB available memory on the node where the printing process lives
------------------
     c_bands:  1 eigenvalues not converged
     ethr =  8.14E-07,  avg # of iterations =  4.0

     total cpu time spent up to now is       24.9 secs

     total energy              =    -753.45303644 Ry
     estimated scf accuracy    <       0.00013977 Ry

     total magnetization       =     3.16 Bohr mag/cell
     absolute magnetization    =     3.46 Bohr mag/cell

     iteration #  8     ecut=   110.00 Ry     beta= 0.70
     Davidson diagonalization with overlap

---- Real-time Memory Report at c_bands before calling an iterative solver
            79 MiB given to the printing process from OS
             0 MiB allocation reported by mallinfo(arena+hblkhd)
        336113 MiB available memory on the node where the printing process lives
------------------
     ethr =  4.11E-07,  avg # of iterations =  1.2

     total cpu time spent up to now is       26.2 secs

     total energy              =    -753.45301476 Ry
     estimated scf accuracy    <       0.00006057 Ry

     total magnetization       =     3.16 Bohr mag/cell
     absolute magnetization    =     3.47 Bohr mag/cell

     iteration #  9     ecut=   110.00 Ry     beta= 0.70
     Davidson diagonalization with overlap

---- Real-time Memory Report at c_bands before calling an iterative solver
            79 MiB given to the printing process from OS
             0 MiB allocation reported by mallinfo(arena+hblkhd)
        336108 MiB available memory on the node where the printing process lives
------------------
     ethr =  1.78E-07,  avg # of iterations =  4.1

     total cpu time spent up to now is       28.2 secs

     total energy              =    -753.45303930 Ry
     estimated scf accuracy    <       0.00001008 Ry

     total magnetization       =     3.17 Bohr mag/cell
     absolute magnetization    =     3.47 Bohr mag/cell

     iteration # 10     ecut=   110.00 Ry     beta= 0.70
     Davidson diagonalization with overlap

---- Real-time Memory Report at c_bands before calling an iterative solver
            79 MiB given to the printing process from OS
             0 MiB allocation reported by mallinfo(arena+hblkhd)
        336104 MiB available memory on the node where the printing process lives
------------------
     ethr =  2.97E-08,  avg # of iterations =  4.9

     total cpu time spent up to now is       30.2 secs

     total energy              =    -753.45304294 Ry
     estimated scf accuracy    <       0.00000604 Ry

     total magnetization       =     3.17 Bohr mag/cell
     absolute magnetization    =     3.48 Bohr mag/cell

     iteration # 11     ecut=   110.00 Ry     beta= 0.70
     Davidson diagonalization with overlap

---- Real-time Memory Report at c_bands before calling an iterative solver
            80 MiB given to the printing process from OS
             0 MiB allocation reported by mallinfo(arena+hblkhd)
        336103 MiB available memory on the node where the printing process lives
------------------
     ethr =  1.78E-08,  avg # of iterations =  2.6

     total cpu time spent up to now is       31.7 secs

     total energy              =    -753.45304320 Ry
     estimated scf accuracy    <       0.00000804 Ry

     total magnetization       =     3.17 Bohr mag/cell
     absolute magnetization    =     3.48 Bohr mag/cell

     iteration # 12     ecut=   110.00 Ry     beta= 0.70
     Davidson diagonalization with overlap

---- Real-time Memory Report at c_bands before calling an iterative solver
            80 MiB given to the printing process from OS
             0 MiB allocation reported by mallinfo(arena+hblkhd)
        336096 MiB available memory on the node where the printing process lives
------------------
     ethr =  1.78E-08,  avg # of iterations =  1.3

     total cpu time spent up to now is       33.0 secs

     total energy              =    -753.45304136 Ry
     estimated scf accuracy    <       0.00000699 Ry

     total magnetization       =     3.17 Bohr mag/cell
     absolute magnetization    =     3.48 Bohr mag/cell

     iteration # 13     ecut=   110.00 Ry     beta= 0.70
     Davidson diagonalization with overlap

---- Real-time Memory Report at c_bands before calling an iterative solver
            80 MiB given to the printing process from OS
             0 MiB allocation reported by mallinfo(arena+hblkhd)
        336092 MiB available memory on the node where the printing process lives
------------------
     ethr =  1.78E-08,  avg # of iterations =  2.0
 
     Magnetic moment per site  (integrated on atomic sphere of radius R)
     atom   1 (R=0.413)  charge= 15.5464  magn=  1.6578
     atom   2 (R=0.413)  charge= 15.5464  magn=  1.6578

     total cpu time spent up to now is       34.4 secs

     End of self-consistent calculation

 ------ SPIN UP ------------


          k = 0.0000 0.0000 0.0000 (  2779 PWs)   bands (ev):

   -76.5538 -76.4939 -39.9661 -39.6310 -39.6310 -39.6152 -39.5844 -39.5844
    10.3396  14.1750  16.7492  16.9247  16.9247  17.2295  17.2295  17.7028
    17.7028  18.7757  18.7757  19.0133  25.8422

     occupation numbers 
     1.0000   1.0000   1.0000   1.0000   1.0000   1.0000   1.0000   1.0000
     1.0000   1.0000   1.0000   1.0000   1.0000   1.0000   1.0000   1.0000
     1.0000   1.0000   1.0000   1.0000   0.0000

          k = 0.0000 0.0000 0.1004 (  2767 PWs)   bands (ev):

   -76.5498 -76.4979 -39.9429 -39.6390 -39.6279 -39.6279 -39.5875 -39.5875
    10.6146  14.0920  16.6809  16.8745  16.8745  17.1632  17.1632  17.8487
    17.8487  18.1211  18.7542  18.7542  27.3034

     occupation numbers 
     1.0000   1.0000   1.0000   1.0000   1.0000   1.0000   1.0000   1.0000
     1.0000   1.0000   1.0000   1.0000   1.0000   1.0000   1.0000   1.0000
     1.0000   1.0000   1.0000   1.0000   0.0000

          k = 0.0000 0.0000 0.2008 (  2756 PWs)   bands (ev):

   -76.5388 -76.5089 -39.8793 -39.7039 -39.6193 -39.6193 -39.5960 -39.5960
    11.4024  13.6212  16.5240  16.8307  16.8307  16.8793  17.0150  17.0150
    18.1519  18.1519  18.6583  18.6583  30.4443

     occupation numbers 
     1.0000   1.0000   1.0000   1.0000   1.0000   1.0000   1.0000   1.0000
     1.0000   1.0000   1.0000   1.0000   1.0000   1.0000   1.0000   1.0000
     1.0000   1.0000   1.0000   1.0000   0.0000

          k = 0.0000 0.0000-0.3012 (  2750 PWs)   bands (ev):

   -76.5239 -76.5239 -39.7919 -39.7919 -39.6077 -39.6077 -39.6077 -39.6077
    12.5499  12.5499  16.4514  16.4514  16.8810  16.8810  16.8810  16.8810
    18.4507  18.4507  18.4507  18.4507  34.2184

     occupation numbers 
     1.0000   1.0000   1.0000   1.0000   1.0000   1.0000   1.0000   1.0000
     1.0000   1.0000   1.0000   1.0000   1.0000   1.0000   1.0000   1.0000
     1.0000   1.0000   1.0000   1.0000   0.0000

          k = 0.0000 0.0962 0.0000 (  2747 PWs)   bands (ev):

   -76.5498 -76.4917 -39.9580 -39.6506 -39.6371 -39.6179 -39.6045 -39.5878
    10.5931  14.3358  16.6232  17.0158  17.0487  17.1698  17.3410  17.4805
    17.6275  17.8327  18.8047  20.3366  25.8794

     occupation numbers 
     1.0000   1.0000   1.0000   1.0000   1.0000   1.0000   1.0000   1.0000
     1.0000   1.0000   1.0000   1.0000   1.0000   1.0000   1.0000   1.0000
     1.0000   1.0000   1.0000   0.0000   0.0000

          k = 0.0000 0.0962 0.1004 (  2750 PWs)   bands (ev):

   -76.5459 -76.4956 -39.9361 -39.6476 -39.6446 -39.6338 -39.6034 -39.5911
    10.8637  14.2670  16.6195  16.8654  16.9759  16.9850  17.2694  17.4713
    17.7966  17.8364  18.7759  19.6529  27.4125

     occupation numbers 
     1.0000   1.0000   1.0000   1.0000   1.0000   1.0000   1.0000   1.0000
     1.0000   1.0000   1.0000   1.0000   1.0000   1.0000   1.0000   1.0000
     1.0000   1.0000   1.0000   0.0000   0.0000

          k = 0.0000 0.0962 0.2008 (  2765 PWs)   bands (ev):

   -76.5353 -76.5063 -39.8759 -39.7089 -39.6371 -39.6248 -39.6110 -39.6002
    11.6386  13.8221  16.4891  16.5188  16.7379  16.9331  17.1121  17.1191
    18.1211  18.1606  18.6630  18.9522  30.6037

     occupation numbers 
     1.0000   1.0000   1.0000   1.0000   1.0000   1.0000   1.0000   1.0000
     1.0000   1.0000   1.0000   1.0000   1.0000   1.0000   1.0000   1.0000
     1.0000   1.0000   1.0000   1.0000   0.0000

          k = 0.0000 0.0962-0.3012 (  2778 PWs)   bands (ev):

   -76.5208 -76.5208 -39.7929 -39.7929 -39.6238 -39.6238 -39.6125 -39.6125
    12.7677  12.7677  16.3324  16.3324  16.8608  16.8608  16.9837  16.9837
    18.4368  18.4368  18.5396  18.5396  34.3970

     occupation numbers 
     1.0000   1.0000   1.0000   1.0000   1.0000   1.0000   1.0000   1.0000
     1.0000   1.0000   1.0000   1.0000   1.0000   1.0000   1.0000   1.0000
     1.0000   1.0000   1.0000   1.0000   0.0000

          k = 0.0000 0.1925 0.0000 (  2743 PWs)   bands (ev):

   -76.5388 -76.4860 -39.9351 -39.7045 -39.6592 -39.6534 -39.6263 -39.5976
    11.3249  14.7342  16.3666  16.5971  16.9507  17.3306  17.3990  17.4422
    17.5531  17.6540  18.8644  21.9875  26.0133

     occupation numbers 
     1.0000   1.0000   1.0000   1.0000   1.0000   1.0000   1.0000   1.0000
     1.0000   1.0000   1.0000   1.0000   1.0000   1.0000   1.0000   1.0000
     1.0000   1.0000   1.0000   0.0000   0.0000

          k = 0.0000 0.1925 0.1004 (  2751 PWs)   bands (ev):

   -76.5353 -76.4896 -39.9173 -39.6995 -39.6790 -39.6497 -39.6297 -39.6014
    11.5787  14.7095  16.3188  16.4114  16.8284  17.2185  17.2404  17.5475
    17.7486  17.8034  18.8196  20.9056  27.7704

     occupation numbers 
     1.0000   1.0000   1.0000   1.0000   1.0000   1.0000   1.0000   1.0000
     1.0000   1.0000   1.0000   1.0000   1.0000   1.0000   1.0000   1.0000
     1.0000   1.0000   1.0000   0.0000   0.0000

          k = 0.0000 0.1925 0.2008 (  2747 PWs)   bands (ev):

   -76.5256 -76.4993 -39.8684 -39.7327 -39.6827 -39.6426 -39.6395 -39.6116
    12.3026  14.3404  15.9889  16.4708  16.5413  17.0452  17.1879  17.4067
    18.0824  18.2266  18.6719  19.5959  31.0818

     occupation numbers 
     1.0000   1.0000   1.0000   1.0000   1.0000   1.0000   1.0000   1.0000
     1.0000   1.0000   1.0000   1.0000   1.0000   1.0000   1.0000   1.0000
     1.0000   1.0000   1.0000   0.0000   0.0000

          k = 0.0000 0.1925-0.3012 (  2760 PWs)   bands (ev):

   -76.5125 -76.5125 -39.8010 -39.8010 -39.6625 -39.6625 -39.6256 -39.6256
    13.3523  13.3523  16.1182  16.1182  16.7720  16.7720  17.2579  17.2579
    18.4146  18.4146  18.7807  18.7807  34.8969

     occupation numbers 
     1.0000   1.0000   1.0000   1.0000   1.0000   1.0000   1.0000   1.0000
     1.0000   1.0000   1.0000   1.0000   1.0000   1.0000   1.0000   1.0000
     1.0000   1.0000   1.0000   1.0000   0.0000

          k = 0.0000 0.2887 0.0000 (  2755 PWs)   bands (ev):

   -76.5233 -76.4787 -39.9010 -39.7786 -39.7327 -39.6752 -39.6407 -39.6115
    12.4259  15.0483  15.8381  16.2151  16.8225  17.2196  17.3199  17.8006
    17.9082  18.1040  18.9174  23.8306  26.2825

     occupation numbers 
     1.0000   1.0000   1.0000   1.0000   1.0000   1.0000   1.0000   1.0000
     1.0000   1.0000   1.0000   1.0000   1.0000   1.0000   1.0000   1.0000
     1.0000   1.0000   1.0000   0.0000   0.0000

          k = 0.0000 0.2887 0.1004 (  2740 PWs)   bands (ev):

   -76.5203 -76.4817 -39.8930 -39.7685 -39.7457 -39.6709 -39.6459 -39.6158
    12.6344  15.0763  15.6978  16.2719  16.6761  17.2597  17.3004  17.9472
    17.9484  18.0659  18.8598  22.2089  28.4251

     occupation numbers 
     1.0000   1.0000   1.0000   1.0000   1.0000   1.0000   1.0000   1.0000
     1.0000   1.0000   1.0000   1.0000   1.0000   1.0000   1.0000   1.0000
     1.0000   1.0000   1.0000   0.0000   0.0000

          k = 0.0000 0.2887 0.2008 (  2733 PWs)   bands (ev):

   -76.5122 -76.4899 -39.8689 -39.7879 -39.7324 -39.6642 -39.6593 -39.6275
    13.2155  14.7919  15.6526  16.2692  16.5780  17.1320  17.3836  17.8088
    18.2112  18.3735  18.6961  20.3711  31.7892

     occupation numbers 
     1.0000   1.0000   1.0000   1.0000   1.0000   1.0000   1.0000   1.0000
     1.0000   1.0000   1.0000   1.0000   1.0000   1.0000   1.0000   1.0000
     1.0000   1.0000   1.0000   0.0000   0.0000

          k = 0.0000 0.2887-0.3012 (  2748 PWs)   bands (ev):

   -76.5010 -76.5010 -39.8311 -39.8311 -39.6957 -39.6957 -39.6434 -39.6434
    14.0238  14.0238  15.9538  15.9538  16.8387  16.8387  17.5818  17.5818
    18.4598  18.4598  19.1230  19.1230  34.4642

     occupation numbers 
     1.0000   1.0000   1.0000   1.0000   1.0000   1.0000   1.0000   1.0000
     1.0000   1.0000   1.0000   1.0000   1.0000   1.0000   1.0000   1.0000
     1.0000   1.0000   1.0000   1.0000   0.0000

          k = 0.0000 0.3849 0.0000 (  2733 PWs)   bands (ev):

   -76.5068 -76.4724 -39.8612 -39.8531 -39.8047 -39.6965 -39.6606 -39.6258
    13.6109  14.9636  15.2989  16.3404  16.9583  17.0188  17.0989  18.4541
    18.5619  18.5905  18.9507  25.8334  26.4233

     occupation numbers 
     1.0000   1.0000   1.0000   1.0000   1.0000   1.0000   1.0000   1.0000
     1.0000   1.0000   1.0000   1.0000   1.0000   1.0000   1.0000   1.0000
     1.0000   1.0000   1.0000   0.0000   0.0000

          k = 0.0000 0.3849 0.1004 (  2737 PWs)   bands (ev):

   -76.5045 -76.4747 -39.8885 -39.8261 -39.8023 -39.6917 -39.6629 -39.6306
    13.6994  14.9740  15.3502  16.1602  16.9123  17.1128  17.4655  18.4603
    18.4979  18.5033  18.9056  23.4714  28.8114

     occupation numbers 
     1.0000   1.0000   1.0000   1.0000   1.0000   1.0000   1.0000   1.0000
     1.0000   1.0000   1.0000   1.0000   1.0000   1.0000   1.0000   1.0000
     1.0000   1.0000   1.0000   0.0000   0.0000

          k = 0.0000 0.3849 0.2008 (  2735 PWs)   bands (ev):

   -76.4982 -76.4810 -39.8972 -39.8537 -39.7530 -39.6789 -39.6759 -39.6435
    13.9563  14.7719  15.5119  16.0225  17.0591  17.3777  17.8091  18.1666
    18.5703  18.6132  18.8044  21.2651  30.1573

     occupation numbers 
     1.0000   1.0000   1.0000   1.0000   1.0000   1.0000   1.0000   1.0000
     1.0000   1.0000   1.0000   1.0000   1.0000   1.0000   1.0000   1.0000
     1.0000   1.0000   1.0000   0.0000   0.0000

          k = 0.0000 0.3849-0.3012 (  2746 PWs)   bands (ev):

   -76.4896 -76.4896 -39.8832 -39.8832 -39.7067 -39.7067 -39.6612 -39.6612
    14.3474  14.3474  15.7964  15.7964  17.4929  17.4929  17.7600  17.7600
    18.6840  18.6840  19.6067  19.6067  31.2577

     occupation numbers 
     1.0000   1.0000   1.0000   1.0000   1.0000   1.0000   1.0000   1.0000
     1.0000   1.0000   1.0000   1.0000   1.0000   1.0000   1.0000   1.0000
     1.0000   1.0000   0.0000   0.0000   0.0000

          k = 0.0000 0.4811 0.0000 (  2738 PWs)   bands (ev):

   -76.4934 -76.4690 -39.9080 -39.8568 -39.8248 -39.7118 -39.6826 -39.6365
    14.3632  14.7590  14.9792  16.7207  16.8816  16.9410  17.1920  18.8662
    18.9666  18.9910  19.7647  24.8178  27.8988

     occupation numbers 
     1.0000   1.0000   1.0000   1.0000   1.0000   1.0000   1.0000   1.0000
     1.0000   1.0000   1.0000   1.0000   1.0000   1.0000   1.0000   1.0000
     1.0000   1.0000   0.0000   0.0000   0.0000

          k = 0.0000 0.4811 0.1004 (  2746 PWs)   bands (ev):

   -76.4918 -76.4706 -39.9228 -39.8725 -39.7959 -39.7068 -39.6808 -39.6415
    14.2407  14.7348  15.3113  16.0395  16.9954  17.2108  17.8520  18.7393
    18.8887  19.0364  19.5929  23.9133  27.4739

     occupation numbers 
     1.0000   1.0000   1.0000   1.0000   1.0000   1.0000   1.0000   1.0000
     1.0000   1.0000   1.0000   1.0000   1.0000   1.0000   1.0000   1.0000
     1.0000   1.0000   0.0000   0.0000   0.0000

          k = 0.0000 0.4811 0.2008 (  2743 PWs)   bands (ev):

   -76.4873 -76.4751 -39.9359 -39.9032 -39.7475 -39.6930 -39.6851 -39.6554
    14.1929  14.6566  15.4933  15.7980  17.3181  17.5114  18.3110  18.8913
    18.9236  19.0179  19.2146  22.1305  27.7092

     occupation numbers 
     1.0000   1.0000   1.0000   1.0000   1.0000   1.0000   1.0000   1.0000
     1.0000   1.0000   1.0000   1.0000   1.0000   1.0000   1.0000   1.0000
     1.0000   1.0000   1.0000   0.0000   0.0000

          k = 0.0000 0.4811-0.3012 (  2744 PWs)   bands (ev):

   -76.4812 -76.4812 -39.9287 -39.9287 -39.7071 -39.7071 -39.6742 -39.6742
    14.3703  14.3703  15.6567  15.6567  17.7909  17.7909  18.2612  18.2612
    18.9727  18.9727  20.4544  20.4544  28.4775

     occupation numbers 
     1.0000   1.0000   1.0000   1.0000   1.0000   1.0000   1.0000   1.0000
     1.0000   1.0000   1.0000   1.0000   1.0000   1.0000   1.0000   1.0000
     1.0000   1.0000   0.0000   0.0000   0.0000

          k = 0.0000-0.5774 0.0000 (  2722 PWs)   bands (ev):

   -76.4879 -76.4683 -39.9281 -39.8757 -39.8078 -39.7174 -39.6943 -39.6404
    14.5889  14.6344  14.8735  16.8331  16.8838  16.9957  17.2653  18.9710
    19.0158  19.1529  20.9724  23.0993  29.2398

     occupation numbers 
     1.0000   1.0000   1.0000   1.0000   1.0000   1.0000   1.0000   1.0000
     1.0000   1.0000   1.0000   1.0000   1.0000   1.0000   1.0000   1.0000
     1.0000   1.0000   0.0000   0.0000   0.0000

          k = 0.0000-0.5774 0.1004 (  2742 PWs)   bands (ev):

   -76.4866 -76.4696 -39.9400 -39.8907 -39.7847 -39.7123 -39.6903 -39.6456
    14.3313  14.6341  15.3390  16.0105  16.9525  17.2984  18.0737  18.7804
    19.0430  19.1456  20.7319  22.8887  28.4844

     occupation numbers 
     1.0000   1.0000   1.0000   1.0000   1.0000   1.0000   1.0000   1.0000
     1.0000   1.0000   1.0000   1.0000   1.0000   1.0000   1.0000   1.0000
     1.0000   1.0000   0.0000   0.0000   0.0000

          k = 0.0000-0.5774 0.2008 (  2756 PWs)   bands (ev):

   -76.4830 -76.4732 -39.9523 -39.9214 -39.7418 -39.6982 -39.6897 -39.6597
    14.2068  14.6100  15.5276  15.6898  17.2916  17.6573  18.3365  19.0205
    19.0682  19.1253  20.3254  22.2065  27.6086

     occupation numbers 
     1.0000   1.0000   1.0000   1.0000   1.0000   1.0000   1.0000   1.0000
     1.0000   1.0000   1.0000   1.0000   1.0000   1.0000   1.0000   1.0000
     1.0000   1.0000   0.0000   0.0000   0.0000

          k = 0.0000-0.5774-0.3012 (  2748 PWs)   bands (ev):

   -76.4781 -76.4781 -39.9461 -39.9461 -39.7065 -39.7065 -39.6790 -39.6790
    14.3511  14.3511  15.6036  15.6036  17.7892  17.7892  18.5124  18.5124
    19.0973  19.0973  21.1239  21.1239  27.1924

     occupation numbers 
     1.0000   1.0000   1.0000   1.0000   1.0000   1.0000   1.0000   1.0000
     1.0000   1.0000   1.0000   1.0000   1.0000   1.0000   1.0000   1.0000
     1.0000   1.0000   0.0000   0.0000   0.0000

          k = 0.0833 0.1443 0.0000 (  2743 PWs)   bands (ev):

   -76.5423 -76.4878 -39.9426 -39.6842 -39.6588 -39.6322 -39.6235 -39.5969
    11.0868  14.6222  16.4219  16.8572  17.0484  17.1575  17.3019  17.3906
    17.5835  17.7070  18.8363  21.5280  25.9670

     occupation numbers 
     1.0000   1.0000   1.0000   1.0000   1.0000   1.0000   1.0000   1.0000
     1.0000   1.0000   1.0000   1.0000   1.0000   1.0000   1.0000   1.0000
     1.0000   1.0000   1.0000   0.0000   0.0000

          k = 0.0833 0.1443 0.1004 (  2746 PWs)   bands (ev):

   -76.5387 -76.4915 -39.9232 -39.6795 -39.6691 -39.6458 -39.6206 -39.6005
    11.3470  14.5831  16.4542  16.5164  16.8815  17.1475  17.2195  17.4565
    17.7489  17.8307  18.7993  20.5655  27.6481

     occupation numbers 
     1.0000   1.0000   1.0000   1.0000   1.0000   1.0000   1.0000   1.0000
     1.0000   1.0000   1.0000   1.0000   1.0000   1.0000   1.0000   1.0000
     1.0000   1.0000   1.0000   0.0000   0.0000

          k = 0.0833 0.1443 0.2008 (  2749 PWs)   bands (ev):

   -76.5287 -76.5015 -39.8703 -39.7232 -39.6668 -39.6430 -39.6264 -39.6100
    12.0908  14.1890  16.1144  16.5021  16.5702  17.0380  17.1317  17.3203
    18.1147  18.1791  18.6700  19.4097  30.9251

     occupation numbers 
     1.0000   1.0000   1.0000   1.0000   1.0000   1.0000   1.0000   1.0000
     1.0000   1.0000   1.0000   1.0000   1.0000   1.0000   1.0000   1.0000
     1.0000   1.0000   1.0000   1.0000   0.0000

          k = 0.0833 0.1443-0.3012 (  2762 PWs)   bands (ev):

   -76.5151 -76.5151 -39.7973 -39.7973 -39.6507 -39.6507 -39.6221 -39.6221
    13.1728  13.1728  16.1754  16.1754  16.7772  16.7772  17.1849  17.1849
    18.4208  18.4208  18.7059  18.7059  34.7433

     occupation numbers 
     1.0000   1.0000   1.0000   1.0000   1.0000   1.0000   1.0000   1.0000
     1.0000   1.0000   1.0000   1.0000   1.0000   1.0000   1.0000   1.0000
     1.0000   1.0000   1.0000   1.0000   0.0000

          k = 0.0833 0.2406 0.0000 (  2743 PWs)   bands (ev):

   -76.5290 -76.4813 -39.9140 -39.7437 -39.7135 -39.6613 -39.6350 -39.6125
    12.0129  15.0319  16.1133  16.1474  16.8894  17.1356  17.4395  17.5520
    17.7641  18.0405  18.8721  23.1682  26.1903

     occupation numbers 
     1.0000   1.0000   1.0000   1.0000   1.0000   1.0000   1.0000   1.0000
     1.0000   1.0000   1.0000   1.0000   1.0000   1.0000   1.0000   1.0000
     1.0000   1.0000   1.0000   0.0000   0.0000

          k = 0.0833 0.2406 0.1004 (  2749 PWs)   bands (ev):

   -76.5259 -76.4845 -39.9011 -39.7370 -39.7235 -39.6654 -39.6370 -39.6162
    12.2443  15.0520  15.9014  16.2020  16.7836  17.0734  17.3764  17.6474
    17.9536  18.0141  18.8309  21.7629  28.1759

     occupation numbers 
     1.0000   1.0000   1.0000   1.0000   1.0000   1.0000   1.0000   1.0000
     1.0000   1.0000   1.0000   1.0000   1.0000   1.0000   1.0000   1.0000
     1.0000   1.0000   1.0000   0.0000   0.0000

          k = 0.0833 0.2406 0.2008 (  2745 PWs)   bands (ev):

   -76.5171 -76.4933 -39.8655 -39.7639 -39.7125 -39.6685 -39.6441 -39.6264
    12.8982  14.7338  15.7412  16.3204  16.4897  16.9349  17.3519  17.6714
    18.2014  18.2967  18.7034  20.1044  31.5595

     occupation numbers 
     1.0000   1.0000   1.0000   1.0000   1.0000   1.0000   1.0000   1.0000
     1.0000   1.0000   1.0000   1.0000   1.0000   1.0000   1.0000   1.0000
     1.0000   1.0000   1.0000   0.0000   0.0000

          k = 0.0833 0.2406-0.3012 (  2746 PWs)   bands (ev):

   -76.5052 -76.5052 -39.8155 -39.8155 -39.6859 -39.6859 -39.6392 -39.6392
    13.8325  13.8325  16.0241  16.0241  16.6539  16.6539  17.4961  17.4961
    18.4640  18.4640  19.0017  19.0017  35.2853

     occupation numbers 
     1.0000   1.0000   1.0000   1.0000   1.0000   1.0000   1.0000   1.0000
     1.0000   1.0000   1.0000   1.0000   1.0000   1.0000   1.0000   1.0000
     1.0000   1.0000   1.0000   1.0000   0.0000

          k = 0.0833 0.3368 0.0000 (  2745 PWs)   bands (ev):

   -76.5130 -76.4745 -39.8767 -39.8162 -39.7780 -39.6902 -39.6524 -39.6294
    13.1977  15.1542  15.5234  16.0953  16.8781  16.9249  17.3222  17.9012
    18.3125  18.6580  18.9004  25.0524  26.5521

     occupation numbers 
     1.0000   1.0000   1.0000   1.0000   1.0000   1.0000   1.0000   1.0000
     1.0000   1.0000   1.0000   1.0000   1.0000   1.0000   1.0000   1.0000
     1.0000   1.0000   1.0000   0.0000   0.0000

          k = 0.0833 0.3368 0.1004 (  2737 PWs)   bands (ev):

   -76.5104 -76.4771 -39.8817 -39.8024 -39.7817 -39.6897 -39.6545 -39.6328
    13.3541  15.2007  15.4416  16.1404  16.6873  17.1541  17.2802  17.9499
    18.3952  18.5048  18.9220  23.0496  28.9683

     occupation numbers 
     1.0000   1.0000   1.0000   1.0000   1.0000   1.0000   1.0000   1.0000
     1.0000   1.0000   1.0000   1.0000   1.0000   1.0000   1.0000   1.0000
     1.0000   1.0000   1.0000   0.0000   0.0000

          k = 0.0833 0.3368 0.2008 (  2743 PWs)   bands (ev):

   -76.5034 -76.4842 -39.8783 -39.8249 -39.7466 -39.6873 -39.6630 -39.6432
    13.7795  14.9179  15.5827  16.1764  16.6192  17.1252  17.4038  18.0128
    18.4297  18.6130  18.8958  20.9681  31.7481

     occupation numbers 
     1.0000   1.0000   1.0000   1.0000   1.0000   1.0000   1.0000   1.0000
     1.0000   1.0000   1.0000   1.0000   1.0000   1.0000   1.0000   1.0000
     1.0000   1.0000   1.0000   0.0000   0.0000

          k = 0.0833 0.3368-0.3012 (  2744 PWs)   bands (ev):

   -76.4938 -76.4938 -39.8571 -39.8571 -39.7067 -39.7067 -39.6578 -39.6578
    14.3546  14.3546  15.9213  15.9213  16.8582  16.8582  17.6928  17.6928
    18.6944  18.6944  19.4672  19.4672  33.0051

     occupation numbers 
     1.0000   1.0000   1.0000   1.0000   1.0000   1.0000   1.0000   1.0000
     1.0000   1.0000   1.0000   1.0000   1.0000   1.0000   1.0000   1.0000
     1.0000   1.0000   1.0000   1.0000   0.0000

          k = 0.0833 0.4330 0.0000 (  2743 PWs)   bands (ev):

   -76.4978 -76.4698 -39.8801 -39.8376 -39.8336 -39.7137 -39.6744 -39.6439
    14.2183  14.9562  15.1285  16.3461  16.7973  17.0834  17.0931  18.4899
    18.7773  18.9156  19.5064  26.0959  27.0957

     occupation numbers 
     1.0000   1.0000   1.0000   1.0000   1.0000   1.0000   1.0000   1.0000
     1.0000   1.0000   1.0000   1.0000   1.0000   1.0000   1.0000   1.0000
     1.0000   1.0000   1.0000   0.0000   0.0000

          k = 0.0833 0.4330 0.1004 (  2745 PWs)   bands (ev):

   -76.4960 -76.4717 -39.9000 -39.8511 -39.8004 -39.7104 -39.6742 -39.6471
    14.1957  14.9566  15.3052  16.0582  16.8719  17.1908  17.4247  18.4430
    18.7335  18.8359  19.5011  24.1745  28.0821

     occupation numbers 
     1.0000   1.0000   1.0000   1.0000   1.0000   1.0000   1.0000   1.0000
     1.0000   1.0000   1.0000   1.0000   1.0000   1.0000   1.0000   1.0000
     1.0000   1.0000   1.0000   0.0000   0.0000

          k = 0.0833 0.4330 0.2008 (  2750 PWs)   bands (ev):

   -76.4908 -76.4768 -39.9136 -39.8800 -39.7522 -39.7012 -39.6801 -39.6560
    14.2567  14.8165  15.5041  15.9709  16.9800  17.4397  17.8578  18.1963
    18.6167  18.9803  19.5519  22.0152  28.8576

     occupation numbers 
     1.0000   1.0000   1.0000   1.0000   1.0000   1.0000   1.0000   1.0000
     1.0000   1.0000   1.0000   1.0000   1.0000   1.0000   1.0000   1.0000
     1.0000   1.0000   0.5320   0.0000   0.0000

          k = 0.0833 0.4330-0.3012 (  2750 PWs)   bands (ev):

   -76.4838 -76.4838 -39.9054 -39.9054 -39.7143 -39.7143 -39.6719 -39.6719
    14.4894  14.4894  15.7792  15.7792  17.4299  17.4299  17.8548  17.8548
    18.9223  18.9223  20.3487  20.3487  29.8784

     occupation numbers 
     1.0000   1.0000   1.0000   1.0000   1.0000   1.0000   1.0000   1.0000
     1.0000   1.0000   1.0000   1.0000   1.0000   1.0000   1.0000   1.0000
     1.0000   1.0000   0.0000   0.0000   0.0000

          k = 0.0833 0.5292 0.0000 (  2749 PWs)   bands (ev):

   -76.4879 -76.4683 -39.9171 -39.8655 -39.8080 -39.7270 -39.6940 -39.6524
    14.6481  14.7872  14.9322  16.7414  16.7729  16.9016  17.2640  18.9211
    18.9243  19.0150  20.8289  23.8924  29.0471

     occupation numbers 
     1.0000   1.0000   1.0000   1.0000   1.0000   1.0000   1.0000   1.0000
     1.0000   1.0000   1.0000   1.0000   1.0000   1.0000   1.0000   1.0000
     1.0000   1.0000   0.0000   0.0000   0.0000

          k = 0.0833 0.5292 0.1004 (  2737 PWs)   bands (ev):

   -76.4866 -76.4696 -39.9291 -39.8809 -39.7862 -39.7207 -39.6915 -39.6555
    14.4216  14.7765  15.3868  15.9972  16.8157  17.3621  17.7259  18.7163
    18.9299  19.0423  20.7458  23.5761  27.9335

     occupation numbers 
     1.0000   1.0000   1.0000   1.0000   1.0000   1.0000   1.0000   1.0000
     1.0000   1.0000   1.0000   1.0000   1.0000   1.0000   1.0000   1.0000
     1.0000   1.0000   0.0000   0.0000   0.0000

          k = 0.0833 0.5292 0.2008 (  2744 PWs)   bands (ev):

   -76.4830 -76.4732 -39.9417 -39.9115 -39.7484 -39.7042 -39.6947 -39.6631
    14.3191  14.7467  15.5379  15.8111  16.9881  17.7444  18.1525  18.4570
    18.8872  19.0944  20.7493  22.6298  27.3261

     occupation numbers 
     1.0000   1.0000   1.0000   1.0000   1.0000   1.0000   1.0000   1.0000
     1.0000   1.0000   1.0000   1.0000   1.0000   1.0000   1.0000   1.0000
     1.0000   1.0000   0.0000   0.0000   0.0000

          k = 0.0833 0.5292-0.3012 (  2744 PWs)   bands (ev):

   -76.4781 -76.4781 -39.9358 -39.9358 -39.7178 -39.7178 -39.6781 -39.6781
    14.4730  14.4730  15.6849  15.6849  17.5460  17.5460  18.3058  18.3058
    18.9658  18.9658  21.4710  21.4710  27.6170

     occupation numbers 
     1.0000   1.0000   1.0000   1.0000   1.0000   1.0000   1.0000   1.0000
     1.0000   1.0000   1.0000   1.0000   1.0000   1.0000   1.0000   1.0000
     1.0000   1.0000   0.0000   0.0000   0.0000

          k = 0.1667 0.2887 0.0000 (  2738 PWs)   bands (ev):

   -76.5152 -76.4754 -39.8821 -39.7879 -39.7789 -39.6837 -39.6497 -39.6389
    13.0525  15.3679  15.6432  15.8337  16.8389  16.8907  17.4406  17.6168
    18.2967  18.6875  18.8532  24.7901  26.5870

     occupation numbers 
     1.0000   1.0000   1.0000   1.0000   1.0000   1.0000   1.0000   1.0000
     1.0000   1.0000   1.0000   1.0000   1.0000   1.0000   1.0000   1.0000
     1.0000   1.0000   1.0000   0.0000   0.0000

          k = 0.1667 0.2887 0.1004 (  2745 PWs)   bands (ev):

   -76.5125 -76.4780 -39.8810 -39.7869 -39.7720 -39.6914 -39.6472 -39.6428
    13.2323  15.4609  15.4911  15.8893  16.7707  16.8993  17.3370  17.7489
    18.4116  18.4904  18.9366  22.9132  28.9332

     occupation numbers 
     1.0000   1.0000   1.0000   1.0000   1.0000   1.0000   1.0000   1.0000
     1.0000   1.0000   1.0000   1.0000   1.0000   1.0000   1.0000   1.0000
     1.0000   1.0000   1.0000   0.0000   0.0000

          k = 0.1667 0.2887 0.2008 (  2745 PWs)   bands (ev):

   -76.5053 -76.4853 -39.8703 -39.8122 -39.7375 -39.6977 -39.6522 -39.6518
    13.7258  15.0441  15.7158  16.0464  16.5482  16.7647  17.3512  17.9450
    18.4243  18.6108  18.9747  20.8958  32.3098

     occupation numbers 
     1.0000   1.0000   1.0000   1.0000   1.0000   1.0000   1.0000   1.0000
     1.0000   1.0000   1.0000   1.0000   1.0000   1.0000   1.0000   1.0000
     1.0000   1.0000   1.0000   0.0000   0.0000

          k = 0.1667 0.2887-0.3012 (  2748 PWs)   bands (ev):

   -76.4953 -76.4953 -39.8451 -39.8451 -39.7071 -39.7071 -39.6588 -39.6588
    14.3956  14.3956  16.0367  16.0367  16.4870  16.4870  17.6352  17.6352
    18.7456  18.7456  19.4523  19.4523  34.7340

     occupation numbers 
     1.0000   1.0000   1.0000   1.0000   1.0000   1.0000   1.0000   1.0000
     1.0000   1.0000   1.0000   1.0000   1.0000   1.0000   1.0000   1.0000
     1.0000   1.0000   1.0000   1.0000   0.0000

          k = 0.1667 0.3849 0.0000 (  2750 PWs)   bands (ev):

   -76.5003 -76.4704 -39.8445 -39.8445 -39.8215 -39.7168 -39.6701 -39.6647
    14.1840  15.2839  15.3318  15.8287  16.6580  17.0383  17.2158  17.9692
    18.7668  18.8328  19.5600  26.6972  27.0624

     occupation numbers 
     1.0000   1.0000   1.0000   1.0000   1.0000   1.0000   1.0000   1.0000
     1.0000   1.0000   1.0000   1.0000   1.0000   1.0000   1.0000   1.0000
     1.0000   1.0000   0.2213   0.0000   0.0000

          k = 0.1667 0.3849 0.1004 (  2743 PWs)   bands (ev):

   -76.4983 -76.4724 -39.8758 -39.8393 -39.7914 -39.7225 -39.6725 -39.6605
    14.2494  15.2169  15.4245  15.9093  16.6830  17.0500  17.1755  18.0267
    18.6265  18.8547  19.6343  24.2442  29.4706

     occupation numbers 
     1.0000   1.0000   1.0000   1.0000   1.0000   1.0000   1.0000   1.0000
     1.0000   1.0000   1.0000   1.0000   1.0000   1.0000   1.0000   1.0000
     1.0000   1.0000   0.0000   0.0000   0.0000

          k = 0.1667 0.3849 0.2008 (  2744 PWs)   bands (ev):

   -76.4929 -76.4779 -39.8896 -39.8600 -39.7495 -39.7235 -39.6793 -39.6601
    14.4363  15.0077  15.6704  16.1239  16.5824  16.9052  17.3274  18.0486
    18.5347  19.0033  19.8034  22.0464  30.6070

     occupation numbers 
     1.0000   1.0000   1.0000   1.0000   1.0000   1.0000   1.0000   1.0000
     1.0000   1.0000   1.0000   1.0000   1.0000   1.0000   1.0000   1.0000
     1.0000   1.0000   0.0000   0.0000   0.0000

          k = 0.1667 0.3849-0.3012 (  2750 PWs)   bands (ev):

   -76.4854 -76.4854 -39.8820 -39.8820 -39.7263 -39.7263 -39.6727 -39.6727
    14.7123  14.7123  16.0082  16.0082  16.6813  16.6813  17.6252  17.6252
    18.9700  18.9700  20.4661  20.4661  31.7323

     occupation numbers 
     1.0000   1.0000   1.0000   1.0000   1.0000   1.0000   1.0000   1.0000
     1.0000   1.0000   1.0000   1.0000   1.0000   1.0000   1.0000   1.0000
     1.0000   1.0000   0.0000   0.0000   0.0000

          k = 0.1667 0.4811 0.0000 (  2740 PWs)   bands (ev):

   -76.4880 -76.4682 -39.8886 -39.8451 -39.8085 -39.7467 -39.6936 -39.6824
    14.8773  15.0661  15.1097  16.1720  16.6150  16.9621  17.2576  18.4416
    18.8180  18.9838  20.7988  25.6015  28.7628

     occupation numbers 
     1.0000   1.0000   1.0000   1.0000   1.0000   1.0000   1.0000   1.0000
     1.0000   1.0000   1.0000   1.0000   1.0000   1.0000   1.0000   1.0000
     1.0000   1.0000   0.0000   0.0000   0.0000

          k = 0.1667 0.4811 0.1004 (  2745 PWs)   bands (ev):

   -76.4867 -76.4696 -39.9008 -39.8625 -39.7872 -39.7419 -39.6978 -39.6746
    14.6870  15.1541  15.3702  15.9515  16.6638  17.1086  17.3698  18.4350
    18.6260  19.0441  20.8724  24.9224  27.8153

     occupation numbers 
     1.0000   1.0000   1.0000   1.0000   1.0000   1.0000   1.0000   1.0000
     1.0000   1.0000   1.0000   1.0000   1.0000   1.0000   1.0000   1.0000
     1.0000   1.0000   0.0000   0.0000   0.0000

          k = 0.1667 0.4811 0.2008 (  2743 PWs)   bands (ev):

   -76.4830 -76.4732 -39.9149 -39.8902 -39.7639 -39.7296 -39.6981 -39.6677
    14.6294  15.0673  15.5633  16.0979  16.5582  17.2563  17.6353  18.1252
    18.6393  19.1166  21.1612  23.3311  27.9882

     occupation numbers 
     1.0000   1.0000   1.0000   1.0000   1.0000   1.0000   1.0000   1.0000
     1.0000   1.0000   1.0000   1.0000   1.0000   1.0000   1.0000   1.0000
     1.0000   1.0000   0.0000   0.0000   0.0000

          k = 0.1667 0.4811-0.3012 (  2752 PWs)   bands (ev):

   -76.4781 -76.4781 -39.9114 -39.9114 -39.7435 -39.7435 -39.6773 -39.6773
    14.7811  14.7811  15.8929  15.8929  16.9723  16.9723  17.8110  17.8110
    18.9727  18.9727  21.9385  21.9385  28.8547

     occupation numbers 
     1.0000   1.0000   1.0000   1.0000   1.0000   1.0000   1.0000   1.0000
     1.0000   1.0000   1.0000   1.0000   1.0000   1.0000   1.0000   1.0000
     1.0000   1.0000   0.0000   0.0000   0.0000

          k = 0.1667 0.5774 0.0000 (  2748 PWs)   bands (ev):

   -76.4826 -76.4683 -39.9046 -39.8529 -39.7904 -39.7587 -39.7071 -39.6888
    14.9937  14.9974  15.0486  16.4126  16.6629  16.8058  17.3518  18.7659
    18.8125  18.9386  22.0889  23.7627  30.2261

     occupation numbers 
     1.0000   1.0000   1.0000   1.0000   1.0000   1.0000   1.0000   1.0000
     1.0000   1.0000   1.0000   1.0000   1.0000   1.0000   1.0000   1.0000
     1.0000   1.0000   0.0000   0.0000   0.0000

          k = 0.1667 0.5774 0.1004 (  2747 PWs)   bands (ev):

   -76.4817 -76.4692 -39.9143 -39.8690 -39.7866 -39.7390 -39.7125 -39.6809
    14.6994  15.0667  15.5393  15.9315  16.5814  17.2383  17.4707  18.6002
    18.7638  18.9854  22.1680  23.6882  29.0458

     occupation numbers 
     1.0000   1.0000   1.0000   1.0000   1.0000   1.0000   1.0000   1.0000
     1.0000   1.0000   1.0000   1.0000   1.0000   1.0000   1.0000   1.0000
     1.0000   1.0000   0.0000   0.0000   0.0000

          k = 0.1667 0.5774 0.2008 (  2740 PWs)   bands (ev):

   -76.4790 -76.4719 -39.9264 -39.8998 -39.7720 -39.7285 -39.7038 -39.6714
    14.6214  15.0757  15.6079  16.0442  16.4745  17.4613  17.7763  18.1955
    18.7850  19.0249  22.4352  23.4191  27.8398

     occupation numbers 
     1.0000   1.0000   1.0000   1.0000   1.0000   1.0000   1.0000   1.0000
     1.0000   1.0000   1.0000   1.0000   1.0000   1.0000   1.0000   1.0000
     1.0000   1.0000   0.0000   0.0000   0.0000

          k = 0.1667 0.5774-0.3012 (  2736 PWs)   bands (ev):

   -76.4754 -76.4754 -39.9224 -39.9224 -39.7504 -39.7504 -39.6780 -39.6780
    14.7829  14.7829  15.8504  15.8504  17.0123  17.0123  18.0301  18.0301
    18.9056  18.9056  22.9252  22.9252  27.3926

     occupation numbers 
     1.0000   1.0000   1.0000   1.0000   1.0000   1.0000   1.0000   1.0000
     1.0000   1.0000   1.0000   1.0000   1.0000   1.0000   1.0000   1.0000
     1.0000   1.0000   0.0000   0.0000   0.0000

          k = 0.2500 0.4330 0.0000 (  2740 PWs)   bands (ev):

   -76.4880 -76.4682 -39.8640 -39.8423 -39.8088 -39.7519 -39.7048 -39.6933
    15.0435  15.1446  15.5665  15.5703  16.5234  16.9958  17.2656  18.1652
    18.7644  18.9824  20.8230  27.3203  28.2863

     occupation numbers 
     1.0000   1.0000   1.0000   1.0000   1.0000   1.0000   1.0000   1.0000
     1.0000   1.0000   1.0000   1.0000   1.0000   1.0000   1.0000   1.0000
     1.0000   1.0000   0.0000   0.0000   0.0000

          k = 0.2500 0.4330 0.1004 (  2748 PWs)   bands (ev):

   -76.4867 -76.4695 -39.8705 -39.8683 -39.7754 -39.7635 -39.7068 -39.6806
    15.0332  15.0942  15.5795  15.7445  16.6743  16.8331  17.2827  18.2234
    18.5623  19.0491  20.9392  25.6402  28.5601

     occupation numbers 
     1.0000   1.0000   1.0000   1.0000   1.0000   1.0000   1.0000   1.0000
     1.0000   1.0000   1.0000   1.0000   1.0000   1.0000   1.0000   1.0000
     1.0000   1.0000   0.0000   0.0000   0.0000

          k = 0.2500 0.4330 0.2008 (  2755 PWs)   bands (ev):

   -76.4831 -76.4732 -39.8936 -39.8823 -39.7692 -39.7513 -39.6992 -39.6692
    14.9990  15.0338  15.7486  16.1241  16.4898  16.7772  17.3509  18.0211
    18.6025  19.1258  21.2962  23.6122  29.3192

     occupation numbers 
     1.0000   1.0000   1.0000   1.0000   1.0000   1.0000   1.0000   1.0000
     1.0000   1.0000   1.0000   1.0000   1.0000   1.0000   1.0000   1.0000
     1.0000   1.0000   0.0000   0.0000   0.0000

          k = 0.2500 0.4330-0.3012 (  2740 PWs)   bands (ev):

   -76.4781 -76.4781 -39.8959 -39.8959 -39.7594 -39.7594 -39.6770 -39.6770
    14.9968  14.9968  16.0726  16.0726  16.5626  16.5626  17.5840  17.5840
    18.9938  18.9938  22.1129  22.1129  30.3181

     occupation numbers 
     1.0000   1.0000   1.0000   1.0000   1.0000   1.0000   1.0000   1.0000
     1.0000   1.0000   1.0000   1.0000   1.0000   1.0000   1.0000   1.0000
     1.0000   1.0000   0.0000   0.0000   0.0000

          k = 0.2500 0.5292 0.0000 (  2757 PWs)   bands (ev):

   -76.4790 -76.4688 -39.8778 -39.8336 -39.7875 -39.7771 -39.7310 -39.7177
    15.0867  15.3270  15.4065  15.9355  16.5392  16.7620  17.4447  18.4804
    18.7245  18.8892  22.5434  25.2097  27.6108

     occupation numbers 
     1.0000   1.0000   1.0000   1.0000   1.0000   1.0000   1.0000   1.0000
     1.0000   1.0000   1.0000   1.0000   1.0000   1.0000   1.0000   1.0000
     1.0000   1.0000   0.0000   0.0000   0.0000

          k = 0.2500 0.5292 0.1004 (  2751 PWs)   bands (ev):

   -76.4783 -76.4695 -39.8833 -39.8537 -39.8042 -39.7532 -39.7322 -39.6980
    15.0310  15.4392  15.5307  15.8171  16.5571  16.7707  17.4703  18.4826
    18.5454  18.9391  22.7216  25.1930  27.5906

     occupation numbers 
     1.0000   1.0000   1.0000   1.0000   1.0000   1.0000   1.0000   1.0000
     1.0000   1.0000   1.0000   1.0000   1.0000   1.0000   1.0000   1.0000
     1.0000   1.0000   0.0000   0.0000   0.0000

          k = 0.2500 0.5292 0.2008 (  2738 PWs)   bands (ev):

   -76.4765 -76.4714 -39.8965 -39.8814 -39.8042 -39.7650 -39.6993 -39.6776
    15.0409  15.4115  15.6765  16.0167  16.3894  16.7989  17.5467  18.0331
    18.6904  18.9915  23.1974  24.8048  27.4802

     occupation numbers 
     1.0000   1.0000   1.0000   1.0000   1.0000   1.0000   1.0000   1.0000
     1.0000   1.0000   1.0000   1.0000   1.0000   1.0000   1.0000   1.0000
     1.0000   1.0000   0.0000   0.0000   0.0000

          k = 0.2500 0.5292-0.3012 (  2718 PWs)   bands (ev):

   -76.4739 -76.4739 -39.8984 -39.8984 -39.7865 -39.7865 -39.6770 -39.6770
    15.1785  15.1785  15.9744  15.9744  16.5634  16.5634  17.6916  17.6916
    18.9009  18.9009  23.9434  23.9434  28.0279

     occupation numbers 
     1.0000   1.0000   1.0000   1.0000   1.0000   1.0000   1.0000   1.0000
     1.0000   1.0000   1.0000   1.0000   1.0000   1.0000   1.0000   1.0000
     1.0000   1.0000   0.0000   0.0000   0.0000

          k = 0.3333 0.5774 0.0000 (  2760 PWs)   bands (ev):

   -76.4724 -76.4724 -39.8629 -39.8143 -39.8143 -39.7630 -39.7461 -39.7461
    15.1109  15.5400  15.5400  15.7844  16.5925  16.5925  17.5485  18.6444
    18.6444  18.6872  24.3185  25.2359  25.2359

     occupation numbers 
     1.0000   1.0000   1.0000   1.0000   1.0000   1.0000   1.0000   1.0000
     1.0000   1.0000   1.0000   1.0000   1.0000   1.0000   1.0000   1.0000
     1.0000   1.0000   0.0000   0.0000   0.0000

          k = 0.3333 0.5774 0.1004 (  2739 PWs)   bands (ev):

   -76.4724 -76.4724 -39.8562 -39.8397 -39.8397 -39.7698 -39.7206 -39.7206
    15.2056  15.5516  15.5516  15.7998  16.5674  16.5674  17.5259  18.4601
    18.6985  18.6985  24.7094  25.2918  25.2918

     occupation numbers 
     1.0000   1.0000   1.0000   1.0000   1.0000   1.0000   1.0000   1.0000
     1.0000   1.0000   1.0000   1.0000   1.0000   1.0000   1.0000   1.0000
     1.0000   1.0000   0.0000   0.0000   0.0000

          k = 0.3333 0.5774 0.2008 (  2733 PWs)   bands (ev):

   -76.4724 -76.4724 -39.8711 -39.8711 -39.8380 -39.7881 -39.6888 -39.6888
    15.4465  15.5724  15.5724  15.8052  16.5242  16.5242  17.5042  17.9879
    18.8030  18.8030  25.4287  25.4287  25.7187

     occupation numbers 
     1.0000   1.0000   1.0000   1.0000   1.0000   1.0000   1.0000   1.0000
     1.0000   1.0000   1.0000   1.0000   1.0000   1.0000   1.0000   1.0000
     1.0000   1.0000   0.0000   0.0000   0.0000

          k = 0.3333 0.5774-0.3012 (  2730 PWs)   bands (ev):

   -76.4724 -76.4724 -39.8833 -39.8833 -39.8131 -39.8131 -39.6765 -39.6765
    15.5815  15.5815  15.6960  15.6960  16.5060  16.5060  17.6201  17.6201
    18.8539  18.8539  25.5151  25.5151  27.1146

     occupation numbers 
     1.0000   1.0000   1.0000   1.0000   1.0000   1.0000   1.0000   1.0000
     1.0000   1.0000   1.0000   1.0000   1.0000   1.0000   1.0000   1.0000
     1.0000   1.0000   0.0000   0.0000   0.0000

 ------ SPIN DOWN ----------


          k = 0.0000 0.0000 0.0000 (  2779 PWs)   bands (ev):

   -74.5211 -74.4568 -37.9899 -37.6563 -37.6563 -37.6082 -37.6063 -37.6063
    10.3431  15.0779  18.3429  18.5392  18.5392  18.8944  18.8944  18.9635
    19.4897  19.4897  20.6773  20.6773  26.8914

[...]
    20.8471  20.8711  22.1317  24.7717  29.5562

     occupation numbers 
     1.0000   1.0000   1.0000   1.0000   1.0000   1.0000   1.0000   1.0000
     1.0000   1.0000   1.0000   1.0000   1.0000   1.0000   1.0000   0.0000
     0.0000   0.0000   0.0000   0.0000   0.0000

          k = 0.0833 0.5292 0.1004 (  2737 PWs)   bands (ev):

   -74.4491 -74.4308 -37.9775 -37.9258 -37.7976 -37.7518 -37.6969 -37.6782
    15.3481  15.9170  16.5037  17.1210  18.4067  18.8849  18.9058  20.5986
    20.7700  20.9064  21.9867  24.3877  28.6508

     occupation numbers 
     1.0000   1.0000   1.0000   1.0000   1.0000   1.0000   1.0000   1.0000
     1.0000   1.0000   1.0000   1.0000   1.0000   1.0000   1.0000   0.0000
     0.0000   0.0000   0.0000   0.0000   0.0000

          k = 0.0833 0.5292 0.2008 (  2744 PWs)   bands (ev):

   -74.4452 -74.4347 -37.9886 -37.9568 -37.7642 -37.7272 -37.7112 -37.6794
    15.2981  15.7676  16.8108  17.1056  18.4501  19.2545  19.4470  20.1394
    20.7259  20.9761  21.7647  23.3847  28.2063

     occupation numbers 
     1.0000   1.0000   1.0000   1.0000   1.0000   1.0000   1.0000   1.0000
     1.0000   1.0000   1.0000   1.0000   1.0000   1.0000   1.0000   0.0000
     0.0000   0.0000   0.0000   0.0000   0.0000

          k = 0.0833 0.5292-0.3012 (  2744 PWs)   bands (ev):

   -74.4399 -74.4399 -37.9819 -37.9819 -37.7363 -37.7363 -37.6954 -37.6954
    15.4675  15.4675  17.0426  17.0426  18.9830  18.9830  19.7943  19.7943
    20.8203  20.8203  22.2976  22.2976  28.4782

     occupation numbers 
     1.0000   1.0000   1.0000   1.0000   1.0000   1.0000   1.0000   1.0000
     1.0000   1.0000   1.0000   1.0000   1.0000   1.0000   0.0000   0.0000
     0.0000   0.0000   0.0000   0.0000   0.0000

          k = 0.1667 0.2887 0.0000 (  2738 PWs)   bands (ev):

   -74.4797 -74.4370 -37.8981 -37.8265 -37.8174 -37.7134 -37.6651 -37.6453
    13.1276  16.5104  16.7458  17.1833  18.3989  18.4602  19.0752  19.3108
    20.0408  20.4103  20.7691  25.5861  27.3413

     occupation numbers 
     1.0000   1.0000   1.0000   1.0000   1.0000   1.0000   1.0000   1.0000
     1.0000   1.0000   1.0000   1.0000   1.0000   1.0000   1.0000   1.0000
     0.0000   0.0000   0.0000   0.0000   0.0000

          k = 0.1667 0.2887 0.1004 (  2745 PWs)   bands (ev):

   -74.4769 -74.4399 -37.9022 -37.8244 -37.8041 -37.7178 -37.6692 -37.6483
    13.3340  16.3806  16.7071  17.2511  18.3275  18.4212  18.9787  19.4583
    20.1684  20.2694  20.7870  23.9292  29.5344

     occupation numbers 
     1.0000   1.0000   1.0000   1.0000   1.0000   1.0000   1.0000   1.0000
     1.0000   1.0000   1.0000   1.0000   1.0000   1.0000   1.0000   1.0000
     0.0000   0.0000   0.0000   0.0000   0.0000

          k = 0.1667 0.2887 0.2008 (  2745 PWs)   bands (ev):

   -74.4691 -74.4477 -37.8976 -37.8467 -37.7598 -37.7207 -37.6791 -37.6624
    13.9186  15.6854  16.9795  17.4245  18.0159  18.2660  19.0355  19.6405
    20.2256  20.3950  20.7493  22.1974  32.7928

     occupation numbers 
     1.0000   1.0000   1.0000   1.0000   1.0000   1.0000   1.0000   1.0000
     1.0000   1.0000   1.0000   1.0000   1.0000   1.0000   1.0000   0.0000
     0.0000   0.0000   0.0000   0.0000   0.0000

          k = 0.1667 0.2887-0.3012 (  2748 PWs)   bands (ev):

   -74.4584 -74.4584 -37.8763 -37.8763 -37.7251 -37.7251 -37.6818 -37.6818
    14.7699  14.7699  17.3600  17.3600  17.9581  17.9581  19.3473  19.3473
    20.5822  20.5822  20.9834  20.9834  35.1498

     occupation numbers 
     1.0000   1.0000   1.0000   1.0000   1.0000   1.0000   1.0000   1.0000
     1.0000   1.0000   1.0000   1.0000   1.0000   1.0000   1.0000   1.0000
     0.0000   0.0000   0.0000   0.0000   0.0000

          k = 0.1667 0.3849 0.0000 (  2750 PWs)   bands (ev):

   -74.4638 -74.4317 -37.8883 -37.8632 -37.8570 -37.7492 -37.6928 -37.6674
    14.4142  16.4543  16.5644  17.0211  18.2312  18.5368  18.8057  19.6951
    20.5746  20.7459  21.2066  27.4015  27.6740

     occupation numbers 
     1.0000   1.0000   1.0000   1.0000   1.0000   1.0000   1.0000   1.0000
     1.0000   1.0000   1.0000   1.0000   1.0000   1.0000   1.0000   0.0000
     0.0000   0.0000   0.0000   0.0000   0.0000

          k = 0.1667 0.3849 0.1004 (  2743 PWs)   bands (ev):

   -74.4616 -74.4339 -37.9104 -37.8798 -37.8128 -37.7523 -37.6981 -37.6644
    14.5501  16.3172  16.6647  17.1243  18.1730  18.5331  18.7639  19.7661
    20.4904  20.6783  21.2972  25.0627  30.0660

     occupation numbers 
     1.0000   1.0000   1.0000   1.0000   1.0000   1.0000   1.0000   1.0000
     1.0000   1.0000   1.0000   1.0000   1.0000   1.0000   1.0000   0.0000
     0.0000   0.0000   0.0000   0.0000   0.0000

          k = 0.1667 0.3849 0.2008 (  2744 PWs)   bands (ev):

   -74.4558 -74.4397 -37.9264 -37.9001 -37.7687 -37.7486 -37.7053 -37.6686
    14.9231  15.9477  16.9426  17.3327  18.0061  18.2797  18.9577  19.8045
    20.3310  20.8635  21.3789  23.0620  31.1934

     occupation numbers 
     1.0000   1.0000   1.0000   1.0000   1.0000   1.0000   1.0000   1.0000
     1.0000   1.0000   1.0000   1.0000   1.0000   1.0000   1.0000   0.0000
     0.0000   0.0000   0.0000   0.0000   0.0000

          k = 0.1667 0.3849-0.3012 (  2750 PWs)   bands (ev):

   -74.4478 -74.4478 -37.9207 -37.9207 -37.7492 -37.7492 -37.6890 -37.6890
    15.4357  15.4357  17.2876  17.2876  17.9996  17.9996  19.3421  19.3421
    20.8388  20.8388  21.7276  21.7276  32.2787

     occupation numbers 
     1.0000   1.0000   1.0000   1.0000   1.0000   1.0000   1.0000   1.0000
     1.0000   1.0000   1.0000   1.0000   1.0000   1.0000   1.0000   1.0000
     0.0000   0.0000   0.0000   0.0000   0.0000

          k = 0.1667 0.4811 0.0000 (  2740 PWs)   bands (ev):

   -74.4506 -74.4294 -37.9363 -37.8886 -37.8177 -37.7816 -37.7120 -37.6928
    15.5098  16.2894  16.3141  17.1213  18.1621  18.5024  18.7894  20.2098
    20.7287  20.8310  22.1939  26.3173  29.3571

     occupation numbers 
     1.0000   1.0000   1.0000   1.0000   1.0000   1.0000   1.0000   1.0000
     1.0000   1.0000   1.0000   1.0000   1.0000   1.0000   1.0000   0.0000
     0.0000   0.0000   0.0000   0.0000   0.0000

          k = 0.1667 0.4811 0.1004 (  2745 PWs)   bands (ev):

   -74.4491 -74.4308 -37.9460 -37.9048 -37.8048 -37.7693 -37.7211 -37.6827
    15.4962  16.2508  16.4970  17.1251  18.1722  18.4660  18.9079  20.2160
    20.4951  20.9063  22.2382  25.5973  28.5651

     occupation numbers 
     1.0000   1.0000   1.0000   1.0000   1.0000   1.0000   1.0000   1.0000
     1.0000   1.0000   1.0000   1.0000   1.0000   1.0000   1.0000   0.0000
     0.0000   0.0000   0.0000   0.0000   0.0000

          k = 0.1667 0.4811 0.2008 (  2743 PWs)   bands (ev):

   -74.4452 -74.4347 -37.9584 -37.9328 -37.7903 -37.7525 -37.7180 -37.6762
    15.5578  16.0553  16.8270  17.3563  17.9898  18.4661  19.1768  19.9095
    20.4539  21.0032  22.3821  24.0935  28.7694

     occupation numbers 
     1.0000   1.0000   1.0000   1.0000   1.0000   1.0000   1.0000   1.0000
     1.0000   1.0000   1.0000   1.0000   1.0000   1.0000   1.0000   0.0000
     0.0000   0.0000   0.0000   0.0000   0.0000

          k = 0.1667 0.4811-0.3012 (  2752 PWs)   bands (ev):

   -74.4400 -74.4400 -37.9544 -37.9544 -37.7706 -37.7706 -37.6890 -37.6890
    15.7633  15.7633  17.2259  17.2259  18.2048  18.2048  19.4703  19.4703
    20.8302  20.8302  22.9082  22.9082  29.5720

     occupation numbers 
     1.0000   1.0000   1.0000   1.0000   1.0000   1.0000   1.0000   1.0000
     1.0000   1.0000   1.0000   1.0000   1.0000   1.0000   1.0000   1.0000
     0.0000   0.0000   0.0000   0.0000   0.0000

          k = 0.1667 0.5774 0.0000 (  2748 PWs)   bands (ev):

   -74.4448 -74.4294 -37.9536 -37.8970 -37.7979 -37.7946 -37.7188 -37.7075
    15.9478  16.1651  16.2372  17.2248  18.2493  18.2777  18.9013  20.5741
    20.7222  20.7875  23.1501  24.7366  30.8189

     occupation numbers 
     1.0000   1.0000   1.0000   1.0000   1.0000   1.0000   1.0000   1.0000
     1.0000   1.0000   1.0000   1.0000   1.0000   1.0000   1.0000   0.0000
     0.0000   0.0000   0.0000   0.0000   0.0000

          k = 0.1667 0.5774 0.1004 (  2747 PWs)   bands (ev):

   -74.4438 -74.4304 -37.9616 -37.9125 -37.8097 -37.7598 -37.7333 -37.6923
    15.7464  16.2094  16.6593  16.9932  18.1311  18.5025  19.0272  20.4705
    20.5761  20.8463  23.1677  24.6182  29.6440

     occupation numbers 
     1.0000   1.0000   1.0000   1.0000   1.0000   1.0000   1.0000   1.0000
     1.0000   1.0000   1.0000   1.0000   1.0000   1.0000   1.0000   0.0000
     0.0000   0.0000   0.0000   0.0000   0.0000

          k = 0.1667 0.5774 0.2008 (  2740 PWs)   bands (ev):

   -74.4409 -74.4332 -37.9719 -37.9434 -37.8004 -37.7547 -37.7178 -37.6806
    15.6820  16.1167  16.9066  17.2646  17.9002  18.6530  19.3353  19.9753
    20.6145  20.8999  23.2778  24.2395  28.7094

     occupation numbers 
     1.0000   1.0000   1.0000   1.0000   1.0000   1.0000   1.0000   1.0000
     1.0000   1.0000   1.0000   1.0000   1.0000   1.0000   1.0000   0.0000
     0.0000   0.0000   0.0000   0.0000   0.0000

          k = 0.1667 0.5774-0.3012 (  2736 PWs)   bands (ev):

   -74.4371 -74.4371 -37.9669 -37.9669 -37.7790 -37.7790 -37.6884 -37.6884
    15.8368  15.8368  17.2117  17.2117  18.2662  18.2662  19.6428  19.6428
    20.7633  20.7633  23.6812  23.6812  28.2633

     occupation numbers 
     1.0000   1.0000   1.0000   1.0000   1.0000   1.0000   1.0000   1.0000
     1.0000   1.0000   1.0000   1.0000   1.0000   1.0000   0.0000   0.0000
     0.0000   0.0000   0.0000   0.0000   0.0000

          k = 0.2500 0.4330 0.0000 (  2740 PWs)   bands (ev):

   -74.4506 -74.4293 -37.9096 -37.8856 -37.8179 -37.7874 -37.7363 -37.6925
    15.5475  16.3754  16.6846  16.7561  18.0561  18.5351  18.7923  19.9240
    20.6679  20.8268  22.2471  27.8695  28.8811

     occupation numbers 
     1.0000   1.0000   1.0000   1.0000   1.0000   1.0000   1.0000   1.0000
     1.0000   1.0000   1.0000   1.0000   1.0000   1.0000   1.0000   0.0000
     0.0000   0.0000   0.0000   0.0000   0.0000

          k = 0.2500 0.4330 0.1004 (  2748 PWs)   bands (ev):

   -74.4492 -74.4307 -37.9131 -37.9089 -37.7964 -37.7905 -37.7370 -37.6833
    15.6104  16.2930  16.7511  16.9391  18.0960  18.3352  18.8253  19.9924
    20.4260  20.9119  22.3435  26.2927  29.1605

     occupation numbers 
     1.0000   1.0000   1.0000   1.0000   1.0000   1.0000   1.0000   1.0000
     1.0000   1.0000   1.0000   1.0000   1.0000   1.0000   1.0000   0.0000
     0.0000   0.0000   0.0000   0.0000   0.0000

          k = 0.2500 0.4330 0.2008 (  2755 PWs)   bands (ev):

   -74.4453 -74.4346 -37.9328 -37.9250 -37.8014 -37.7765 -37.7176 -37.6755
    15.7717  16.1525  16.9720  17.2921  17.9290  18.0608  18.9480  19.7965
    20.4088  21.0139  22.5745  24.4141  29.9205

     occupation numbers 
     1.0000   1.0000   1.0000   1.0000   1.0000   1.0000   1.0000   1.0000
     1.0000   1.0000   1.0000   1.0000   1.0000   1.0000   1.0000   0.0000
     0.0000   0.0000   0.0000   0.0000   0.0000

          k = 0.2500 0.4330-0.3012 (  2740 PWs)   bands (ev):

   -74.4400 -74.4400 -37.9367 -37.9367 -37.7903 -37.7903 -37.6873 -37.6873
    15.9719  15.9719  17.3177  17.3177  17.8338  17.8338  19.2767  19.2767
    20.8565  20.8565  23.1367  23.1367  30.9089

     occupation numbers 
     1.0000   1.0000   1.0000   1.0000   1.0000   1.0000   1.0000   1.0000
     1.0000   1.0000   1.0000   1.0000   1.0000   1.0000   1.0000   1.0000
     0.0000   0.0000   0.0000   0.0000   0.0000

          k = 0.2500 0.5292 0.0000 (  2757 PWs)   bands (ev):

   -74.4409 -74.4300 -37.9244 -37.8761 -37.8261 -37.7834 -37.7646 -37.7190
    16.2437  16.3629  16.5307  16.8684  18.0530  18.2547  19.0023  20.2700
    20.6224  20.7286  23.6167  25.9862  28.1735

     occupation numbers 
     1.0000   1.0000   1.0000   1.0000   1.0000   1.0000   1.0000   1.0000
     1.0000   1.0000   1.0000   1.0000   1.0000   1.0000   1.0000   0.0000
     0.0000   0.0000   0.0000   0.0000   0.0000

          k = 0.2500 0.5292 0.1004 (  2751 PWs)   bands (ev):

   -74.4402 -74.4307 -37.9281 -37.8942 -37.8389 -37.7789 -37.7500 -37.7033
    16.1524  16.5273  16.6108  16.9189  18.0213  18.1511  19.0339  20.3051
    20.3811  20.7923  23.7718  25.9298  28.1870

     occupation numbers 
     1.0000   1.0000   1.0000   1.0000   1.0000   1.0000   1.0000   1.0000
     1.0000   1.0000   1.0000   1.0000   1.0000   1.0000   1.0000   0.0000
     0.0000   0.0000   0.0000   0.0000   0.0000

          k = 0.2500 0.5292 0.2008 (  2738 PWs)   bands (ev):

   -74.4382 -74.4327 -37.9385 -37.9220 -37.8401 -37.7982 -37.7099 -37.6843
    16.1618  16.4648  16.8959  17.2603  17.7366  18.0231  19.1368  19.8114
    20.5188  20.8604  24.1453  25.4891  28.2142

     occupation numbers 
     1.0000   1.0000   1.0000   1.0000   1.0000   1.0000   1.0000   1.0000
     1.0000   1.0000   1.0000   1.0000   1.0000   1.0000   1.0000   0.0000
     0.0000   0.0000   0.0000   0.0000   0.0000

          k = 0.2500 0.5292-0.3012 (  2718 PWs)   bands (ev):

   -74.4354 -74.4354 -37.9394 -37.9394 -37.8219 -37.8219 -37.6850 -37.6850
    16.2896  16.2896  17.2916  17.2916  17.7370  17.7370  19.3654  19.3654
    20.7576  20.7576  24.7324  24.7324  28.7611

     occupation numbers 
     1.0000   1.0000   1.0000   1.0000   1.0000   1.0000   1.0000   1.0000
     1.0000   1.0000   1.0000   1.0000   1.0000   1.0000   1.0000   1.0000
     0.0000   0.0000   0.0000   0.0000   0.0000

          k = 0.3333 0.5774 0.0000 (  2760 PWs)   bands (ev):

   -74.4338 -74.4338 -37.9081 -37.8553 -37.8553 -37.7992 -37.7497 -37.7497
    16.4146  16.5884  16.5884  16.7501  18.0763  18.0763  19.1137  20.4583
    20.4583  20.5802  25.1204  26.0082  26.0082

     occupation numbers 
     1.0000   1.0000   1.0000   1.0000   1.0000   1.0000   1.0000   1.0000
     1.0000   1.0000   1.0000   1.0000   1.0000   1.0000   1.0000   0.0000
     0.0000   0.0000   0.0000   0.0000   0.0000

          k = 0.3333 0.5774 0.1004 (  2739 PWs)   bands (ev):

   -74.4338 -74.4338 -37.9008 -37.8773 -37.8773 -37.8066 -37.7275 -37.7275
    16.4895  16.6524  16.6524  16.7783  17.9870  17.9870  19.1000  20.3126
    20.5243  20.5243  25.5261  26.0409  26.0409

     occupation numbers 
     1.0000   1.0000   1.0000   1.0000   1.0000   1.0000   1.0000   1.0000
     1.0000   1.0000   1.0000   1.0000   1.0000   1.0000   1.0000   0.0000
     0.0000   0.0000   0.0000   0.0000   0.0000

          k = 0.3333 0.5774 0.2008 (  2733 PWs)   bands (ev):

   -74.4338 -74.4338 -37.9083 -37.9083 -37.8810 -37.8265 -37.6962 -37.6962
    16.6644  16.8045  16.8045  16.8282  17.7934  17.7934  19.1177  19.7666
    20.6483  20.6483  26.1213  26.1213  26.5269

     occupation numbers 
     1.0000   1.0000   1.0000   1.0000   1.0000   1.0000   1.0000   1.0000
     1.0000   1.0000   1.0000   1.0000   1.0000   1.0000   1.0000   0.0000
     0.0000   0.0000   0.0000   0.0000   0.0000

          k = 0.3333 0.5774-0.3012 (  2730 PWs)   bands (ev):

   -74.4338 -74.4338 -37.9208 -37.9208 -37.8538 -37.8538 -37.6835 -37.6835
    16.8082  16.8082  16.9024  16.9024  17.6785  17.6785  19.3138  19.3138
    20.7070  20.7070  26.1716  26.1716  27.8576

     occupation numbers 
     1.0000   1.0000   1.0000   1.0000   1.0000   1.0000   1.0000   1.0000
     1.0000   1.0000   1.0000   1.0000   1.0000   1.0000   1.0000   1.0000
     0.0000   0.0000   0.0000   0.0000   0.0000

     the Fermi energy is    19.5527 ev

!    total energy              =    -753.45304173 Ry
     total all-electron energy =     -5573.809733 Ry
     estimated scf accuracy    <       0.00000089 Ry
     smearing contrib. (-TS)   =      -0.00001945 Ry
     internal energy E=F+TS    =    -753.45302228 Ry

     The total energy is F=E-TS. E is the sum of the following terms:
     one-electron contribution =    -274.73036914 Ry
     hartree contribution      =     162.07167333 Ry
     xc contribution           =     -61.45152958 Ry
     ewald contribution        =    -404.16588557 Ry
     one-center paw contrib.   =    -175.17691131 Ry
      -> PAW hartree energy AE =     222.32469011 Ry
      -> PAW hartree energy PS =    -221.26798649 Ry
      -> PAW xc energy AE      =    -117.68582927 Ry
      -> PAW xc energy PS      =      29.04067000 Ry
      -> total E_H with PAW    =     163.12837694 Ry
      -> total E_XC with PAW   =    -150.09668885 Ry

     total magnetization       =     3.17 Bohr mag/cell
     absolute magnetization    =     3.48 Bohr mag/cell

     convergence has been achieved in  13 iterations

     Writing all to output data dir ./out2/Co.save/
 
     init_run     :      0.38s CPU      0.50s WALL (       1 calls)
     electrons    :     32.09s CPU     33.80s WALL (       1 calls)

     Called by init_run:
     wfcinit      :      0.23s CPU      0.33s WALL (       1 calls)
     potinit      :      0.10s CPU      0.13s WALL (       1 calls)
     hinit0       :      0.03s CPU      0.03s WALL (       1 calls)

     Called by electrons:
     c_bands      :     28.15s CPU     29.43s WALL (      13 calls)
     sum_band     :      2.56s CPU      2.68s WALL (      13 calls)
     v_of_rho     :      0.04s CPU      0.04s WALL (      14 calls)
     v_h          :      0.00s CPU      0.00s WALL (      14 calls)
     v_xc         :      0.04s CPU      0.04s WALL (      14 calls)
     newd         :      0.06s CPU      0.07s WALL (      14 calls)
     PAW_pot      :      1.35s CPU      1.66s WALL (      14 calls)
     mix_rho      :      0.01s CPU      0.01s WALL (      13 calls)

     Called by c_bands:
     init_us_2    :      0.17s CPU      0.17s WALL (    3952 calls)
     init_us_2:cp :      0.17s CPU      0.16s WALL (    3952 calls)
     cegterg      :     27.18s CPU     28.21s WALL (    2058 calls)

     Called by sum_band:
     sum_band:wei :      0.02s CPU      0.02s WALL (      13 calls)
     sum_band:loo :      2.42s CPU      2.53s WALL (      13 calls)
     sum_band:buf :      0.01s CPU      0.02s WALL (    1976 calls)
     sum_band:ini :      0.09s CPU      0.08s WALL (    1976 calls)
     sum_band:cal :      0.18s CPU      0.17s WALL (    1976 calls)
     sum_band:bec :      0.01s CPU      0.02s WALL (    1976 calls)
     addusdens    :      0.10s CPU      0.10s WALL (      13 calls)
                                        0.00s GPU  (      13 calls)
     addusd:skk   :      0.00s CPU      0.00s WALL (      13 calls)
                                        0.00s GPU  (      13 calls)

     Called by *egterg:
     cdiaghg      :      6.93s CPU      7.08s WALL (   11951 calls)
     cegterg:over :      0.89s CPU      0.86s WALL (   10127 calls)
     cegterg:upda :      0.12s CPU      0.22s WALL (   10127 calls)
     cegterg:last :      0.40s CPU      0.43s WALL (    7448 calls)
     h_psi        :     17.63s CPU     18.41s WALL (   12185 calls)
     s_psi        :      0.35s CPU      0.32s WALL (   12185 calls)
     g_psi        :      0.07s CPU      0.07s WALL (   10127 calls)

     Called by h_psi:
     h_psi:calbec :      0.82s CPU      0.77s WALL (   12185 calls)
     vloc_psi     :     16.49s CPU     17.20s WALL (   12185 calls)
     add_vuspsi   :      0.26s CPU      0.35s WALL (   12185 calls)

     General routines
     calbec       :      0.99s CPU      0.92s WALL (   14161 calls)
     fft          :      0.02s CPU      0.02s WALL (     344 calls)
     ffts         :      0.00s CPU      0.00s WALL (      54 calls)
     fftw         :     17.58s CPU     17.94s WALL (  388242 calls)
     interpolate  :      0.00s CPU      0.00s WALL (      28 calls)
 
     Parallel routines

     PAW routines
     PAW_pot      :      1.35s CPU      1.66s WALL (      14 calls)
     PAW_symme    :      0.01s CPU      0.01s WALL (      26 calls)
 
     PWSCF        :     32.78s CPU     35.08s WALL

 
   This run was terminated on:   9:29: 4  22Mar2024            

=------------------------------------------------------------------------------=
   JOB DONE.
=------------------------------------------------------------------------------=
