
     Program PWSCF v.7.2 starts on 22Mar2024 at  7:38:12 

     This program is part of the open-source Quantum ESPRESSO suite
     for quantum simulation of materials; please cite
         "P. Giannozzi et al., J. Phys.:Condens. Matter 21 395502 (2009);
         "P. Giannozzi et al., J. Phys.:Condens. Matter 29 465901 (2017);
         "P. Giannozzi et al., J. Chem. Phys. 152 154105 (2020);
          URL http://www.quantum-espresso.org", 
     in publications or presentations arising from this work. More details at
     http://www.quantum-espresso.org/quote

     Parallel version (MPI), running on    20 processors

     MPI processes distributed on     1 nodes
     351906 MiB available memory on the printing compute node when the environment starts
 
     Waiting for input...
     Reading input from standard input

     Current dimensions of program PWSCF are:
     Max number of different atomic species (ntypx) = 10
     Max number of k-points (npk) = 120000
     Max angular momentum in pseudopotentials (lmaxx) =  4
     file Co.pbe-spn-kjpaw_psl.0.3.1.UPF: wavefunction(s)  3P 3D renormalized
 
     R & G space division:  proc/nbgrp/npool/nimage =      20
     Subspace diagonalization in iterative solution of the eigenvalue problem:
     a serial algorithm will be used

 
     Parallelization info
     --------------------
     sticks:   dense  smooth     PW     G-vecs:    dense   smooth      PW
     Min          33      33      9                 1175     1145     185
     Max          34      34     10                 1190     1150     192
     Sum         673     673    199                23645    22923    3779
 
     Using Slab Decomposition
 


     bravais-lattice index     =            4
     lattice parameter (alat)  =       4.6865  a.u.
     unit-cell volume          =     146.6529 (a.u.)^3
     number of atoms/cell      =            2
     number of atomic types    =            1
     number of electrons       =        34.00
     number of Kohn-Sham states=           21
     kinetic-energy cutoff     =     110.0000  Ry
     charge density cutoff     =     450.0000  Ry
     scf convergence threshold =      1.0E-06
     mixing beta               =       0.7000
     number of iterations used =            8  plain     mixing
     Exchange-correlation= SLA  PW   PBX  PBC
                           (   1   4   3   4   0   0   0)

     celldm(1)=   4.686521  celldm(2)=   0.000000  celldm(3)=   1.645161
     celldm(4)=   0.000000  celldm(5)=   0.000000  celldm(6)=   0.000000

     crystal axes: (cart. coord. in units of alat)
               a(1) = (   1.000000   0.000000   0.000000 )  
               a(2) = (  -0.500000   0.866025   0.000000 )  
               a(3) = (   0.000000   0.000000   1.645161 )  

     reciprocal axes: (cart. coord. in units 2 pi/alat)
               b(1) = (  1.000000  0.577350  0.000000 )  
               b(2) = (  0.000000  1.154701  0.000000 )  
               b(3) = (  0.000000  0.000000  0.607843 )  


     PseudoPot. # 1 for Co read from file:
     /truba/home/amuhaymin/ZnS/pseudo/QE/Co.pbe-spn-kjpaw_psl.0.3.1.UPF
     MD5 check sum: b0a1ad65bf214e88c1f3d33b20c7d919
     Pseudo is Projector augmented-wave + core cor, Zval = 17.0
     Generated using &quot;atomic&quot; code by A. Dal Corso  v.6.2.2
     Shape of augmentation charge: PSQ
     Using radial grid of 1193 points,  6 beta functions with: 
                l(1) =   0
                l(2) =   0
                l(3) =   1
                l(4) =   1
                l(5) =   2
                l(6) =   2
     Q(r) pseudized with 0 coefficients 


     atomic species   valence    mass     pseudopotential
        Co            17.00    58.93300     Co( 1.00)

     Starting magnetic structure 
     atomic species   magnetization
        Co           0.294

     24 Sym. Ops., with inversion, found (12 have fractional translation)


                                    s                        frac. trans.

      isym =  1     identity                                     

 cryst.   s( 1) = (     1          0          0      )
                  (     0          1          0      )
                  (     0          0          1      )

 cart.    s( 1) = (  1.0000000  0.0000000  0.0000000 )
                  (  0.0000000  1.0000000  0.0000000 )
                  (  0.0000000  0.0000000  1.0000000 )


      isym =  2     180 deg rotation - cart. axis [0,0,1]        

 cryst.   s( 2) = (    -1          0          0      )    f =(  0.0000000 )
                  (     0         -1          0      )       ( -0.0000000 )
                  (     0          0          1      )       ( -0.5000000 )

 cart.    s( 2) = ( -1.0000000  0.0000000  0.0000000 )    f =(  0.0000000 )
                  (  0.0000000 -1.0000000  0.0000000 )       ( -0.0000000 )
                  (  0.0000000  0.0000000  1.0000000 )       ( -0.8225806 )


      isym =  3     180 deg rotation - cart. axis [0,1,0]        

 cryst.   s( 3) = (    -1          0          0      )    f =(  0.0000000 )
                  (     1          1          0      )       (  0.0000000 )
                  (     0          0         -1      )       (  0.5000000 )

 cart.    s( 3) = ( -1.0000000  0.0000000  0.0000000 )    f =(  0.0000000 )
                  (  0.0000000  1.0000000  0.0000000 )       (  0.0000000 )
                  (  0.0000000  0.0000000 -1.0000000 )       (  0.8225806 )


      isym =  4     180 deg rotation - cart. axis [1,0,0]        

 cryst.   s( 4) = (     1          0          0      )
                  (    -1         -1          0      )
                  (     0          0         -1      )

 cart.    s( 4) = (  1.0000000  0.0000000  0.0000000 )
                  (  0.0000000 -1.0000000  0.0000000 )
                  (  0.0000000  0.0000000 -1.0000000 )


      isym =  5      60 deg rotation - cryst. axis [0,0,1]       

 cryst.   s( 5) = (     1          1          0      )    f =(  0.0000000 )
                  (    -1          0          0      )       ( -0.0000000 )
                  (     0          0          1      )       ( -0.5000000 )

 cart.    s( 5) = (  0.5000000 -0.8660254  0.0000000 )    f =(  0.0000000 )
                  (  0.8660254  0.5000000  0.0000000 )       ( -0.0000000 )
                  (  0.0000000  0.0000000  1.0000000 )       ( -0.8225806 )


      isym =  6      60 deg rotation - cryst. axis [0,0,-1]      

 cryst.   s( 6) = (     0         -1          0      )    f =(  0.0000000 )
                  (     1          1          0      )       ( -0.0000000 )
                  (     0          0          1      )       ( -0.5000000 )

 cart.    s( 6) = (  0.5000000  0.8660254  0.0000000 )    f =(  0.0000000 )
                  ( -0.8660254  0.5000000  0.0000000 )       ( -0.0000000 )
                  (  0.0000000  0.0000000  1.0000000 )       ( -0.8225806 )


      isym =  7     120 deg rotation - cryst. axis [0,0,1]       

 cryst.   s( 7) = (     0          1          0      )
                  (    -1         -1          0      )
                  (     0          0          1      )

 cart.    s( 7) = ( -0.5000000 -0.8660254  0.0000000 )
                  (  0.8660254 -0.5000000  0.0000000 )
                  (  0.0000000  0.0000000  1.0000000 )


      isym =  8     120 deg rotation - cryst. axis [0,0,-1]      

 cryst.   s( 8) = (    -1         -1          0      )
                  (     1          0          0      )
                  (     0          0          1      )

 cart.    s( 8) = ( -0.5000000  0.8660254  0.0000000 )
                  ( -0.8660254 -0.5000000  0.0000000 )
                  (  0.0000000  0.0000000  1.0000000 )


      isym =  9     180 deg rotation - cryst. axis [1,-1,0]      

 cryst.   s( 9) = (     0         -1          0      )    f =( -0.0000000 )
                  (    -1          0          0      )       ( -0.0000000 )
                  (     0          0         -1      )       (  0.5000000 )

 cart.    s( 9) = (  0.5000000 -0.8660254  0.0000000 )    f =( -0.0000000 )
                  ( -0.8660254 -0.5000000  0.0000000 )       ( -0.0000000 )
                  (  0.0000000  0.0000000 -1.0000000 )       (  0.8225806 )


      isym = 10     180 deg rotation - cryst. axis [2,1,0]       

 cryst.   s(10) = (     1          1          0      )    f =(  0.0000000 )
                  (     0         -1          0      )       ( -0.0000000 )
                  (     0          0         -1      )       (  0.5000000 )

 cart.    s(10) = (  0.5000000  0.8660254  0.0000000 )    f =(  0.0000000 )
                  (  0.8660254 -0.5000000  0.0000000 )       ( -0.0000000 )
                  (  0.0000000  0.0000000 -1.0000000 )       (  0.8225806 )


      isym = 11     180 deg rotation - cryst. axis [0,1,0]       

 cryst.   s(11) = (    -1         -1          0      )
                  (     0          1          0      )
                  (     0          0         -1      )

 cart.    s(11) = ( -0.5000000 -0.8660254  0.0000000 )
                  ( -0.8660254  0.5000000  0.0000000 )
                  (  0.0000000  0.0000000 -1.0000000 )


      isym = 12     180 deg rotation - cryst. axis [1,1,0]       

 cryst.   s(12) = (     0          1          0      )
                  (     1          0          0      )
                  (     0          0         -1      )

 cart.    s(12) = ( -0.5000000  0.8660254  0.0000000 )
                  (  0.8660254  0.5000000  0.0000000 )
                  (  0.0000000  0.0000000 -1.0000000 )


      isym = 13     inversion                                    

 cryst.   s(13) = (    -1          0          0      )
                  (     0         -1          0      )
                  (     0          0         -1      )

 cart.    s(13) = ( -1.0000000  0.0000000  0.0000000 )
                  (  0.0000000 -1.0000000  0.0000000 )
                  (  0.0000000  0.0000000 -1.0000000 )


      isym = 14     inv. 180 deg rotation - cart. axis [0,0,1]   

 cryst.   s(14) = (     1          0          0      )    f =(  0.0000000 )
                  (     0          1          0      )       (  0.0000000 )
                  (     0          0         -1      )       (  0.5000000 )

 cart.    s(14) = (  1.0000000  0.0000000  0.0000000 )    f =(  0.0000000 )
                  (  0.0000000  1.0000000  0.0000000 )       (  0.0000000 )
                  (  0.0000000  0.0000000 -1.0000000 )       (  0.8225806 )


      isym = 15     inv. 180 deg rotation - cart. axis [0,1,0]   

 cryst.   s(15) = (     1          0          0      )    f =(  0.0000000 )
                  (    -1         -1          0      )       ( -0.0000000 )
                  (     0          0          1      )       ( -0.5000000 )

 cart.    s(15) = (  1.0000000  0.0000000  0.0000000 )    f =(  0.0000000 )
                  (  0.0000000 -1.0000000  0.0000000 )       ( -0.0000000 )
                  (  0.0000000  0.0000000  1.0000000 )       ( -0.8225806 )


      isym = 16     inv. 180 deg rotation - cart. axis [1,0,0]   

 cryst.   s(16) = (    -1          0          0      )
                  (     1          1          0      )
                  (     0          0          1      )

 cart.    s(16) = ( -1.0000000  0.0000000  0.0000000 )
                  (  0.0000000  1.0000000  0.0000000 )
                  (  0.0000000  0.0000000  1.0000000 )


      isym = 17     inv.  60 deg rotation - cryst. axis [0,0,1]  

 cryst.   s(17) = (    -1         -1          0      )    f =(  0.0000000 )
                  (     1          0          0      )       ( -0.0000000 )
                  (     0          0         -1      )       (  0.5000000 )

 cart.    s(17) = ( -0.5000000  0.8660254  0.0000000 )    f =(  0.0000000 )
                  ( -0.8660254 -0.5000000  0.0000000 )       ( -0.0000000 )
                  (  0.0000000  0.0000000 -1.0000000 )       (  0.8225806 )


      isym = 18     inv.  60 deg rotation - cryst. axis [0,0,-1] 

 cryst.   s(18) = (     0          1          0      )    f =( -0.0000000 )
                  (    -1         -1          0      )       ( -0.0000000 )
                  (     0          0         -1      )       (  0.5000000 )

 cart.    s(18) = ( -0.5000000 -0.8660254  0.0000000 )    f =(  0.0000000 )
                  (  0.8660254 -0.5000000  0.0000000 )       ( -0.0000000 )
                  (  0.0000000  0.0000000 -1.0000000 )       (  0.8225806 )


      isym = 19     inv. 120 deg rotation - cryst. axis [0,0,1]  

 cryst.   s(19) = (     0         -1          0      )
                  (     1          1          0      )
                  (     0          0         -1      )

 cart.    s(19) = (  0.5000000  0.8660254  0.0000000 )
                  ( -0.8660254  0.5000000  0.0000000 )
                  (  0.0000000  0.0000000 -1.0000000 )


      isym = 20     inv. 120 deg rotation - cryst. axis [0,0,-1] 

 cryst.   s(20) = (     1          1          0      )
                  (    -1          0          0      )
                  (     0          0         -1      )

 cart.    s(20) = (  0.5000000 -0.8660254  0.0000000 )
                  (  0.8660254  0.5000000  0.0000000 )
                  (  0.0000000  0.0000000 -1.0000000 )


      isym = 21     inv. 180 deg rotation - cryst. axis [1,-1,0] 

 cryst.   s(21) = (     0          1          0      )    f =(  0.0000000 )
                  (     1          0          0      )       ( -0.0000000 )
                  (     0          0          1      )       ( -0.5000000 )

 cart.    s(21) = ( -0.5000000  0.8660254  0.0000000 )    f =(  0.0000000 )
                  (  0.8660254  0.5000000  0.0000000 )       ( -0.0000000 )
                  (  0.0000000  0.0000000  1.0000000 )       ( -0.8225806 )


      isym = 22     inv. 180 deg rotation - cryst. axis [2,1,0]  

 cryst.   s(22) = (    -1         -1          0      )    f =(  0.0000000 )
                  (     0          1          0      )       ( -0.0000000 )
                  (     0          0          1      )       ( -0.5000000 )

 cart.    s(22) = ( -0.5000000 -0.8660254  0.0000000 )    f =(  0.0000000 )
                  ( -0.8660254  0.5000000  0.0000000 )       ( -0.0000000 )
                  (  0.0000000  0.0000000  1.0000000 )       ( -0.8225806 )


      isym = 23     inv. 180 deg rotation - cryst. axis [0,1,0]  

 cryst.   s(23) = (     1          1          0      )
                  (     0         -1          0      )
                  (     0          0          1      )

 cart.    s(23) = (  0.5000000  0.8660254  0.0000000 )
                  (  0.8660254 -0.5000000  0.0000000 )
                  (  0.0000000  0.0000000  1.0000000 )


      isym = 24     inv. 180 deg rotation - cryst. axis [1,1,0]  

 cryst.   s(24) = (     0         -1          0      )
                  (    -1          0          0      )
                  (     0          0          1      )

 cart.    s(24) = (  0.5000000 -0.8660254  0.0000000 )
                  ( -0.8660254 -0.5000000  0.0000000 )
                  (  0.0000000  0.0000000  1.0000000 )


     point group D_6h(6/mmm)
     there are 12 classes
     the character table:

       E     2C6   2C3   C2    3C2'  3C2'' i     2S3   2S6   s_h   3s_d  3s_v 
A_1g   1.00  1.00  1.00  1.00  1.00  1.00  1.00  1.00  1.00  1.00  1.00  1.00
A_2g   1.00  1.00  1.00  1.00 -1.00 -1.00  1.00  1.00  1.00  1.00 -1.00 -1.00
B_1g   1.00 -1.00  1.00 -1.00  1.00 -1.00  1.00 -1.00  1.00 -1.00  1.00 -1.00
B_2g   1.00 -1.00  1.00 -1.00 -1.00  1.00  1.00 -1.00  1.00 -1.00 -1.00  1.00
E_1g   2.00  1.00 -1.00 -2.00  0.00  0.00  2.00  1.00 -1.00 -2.00  0.00  0.00
E_2g   2.00 -1.00 -1.00  2.00  0.00  0.00  2.00 -1.00 -1.00  2.00  0.00  0.00
A_1u   1.00  1.00  1.00  1.00  1.00  1.00 -1.00 -1.00 -1.00 -1.00 -1.00 -1.00
A_2u   1.00  1.00  1.00  1.00 -1.00 -1.00 -1.00 -1.00 -1.00 -1.00  1.00  1.00
B_1u   1.00 -1.00  1.00 -1.00  1.00 -1.00 -1.00  1.00 -1.00  1.00 -1.00  1.00
B_2u   1.00 -1.00  1.00 -1.00 -1.00  1.00 -1.00  1.00 -1.00  1.00  1.00 -1.00
E_1u   2.00  1.00 -1.00 -2.00  0.00  0.00 -2.00 -1.00  1.00  2.00  0.00  0.00
E_2u   2.00 -1.00 -1.00  2.00  0.00  0.00 -2.00  1.00  1.00 -2.00  0.00  0.00

     the symmetry operations in each class and the name of the first element:

     E        1
          identity                                               
     2C6      5    6
           60 deg rotation - cryst. axis [0,0,1]                 
     2C3      7    8
          120 deg rotation - cryst. axis [0,0,1]                 
     C2       2
          180 deg rotation - cart. axis [0,0,1]                  
     3C2'     4   12   11
          180 deg rotation - cart. axis [1,0,0]                  
     3C2''    3    9   10
          180 deg rotation - cart. axis [0,1,0]                  
     i       13
          inversion                                              
     2S3     17   18
          inv.  60 deg rotation - cryst. axis [0,0,1]            
     2S6     19   20
          inv. 120 deg rotation - cryst. axis [0,0,1]            
     s_h     14
          inv. 180 deg rotation - cart. axis [0,0,1]             
     3s_d    16   24   23
          inv. 180 deg rotation - cart. axis [1,0,0]             
     3s_v    15   21   22
          inv. 180 deg rotation - cart. axis [0,1,0]             

   Cartesian axes

     site n.     atom                  positions (alat units)
         1           Co  tau(   1) = (  -0.0000000   0.5773503   0.4112903  )
         2           Co  tau(   2) = (   0.5000000   0.2886751   1.2338710  )

   Crystallographic axes

     site n.     atom                  positions (cryst. coord.)
         1           Co  tau(   1) = (  0.3333333  0.6666667  0.2500000  )
         2           Co  tau(   2) = (  0.6666667  0.3333333  0.7500000  )

     number of k points=    76  Gaussian smearing, width (Ry)=  0.0010
                       cart. coord. in units 2pi/alat
        k(    1) = (   0.0000000   0.0000000   0.0000000), wk =   0.0011574
        k(    2) = (   0.0000000   0.0000000   0.1013072), wk =   0.0023148
        k(    3) = (   0.0000000   0.0000000   0.2026144), wk =   0.0023148
        k(    4) = (   0.0000000   0.0000000  -0.3039216), wk =   0.0011574
        k(    5) = (   0.0000000   0.0962250   0.0000000), wk =   0.0069444
        k(    6) = (   0.0000000   0.0962250   0.1013072), wk =   0.0138889
        k(    7) = (   0.0000000   0.0962250   0.2026144), wk =   0.0138889
        k(    8) = (   0.0000000   0.0962250  -0.3039216), wk =   0.0069444
        k(    9) = (   0.0000000   0.1924501   0.0000000), wk =   0.0069444
        k(   10) = (   0.0000000   0.1924501   0.1013072), wk =   0.0138889
        k(   11) = (   0.0000000   0.1924501   0.2026144), wk =   0.0138889
        k(   12) = (   0.0000000   0.1924501  -0.3039216), wk =   0.0069444
        k(   13) = (   0.0000000   0.2886751   0.0000000), wk =   0.0069444
        k(   14) = (   0.0000000   0.2886751   0.1013072), wk =   0.0138889
        k(   15) = (   0.0000000   0.2886751   0.2026144), wk =   0.0138889
        k(   16) = (   0.0000000   0.2886751  -0.3039216), wk =   0.0069444
        k(   17) = (   0.0000000   0.3849002   0.0000000), wk =   0.0069444
        k(   18) = (   0.0000000   0.3849002   0.1013072), wk =   0.0138889
        k(   19) = (   0.0000000   0.3849002   0.2026144), wk =   0.0138889
        k(   20) = (   0.0000000   0.3849002  -0.3039216), wk =   0.0069444
        k(   21) = (   0.0000000   0.4811252   0.0000000), wk =   0.0069444
        k(   22) = (   0.0000000   0.4811252   0.1013072), wk =   0.0138889
        k(   23) = (   0.0000000   0.4811252   0.2026144), wk =   0.0138889
        k(   24) = (   0.0000000   0.4811252  -0.3039216), wk =   0.0069444
        k(   25) = (   0.0000000  -0.5773503   0.0000000), wk =   0.0034722
        k(   26) = (   0.0000000  -0.5773503   0.1013072), wk =   0.0069444
        k(   27) = (   0.0000000  -0.5773503   0.2026144), wk =   0.0069444
        k(   28) = (   0.0000000  -0.5773503  -0.3039216), wk =   0.0034722
        k(   29) = (   0.0833333   0.1443376   0.0000000), wk =   0.0069444
        k(   30) = (   0.0833333   0.1443376   0.1013072), wk =   0.0138889
        k(   31) = (   0.0833333   0.1443376   0.2026144), wk =   0.0138889
        k(   32) = (   0.0833333   0.1443376  -0.3039216), wk =   0.0069444
        k(   33) = (   0.0833333   0.2405626   0.0000000), wk =   0.0138889
        k(   34) = (   0.0833333   0.2405626   0.1013072), wk =   0.0277778
        k(   35) = (   0.0833333   0.2405626   0.2026144), wk =   0.0277778
        k(   36) = (   0.0833333   0.2405626  -0.3039216), wk =   0.0138889
        k(   37) = (   0.0833333   0.3367877   0.0000000), wk =   0.0138889
        k(   38) = (   0.0833333   0.3367877   0.1013072), wk =   0.0277778
        k(   39) = (   0.0833333   0.3367877   0.2026144), wk =   0.0277778
        k(   40) = (   0.0833333   0.3367877  -0.3039216), wk =   0.0138889
        k(   41) = (   0.0833333   0.4330127   0.0000000), wk =   0.0138889
        k(   42) = (   0.0833333   0.4330127   0.1013072), wk =   0.0277778
        k(   43) = (   0.0833333   0.4330127   0.2026144), wk =   0.0277778
        k(   44) = (   0.0833333   0.4330127  -0.3039216), wk =   0.0138889
        k(   45) = (   0.0833333   0.5292377   0.0000000), wk =   0.0138889
        k(   46) = (   0.0833333   0.5292377   0.1013072), wk =   0.0277778
        k(   47) = (   0.0833333   0.5292377   0.2026144), wk =   0.0277778
        k(   48) = (   0.0833333   0.5292377  -0.3039216), wk =   0.0138889
        k(   49) = (   0.1666667   0.2886751   0.0000000), wk =   0.0069444
        k(   50) = (   0.1666667   0.2886751   0.1013072), wk =   0.0138889
        k(   51) = (   0.1666667   0.2886751   0.2026144), wk =   0.0138889
        k(   52) = (   0.1666667   0.2886751  -0.3039216), wk =   0.0069444
        k(   53) = (   0.1666667   0.3849002   0.0000000), wk =   0.0138889
        k(   54) = (   0.1666667   0.3849002   0.1013072), wk =   0.0277778
        k(   55) = (   0.1666667   0.3849002   0.2026144), wk =   0.0277778
        k(   56) = (   0.1666667   0.3849002  -0.3039216), wk =   0.0138889
        k(   57) = (   0.1666667   0.4811252   0.0000000), wk =   0.0138889
        k(   58) = (   0.1666667   0.4811252   0.1013072), wk =   0.0277778
        k(   59) = (   0.1666667   0.4811252   0.2026144), wk =   0.0277778
        k(   60) = (   0.1666667   0.4811252  -0.3039216), wk =   0.0138889
        k(   61) = (   0.1666667   0.5773503   0.0000000), wk =   0.0069444
        k(   62) = (   0.1666667   0.5773503   0.1013072), wk =   0.0138889
        k(   63) = (   0.1666667   0.5773503   0.2026144), wk =   0.0138889
        k(   64) = (   0.1666667   0.5773503  -0.3039216), wk =   0.0069444
        k(   65) = (   0.2500000   0.4330127   0.0000000), wk =   0.0069444
        k(   66) = (   0.2500000   0.4330127   0.1013072), wk =   0.0138889
        k(   67) = (   0.2500000   0.4330127   0.2026144), wk =   0.0138889
        k(   68) = (   0.2500000   0.4330127  -0.3039216), wk =   0.0069444
        k(   69) = (   0.2500000   0.5292377   0.0000000), wk =   0.0138889
        k(   70) = (   0.2500000   0.5292377   0.1013072), wk =   0.0277778
        k(   71) = (   0.2500000   0.5292377   0.2026144), wk =   0.0277778
        k(   72) = (   0.2500000   0.5292377  -0.3039216), wk =   0.0138889
        k(   73) = (   0.3333333   0.5773503   0.0000000), wk =   0.0023148
        k(   74) = (   0.3333333   0.5773503   0.1013072), wk =   0.0046296
        k(   75) = (   0.3333333   0.5773503   0.2026144), wk =   0.0046296
        k(   76) = (   0.3333333   0.5773503  -0.3039216), wk =   0.0023148

                       cryst. coord.
        k(    1) = (   0.0000000   0.0000000   0.0000000), wk =   0.0011574
        k(    2) = (   0.0000000   0.0000000   0.1666667), wk =   0.0023148
        k(    3) = (   0.0000000   0.0000000   0.3333333), wk =   0.0023148
        k(    4) = (   0.0000000   0.0000000  -0.5000000), wk =   0.0011574
        k(    5) = (   0.0000000   0.0833333   0.0000000), wk =   0.0069444
        k(    6) = (   0.0000000   0.0833333   0.1666667), wk =   0.0138889
        k(    7) = (   0.0000000   0.0833333   0.3333333), wk =   0.0138889
        k(    8) = (   0.0000000   0.0833333  -0.5000000), wk =   0.0069444
        k(    9) = (   0.0000000   0.1666667   0.0000000), wk =   0.0069444
        k(   10) = (   0.0000000   0.1666667   0.1666667), wk =   0.0138889
        k(   11) = (   0.0000000   0.1666667   0.3333333), wk =   0.0138889
        k(   12) = (   0.0000000   0.1666667  -0.5000000), wk =   0.0069444
        k(   13) = (   0.0000000   0.2500000   0.0000000), wk =   0.0069444
        k(   14) = (   0.0000000   0.2500000   0.1666667), wk =   0.0138889
        k(   15) = (   0.0000000   0.2500000   0.3333333), wk =   0.0138889
        k(   16) = (   0.0000000   0.2500000  -0.5000000), wk =   0.0069444
        k(   17) = (   0.0000000   0.3333333   0.0000000), wk =   0.0069444
        k(   18) = (   0.0000000   0.3333333   0.1666667), wk =   0.0138889
        k(   19) = (   0.0000000   0.3333333   0.3333333), wk =   0.0138889
        k(   20) = (   0.0000000   0.3333333  -0.5000000), wk =   0.0069444
        k(   21) = (   0.0000000   0.4166667   0.0000000), wk =   0.0069444
        k(   22) = (   0.0000000   0.4166667   0.1666667), wk =   0.0138889
        k(   23) = (   0.0000000   0.4166667   0.3333333), wk =   0.0138889
        k(   24) = (   0.0000000   0.4166667  -0.5000000), wk =   0.0069444
        k(   25) = (   0.0000000  -0.5000000   0.0000000), wk =   0.0034722
        k(   26) = (   0.0000000  -0.5000000   0.1666667), wk =   0.0069444
        k(   27) = (   0.0000000  -0.5000000   0.3333333), wk =   0.0069444
        k(   28) = (   0.0000000  -0.5000000  -0.5000000), wk =   0.0034722
        k(   29) = (   0.0833333   0.0833333   0.0000000), wk =   0.0069444
        k(   30) = (   0.0833333   0.0833333   0.1666667), wk =   0.0138889
        k(   31) = (   0.0833333   0.0833333   0.3333333), wk =   0.0138889
        k(   32) = (   0.0833333   0.0833333  -0.5000000), wk =   0.0069444
        k(   33) = (   0.0833333   0.1666667   0.0000000), wk =   0.0138889
        k(   34) = (   0.0833333   0.1666667   0.1666667), wk =   0.0277778
        k(   35) = (   0.0833333   0.1666667   0.3333333), wk =   0.0277778
        k(   36) = (   0.0833333   0.1666667  -0.5000000), wk =   0.0138889
        k(   37) = (   0.0833333   0.2500000   0.0000000), wk =   0.0138889
        k(   38) = (   0.0833333   0.2500000   0.1666667), wk =   0.0277778
        k(   39) = (   0.0833333   0.2500000   0.3333333), wk =   0.0277778
        k(   40) = (   0.0833333   0.2500000  -0.5000000), wk =   0.0138889
        k(   41) = (   0.0833333   0.3333333   0.0000000), wk =   0.0138889
        k(   42) = (   0.0833333   0.3333333   0.1666667), wk =   0.0277778
        k(   43) = (   0.0833333   0.3333333   0.3333333), wk =   0.0277778
        k(   44) = (   0.0833333   0.3333333  -0.5000000), wk =   0.0138889
        k(   45) = (   0.0833333   0.4166667   0.0000000), wk =   0.0138889
        k(   46) = (   0.0833333   0.4166667   0.1666667), wk =   0.0277778
        k(   47) = (   0.0833333   0.4166667   0.3333333), wk =   0.0277778
        k(   48) = (   0.0833333   0.4166667  -0.5000000), wk =   0.0138889
        k(   49) = (   0.1666667   0.1666667   0.0000000), wk =   0.0069444
        k(   50) = (   0.1666667   0.1666667   0.1666667), wk =   0.0138889
        k(   51) = (   0.1666667   0.1666667   0.3333333), wk =   0.0138889
        k(   52) = (   0.1666667   0.1666667  -0.5000000), wk =   0.0069444
        k(   53) = (   0.1666667   0.2500000   0.0000000), wk =   0.0138889
        k(   54) = (   0.1666667   0.2500000   0.1666667), wk =   0.0277778
        k(   55) = (   0.1666667   0.2500000   0.3333333), wk =   0.0277778
        k(   56) = (   0.1666667   0.2500000  -0.5000000), wk =   0.0138889
        k(   57) = (   0.1666667   0.3333333   0.0000000), wk =   0.0138889
        k(   58) = (   0.1666667   0.3333333   0.1666667), wk =   0.0277778
        k(   59) = (   0.1666667   0.3333333   0.3333333), wk =   0.0277778
        k(   60) = (   0.1666667   0.3333333  -0.5000000), wk =   0.0138889
        k(   61) = (   0.1666667   0.4166667   0.0000000), wk =   0.0069444
        k(   62) = (   0.1666667   0.4166667   0.1666667), wk =   0.0138889
        k(   63) = (   0.1666667   0.4166667   0.3333333), wk =   0.0138889
        k(   64) = (   0.1666667   0.4166667  -0.5000000), wk =   0.0069444
        k(   65) = (   0.2500000   0.2500000   0.0000000), wk =   0.0069444
        k(   66) = (   0.2500000   0.2500000   0.1666667), wk =   0.0138889
        k(   67) = (   0.2500000   0.2500000   0.3333333), wk =   0.0138889
        k(   68) = (   0.2500000   0.2500000  -0.5000000), wk =   0.0069444
        k(   69) = (   0.2500000   0.3333333   0.0000000), wk =   0.0138889
        k(   70) = (   0.2500000   0.3333333   0.1666667), wk =   0.0277778
        k(   71) = (   0.2500000   0.3333333   0.3333333), wk =   0.0277778
        k(   72) = (   0.2500000   0.3333333  -0.5000000), wk =   0.0138889
        k(   73) = (   0.3333333   0.3333333   0.0000000), wk =   0.0023148
        k(   74) = (   0.3333333   0.3333333   0.1666667), wk =   0.0046296
        k(   75) = (   0.3333333   0.3333333   0.3333333), wk =   0.0046296
        k(   76) = (   0.3333333   0.3333333  -0.5000000), wk =   0.0023148

     Dense  grid:    23645 G-vectors     FFT dimensions: (  32,  32,  54)

     Smooth grid:    22923 G-vectors     FFT dimensions: (  32,  32,  54)

     Dynamical RAM for                 wfc:       0.05 MB

     Dynamical RAM for     wfc (w. buffer):       6.96 MB

     Dynamical RAM for           str. fact:       0.02 MB

     Dynamical RAM for           local pot:       0.00 MB

     Dynamical RAM for          nlocal pot:       0.08 MB

     Dynamical RAM for                qrad:       1.70 MB

     Dynamical RAM for          rho,v,vnew:       0.25 MB

     Dynamical RAM for               rhoin:       0.08 MB

     Dynamical RAM for            rho*nmix:       0.58 MB

     Dynamical RAM for           G-vectors:       0.08 MB

     Dynamical RAM for          h,s,v(r/c):       0.08 MB

     Dynamical RAM for          <psi|beta>:       0.01 MB

     Dynamical RAM for                 psi:       0.09 MB

     Dynamical RAM for                hpsi:       0.09 MB

     Dynamical RAM for                spsi:       0.09 MB

     Dynamical RAM for      wfcinit/wfcrot:       0.10 MB

     Dynamical RAM for           addusdens:       3.42 MB

     Estimated static dynamical RAM per process >       9.35 MB

     Estimated max dynamical RAM per process >      13.34 MB

     Estimated total dynamical RAM >     266.83 MB

     Check: negative core charge=   -0.000043
     Generating pointlists ...
     new r_m :   0.4125 (alat units)  1.9332 (a.u.) for type    1

     The initial density is read from file :
     ./out/Co.save/charge-density


     starting charge      34.0417, renormalised to      34.0000

     negative rho (up, down):  9.290E-02 7.843E-02
     Starting wfcs from file
     Checking if some PAW data can be deallocated... 

     total cpu time spent up to now is        0.6 secs

     Self-consistent Calculation

     iteration #  1     ecut=   110.00 Ry     beta= 0.70
     Davidson diagonalization with overlap

---- Real-time Memory Report at c_bands before calling an iterative solver
            55 MiB given to the printing process from OS
             0 MiB allocation reported by mallinfo(arena+hblkhd)
        351326 MiB available memory on the node where the printing process lives
------------------
     ethr =  1.00E-05,  avg # of iterations = 17.2

     negative rho (up, down):  1.063E-03 4.338E-04

     total cpu time spent up to now is        8.2 secs

     total energy              =    -753.32648776 Ry
     estimated scf accuracy    <       0.04494956 Ry

     total magnetization       =     3.39 Bohr mag/cell
     absolute magnetization    =     3.66 Bohr mag/cell

     iteration #  2     ecut=   110.00 Ry     beta= 0.70
     Davidson diagonalization with overlap

---- Real-time Memory Report at c_bands before calling an iterative solver
            74 MiB given to the printing process from OS
             0 MiB allocation reported by mallinfo(arena+hblkhd)
        351103 MiB available memory on the node where the printing process lives
------------------
     ethr =  1.32E-04,  avg # of iterations =  2.0

     total cpu time spent up to now is        9.6 secs

     total energy              =    -753.44029640 Ry
     estimated scf accuracy    <       0.00895178 Ry

     total magnetization       =     3.35 Bohr mag/cell
     absolute magnetization    =     3.61 Bohr mag/cell

     iteration #  3     ecut=   110.00 Ry     beta= 0.70
     Davidson diagonalization with overlap

---- Real-time Memory Report at c_bands before calling an iterative solver
            76 MiB given to the printing process from OS
             0 MiB allocation reported by mallinfo(arena+hblkhd)
        351087 MiB available memory on the node where the printing process lives
------------------
     ethr =  2.63E-05,  avg # of iterations =  5.5

     total cpu time spent up to now is       12.0 secs

     total energy              =    -753.45155597 Ry
     estimated scf accuracy    <       0.05219426 Ry

     total magnetization       =     3.39 Bohr mag/cell
     absolute magnetization    =     3.69 Bohr mag/cell

     iteration #  4     ecut=   110.00 Ry     beta= 0.70
     Davidson diagonalization with overlap

---- Real-time Memory Report at c_bands before calling an iterative solver
            77 MiB given to the printing process from OS
             0 MiB allocation reported by mallinfo(arena+hblkhd)
        351076 MiB available memory on the node where the printing process lives
------------------
     ethr =  2.63E-05,  avg # of iterations =  4.1

     total cpu time spent up to now is       13.8 secs

     total energy              =    -753.45388484 Ry
     estimated scf accuracy    <       0.00611444 Ry

     total magnetization       =     3.37 Bohr mag/cell
     absolute magnetization    =     3.67 Bohr mag/cell

     iteration #  5     ecut=   110.00 Ry     beta= 0.70
     Davidson diagonalization with overlap

---- Real-time Memory Report at c_bands before calling an iterative solver
            78 MiB given to the printing process from OS
             0 MiB allocation reported by mallinfo(arena+hblkhd)
        351071 MiB available memory on the node where the printing process lives
------------------
     ethr =  1.80E-05,  avg # of iterations =  2.1

     total cpu time spent up to now is       15.1 secs

     total energy              =    -753.45444032 Ry
     estimated scf accuracy    <       0.00067950 Ry

     total magnetization       =     3.36 Bohr mag/cell
     absolute magnetization    =     3.67 Bohr mag/cell

     iteration #  6     ecut=   110.00 Ry     beta= 0.70
     Davidson diagonalization with overlap

---- Real-time Memory Report at c_bands before calling an iterative solver
            79 MiB given to the printing process from OS
             0 MiB allocation reported by mallinfo(arena+hblkhd)
        351060 MiB available memory on the node where the printing process lives
------------------
     ethr =  2.00E-06,  avg # of iterations =  4.2

     total cpu time spent up to now is       17.0 secs

     total energy              =    -753.45486247 Ry
     estimated scf accuracy    <       0.00002518 Ry

     total magnetization       =     3.36 Bohr mag/cell
     absolute magnetization    =     3.67 Bohr mag/cell

     iteration #  7     ecut=   110.00 Ry     beta= 0.70
     Davidson diagonalization with overlap

---- Real-time Memory Report at c_bands before calling an iterative solver
            80 MiB given to the printing process from OS
             0 MiB allocation reported by mallinfo(arena+hblkhd)
        351052 MiB available memory on the node where the printing process lives
------------------
     ethr =  7.41E-08,  avg # of iterations =  6.5

     total cpu time spent up to now is       19.3 secs

     total energy              =    -753.45488264 Ry
     estimated scf accuracy    <       0.00000758 Ry

     total magnetization       =     3.36 Bohr mag/cell
     absolute magnetization    =     3.67 Bohr mag/cell

     iteration #  8     ecut=   110.00 Ry     beta= 0.70
     Davidson diagonalization with overlap

---- Real-time Memory Report at c_bands before calling an iterative solver
            80 MiB given to the printing process from OS
             0 MiB allocation reported by mallinfo(arena+hblkhd)
        351047 MiB available memory on the node where the printing process lives
------------------
     ethr =  2.23E-08,  avg # of iterations =  5.8

     total cpu time spent up to now is       21.6 secs

     total energy              =    -753.45488628 Ry
     estimated scf accuracy    <       0.00003316 Ry

     total magnetization       =     3.36 Bohr mag/cell
     absolute magnetization    =     3.68 Bohr mag/cell

     iteration #  9     ecut=   110.00 Ry     beta= 0.70
     Davidson diagonalization with overlap

---- Real-time Memory Report at c_bands before calling an iterative solver
            81 MiB given to the printing process from OS
             0 MiB allocation reported by mallinfo(arena+hblkhd)
        351042 MiB available memory on the node where the printing process lives
------------------
     ethr =  2.23E-08,  avg # of iterations =  3.1

     total cpu time spent up to now is       23.1 secs

     total energy              =    -753.45488436 Ry
     estimated scf accuracy    <       0.00000741 Ry

     total magnetization       =     3.36 Bohr mag/cell
     absolute magnetization    =     3.68 Bohr mag/cell

     iteration # 10     ecut=   110.00 Ry     beta= 0.70
     Davidson diagonalization with overlap

---- Real-time Memory Report at c_bands before calling an iterative solver
            81 MiB given to the printing process from OS
             0 MiB allocation reported by mallinfo(arena+hblkhd)
        351035 MiB available memory on the node where the printing process lives
------------------
     ethr =  2.18E-08,  avg # of iterations =  4.2

     total cpu time spent up to now is       25.0 secs

     total energy              =    -753.45488656 Ry
     estimated scf accuracy    <       0.00000392 Ry

     total magnetization       =     3.36 Bohr mag/cell
     absolute magnetization    =     3.68 Bohr mag/cell

     iteration # 11     ecut=   110.00 Ry     beta= 0.70
     Davidson diagonalization with overlap

---- Real-time Memory Report at c_bands before calling an iterative solver
            82 MiB given to the printing process from OS
             0 MiB allocation reported by mallinfo(arena+hblkhd)
        351031 MiB available memory on the node where the printing process lives
------------------
     ethr =  1.15E-08,  avg # of iterations =  3.9
 
     Magnetic moment per site  (integrated on atomic sphere of radius R)
     atom   1 (R=0.413)  charge= 15.5918  magn=  1.7534
     atom   2 (R=0.413)  charge= 15.5918  magn=  1.7534

     total cpu time spent up to now is       26.6 secs

     End of self-consistent calculation

 ------ SPIN UP ------------


          k = 0.0000 0.0000 0.0000 (  2839 PWs)   bands (ev):

   -77.4920 -77.4399 -40.8899 -40.5918 -40.5918 -40.5791 -40.5489 -40.5489
     9.6558  13.4406  15.9128  16.0307  16.0307  16.3245  16.3245  16.7181
    16.7181  17.7576  17.7576  18.2225  24.6787

     occupation numbers 
     1.0000   1.0000   1.0000   1.0000   1.0000   1.0000   1.0000   1.0000
     1.0000   1.0000   1.0000   1.0000   1.0000   1.0000   1.0000   1.0000
     1.0000   1.0000   1.0000   1.0000   0.0000

          k = 0.0000 0.0000 0.1013 (  2876 PWs)   bands (ev):

   -77.4885 -77.4434 -40.8694 -40.6002 -40.5889 -40.5889 -40.5518 -40.5518
     9.9260  13.3605  15.8468  15.9764  15.9764  16.2581  16.2581  16.8649
    16.8649  17.3067  17.7388  17.7388  26.1594

     occupation numbers 
     1.0000   1.0000   1.0000   1.0000   1.0000   1.0000   1.0000   1.0000
     1.0000   1.0000   1.0000   1.0000   1.0000   1.0000   1.0000   1.0000
     1.0000   1.0000   1.0000   1.0000   0.0000

          k = 0.0000 0.0000 0.2026 (  2864 PWs)   bands (ev):

   -77.4790 -77.4530 -40.8130 -40.6576 -40.5811 -40.5811 -40.5596 -40.5596
    10.7015  12.8975  15.6950  15.9294  15.9294  16.0523  16.1105  16.1105
    17.1627  17.1627  17.6499  17.6499  29.3025

     occupation numbers 
     1.0000   1.0000   1.0000   1.0000   1.0000   1.0000   1.0000   1.0000
     1.0000   1.0000   1.0000   1.0000   1.0000   1.0000   1.0000   1.0000
     1.0000   1.0000   1.0000   1.0000   0.0000

          k = 0.0000 0.0000-0.3039 (  2846 PWs)   bands (ev):

   -77.4660 -77.4660 -40.7355 -40.7355 -40.5704 -40.5704 -40.5704 -40.5704
    11.8352  11.8352  15.6253  15.6253  15.9780  15.9780  15.9780  15.9780
    17.4518  17.4518  17.4518  17.4518  33.0669

     occupation numbers 
     1.0000   1.0000   1.0000   1.0000   1.0000   1.0000   1.0000   1.0000
     1.0000   1.0000   1.0000   1.0000   1.0000   1.0000   1.0000   1.0000
     1.0000   1.0000   1.0000   1.0000   0.0000

          k = 0.0000 0.0962 0.0000 (  2829 PWs)   bands (ev):

   -77.4887 -77.4382 -40.8829 -40.6082 -40.5970 -40.5817 -40.5658 -40.5518
     9.9002  13.5913  15.7659  16.1444  16.1462  16.2717  16.4277  16.5402
    16.6477  16.9223  17.7855  19.3968  24.7189

     occupation numbers 
     1.0000   1.0000   1.0000   1.0000   1.0000   1.0000   1.0000   1.0000
     1.0000   1.0000   1.0000   1.0000   1.0000   1.0000   1.0000   1.0000
     1.0000   1.0000   1.0000   0.0000   0.0000

          k = 0.0000 0.0962 0.1013 (  2859 PWs)   bands (ev):

   -77.4854 -77.4416 -40.8635 -40.6062 -40.6042 -40.5940 -40.5653 -40.5548
    10.1663  13.5255  15.7648  15.9884  16.0773  16.0934  16.3559  16.5967
    16.8186  16.8739  17.7598  18.6660  26.2700

     occupation numbers 
     1.0000   1.0000   1.0000   1.0000   1.0000   1.0000   1.0000   1.0000
     1.0000   1.0000   1.0000   1.0000   1.0000   1.0000   1.0000   1.0000
     1.0000   1.0000   1.0000   0.0025   0.0000

          k = 0.0000 0.0962 0.2026 (  2866 PWs)   bands (ev):

   -77.4761 -77.4509 -40.8101 -40.6621 -40.5959 -40.5857 -40.5721 -40.5631
    10.9295  13.0895  15.6480  15.6844  15.8463  16.0229  16.2066  16.2298
    17.1358  17.1764  17.6550  17.9407  29.4594

     occupation numbers 
     1.0000   1.0000   1.0000   1.0000   1.0000   1.0000   1.0000   1.0000
     1.0000   1.0000   1.0000   1.0000   1.0000   1.0000   1.0000   1.0000
     1.0000   1.0000   1.0000   1.0000   0.0000

          k = 0.0000 0.0962-0.3039 (  2858 PWs)   bands (ev):

   -77.4635 -77.4635 -40.7366 -40.7366 -40.5837 -40.5837 -40.5744 -40.5744
    12.0450  12.0450  15.4998  15.4998  15.9721  15.9721  16.0724  16.0724
    17.4400  17.4400  17.5399  17.5399  33.2399

     occupation numbers 
     1.0000   1.0000   1.0000   1.0000   1.0000   1.0000   1.0000   1.0000
     1.0000   1.0000   1.0000   1.0000   1.0000   1.0000   1.0000   1.0000
     1.0000   1.0000   1.0000   1.0000   0.0000

          k = 0.0000 0.1925 0.0000 (  2847 PWs)   bands (ev):

   -77.4797 -77.4338 -40.8631 -40.6533 -40.6118 -40.6110 -40.5896 -40.5599
    10.6067  13.9651  15.5138  15.7533  16.0784  16.4438  16.4723  16.4743
    16.6140  16.7173  17.8438  20.9865  24.8617

     occupation numbers 
     1.0000   1.0000   1.0000   1.0000   1.0000   1.0000   1.0000   1.0000
     1.0000   1.0000   1.0000   1.0000   1.0000   1.0000   1.0000   1.0000
     1.0000   1.0000   1.0000   0.0000   0.0000

          k = 0.0000 0.1925 0.1013 (  2846 PWs)   bands (ev):

   -77.4766 -77.4369 -40.8473 -40.6490 -40.6322 -40.6076 -40.5898 -40.5633
    10.8571  13.9431  15.4880  15.5546  15.9602  16.3015  16.3352  16.6103
    16.7892  16.8540  17.8030  19.8825  26.6308

     occupation numbers 
     1.0000   1.0000   1.0000   1.0000   1.0000   1.0000   1.0000   1.0000
     1.0000   1.0000   1.0000   1.0000   1.0000   1.0000   1.0000   1.0000
     1.0000   1.0000   1.0000   0.0000   0.0000

          k = 0.0000 0.1925 0.2026 (  2852 PWs)   bands (ev):

   -77.4683 -77.4453 -40.8038 -40.6820 -40.6339 -40.5992 -40.5982 -40.5727
    11.5720  13.5862  15.1657  15.6123  15.6856  16.1674  16.2527  16.4720
    17.1062  17.2512  17.6657  18.5716  29.9296

     occupation numbers 
     1.0000   1.0000   1.0000   1.0000   1.0000   1.0000   1.0000   1.0000
     1.0000   1.0000   1.0000   1.0000   1.0000   1.0000   1.0000   1.0000
     1.0000   1.0000   1.0000   1.0000   0.0000

          k = 0.0000 0.1925-0.3039 (  2860 PWs)   bands (ev):

   -77.4568 -77.4568 -40.7436 -40.7436 -40.6160 -40.6160 -40.5855 -40.5855
    12.6104  12.6104  15.2855  15.2855  15.9003  15.9003  16.3238  16.3238
    17.4227  17.4227  17.7781  17.7781  33.7208

     occupation numbers 
     1.0000   1.0000   1.0000   1.0000   1.0000   1.0000   1.0000   1.0000
     1.0000   1.0000   1.0000   1.0000   1.0000   1.0000   1.0000   1.0000
     1.0000   1.0000   1.0000   1.0000   0.0000

          k = 0.0000 0.2887 0.0000 (  2838 PWs)   bands (ev):

   -77.4669 -77.4282 -40.8335 -40.7154 -40.6736 -40.6295 -40.6029 -40.5715
    11.6750  14.2636  15.0332  15.3643  15.9670  16.2655  16.4029  16.8812
    16.9454  17.1333  17.8969  22.7737  25.1450

     occupation numbers 
     1.0000   1.0000   1.0000   1.0000   1.0000   1.0000   1.0000   1.0000
     1.0000   1.0000   1.0000   1.0000   1.0000   1.0000   1.0000   1.0000
     1.0000   1.0000   1.0000   0.0000   0.0000

          k = 0.0000 0.2887 0.1013 (  2842 PWs)   bands (ev):

   -77.4643 -77.4308 -40.8259 -40.7069 -40.6868 -40.6257 -40.6059 -40.5754
    11.8829  14.2942  14.8971  15.4155  15.8234  16.3046  16.3990  16.9833
    17.0091  17.0934  17.8438  21.1506  27.2849

     occupation numbers 
     1.0000   1.0000   1.0000   1.0000   1.0000   1.0000   1.0000   1.0000
     1.0000   1.0000   1.0000   1.0000   1.0000   1.0000   1.0000   1.0000
     1.0000   1.0000   1.0000   0.0000   0.0000

          k = 0.0000 0.2887 0.2026 (  2864 PWs)   bands (ev):

   -77.4573 -77.4379 -40.8032 -40.7269 -40.6763 -40.6195 -40.6151 -40.5860
    12.4625  14.0259  14.8429  15.4235  15.7194  16.2453  16.4254  16.8434
    17.2327  17.4009  17.6916  19.3326  30.6141

     occupation numbers 
     1.0000   1.0000   1.0000   1.0000   1.0000   1.0000   1.0000   1.0000
     1.0000   1.0000   1.0000   1.0000   1.0000   1.0000   1.0000   1.0000
     1.0000   1.0000   1.0000   0.0000   0.0000

          k = 0.0000 0.2887-0.3039 (  2866 PWs)   bands (ev):

   -77.4476 -77.4476 -40.7677 -40.7677 -40.6453 -40.6453 -40.6006 -40.6006
    13.2674  13.2674  15.1305  15.1305  15.9634  15.9634  16.6196  16.6196
    17.4690  17.4690  18.1153  18.1153  33.0563

     occupation numbers 
     1.0000   1.0000   1.0000   1.0000   1.0000   1.0000   1.0000   1.0000
     1.0000   1.0000   1.0000   1.0000   1.0000   1.0000   1.0000   1.0000
     1.0000   1.0000   1.0000   1.0000   0.0000

          k = 0.0000 0.3849 0.0000 (  2868 PWs)   bands (ev):

   -77.4533 -77.4234 -40.7989 -40.7779 -40.7343 -40.6477 -40.6211 -40.5834
    12.8382  14.1914  14.5191  15.4810  16.0772  16.0921  16.2066  17.4509
    17.5832  17.5879  17.9314  24.7233  25.2929

     occupation numbers 
     1.0000   1.0000   1.0000   1.0000   1.0000   1.0000   1.0000   1.0000
     1.0000   1.0000   1.0000   1.0000   1.0000   1.0000   1.0000   1.0000
     1.0000   1.0000   1.0000   0.0000   0.0000

          k = 0.0000 0.3849 0.1013 (  2859 PWs)   bands (ev):

   -77.4513 -77.4254 -40.8170 -40.7562 -40.7373 -40.6434 -40.6218 -40.5877
    12.9325  14.2079  14.5618  15.3164  16.0373  16.1670  16.5584  17.4598
    17.4964  17.5246  17.8887  22.3914  27.5697

     occupation numbers 
     1.0000   1.0000   1.0000   1.0000   1.0000   1.0000   1.0000   1.0000
     1.0000   1.0000   1.0000   1.0000   1.0000   1.0000   1.0000   1.0000
     1.0000   1.0000   1.0000   0.0000   0.0000

          k = 0.0000 0.3849 0.2026 (  2851 PWs)   bands (ev):

   -77.4458 -77.4309 -40.8233 -40.7814 -40.6965 -40.6317 -40.6312 -40.5995
    13.1996  14.0138  14.7129  15.2021  16.1644  16.4202  16.8868  17.1758
    17.5636  17.6302  17.7914  20.2196  28.7743

     occupation numbers 
     1.0000   1.0000   1.0000   1.0000   1.0000   1.0000   1.0000   1.0000
     1.0000   1.0000   1.0000   1.0000   1.0000   1.0000   1.0000   1.0000
     1.0000   1.0000   1.0000   0.0000   0.0000

          k = 0.0000 0.3849-0.3039 (  2864 PWs)   bands (ev):

   -77.4384 -77.4384 -40.8094 -40.8094 -40.6568 -40.6568 -40.6156 -40.6156
    13.5936  13.5936  14.9899  14.9899  16.5780  16.5780  16.7860  16.7860
    17.6746  17.6746  18.5957  18.5957  29.8678

     occupation numbers 
     1.0000   1.0000   1.0000   1.0000   1.0000   1.0000   1.0000   1.0000
     1.0000   1.0000   1.0000   1.0000   1.0000   1.0000   1.0000   1.0000
     1.0000   1.0000   1.0000   1.0000   0.0000

          k = 0.0000 0.4811 0.0000 (  2868 PWs)   bands (ev):

   -77.4422 -77.4210 -40.8239 -40.7781 -40.7671 -40.6608 -40.6410 -40.5923
    13.5961  13.9997  14.2139  15.8429  15.9485  16.0667  16.3059  17.8306
    17.9487  17.9540  18.7262  23.6364  26.7402

     occupation numbers 
     1.0000   1.0000   1.0000   1.0000   1.0000   1.0000   1.0000   1.0000
     1.0000   1.0000   1.0000   1.0000   1.0000   1.0000   1.0000   1.0000
     1.0000   1.0000   0.0000   0.0000   0.0000

          k = 0.0000 0.4811 0.1013 (  2857 PWs)   bands (ev):

   -77.4408 -77.4224 -40.8401 -40.7936 -40.7382 -40.6562 -40.6381 -40.5969
    13.4847  13.9853  14.5248  15.2036  16.0574  16.3191  16.9260  17.7243
    17.8548  18.0014  18.5677  22.8046  26.1785

     occupation numbers 
     1.0000   1.0000   1.0000   1.0000   1.0000   1.0000   1.0000   1.0000
     1.0000   1.0000   1.0000   1.0000   1.0000   1.0000   1.0000   1.0000
     1.0000   1.0000   1.0000   0.0000   0.0000

          k = 0.0000 0.4811 0.2026 (  2863 PWs)   bands (ev):

   -77.4369 -77.4263 -40.8532 -40.8227 -40.6940 -40.6437 -40.6400 -40.6095
    13.4475  13.9073  14.6953  14.9964  16.3662  16.5921  17.3165  17.8842
    17.8880  17.9813  18.2542  21.0808  26.3645

     occupation numbers 
     1.0000   1.0000   1.0000   1.0000   1.0000   1.0000   1.0000   1.0000
     1.0000   1.0000   1.0000   1.0000   1.0000   1.0000   1.0000   1.0000
     1.0000   1.0000   1.0000   0.0000   0.0000

          k = 0.0000 0.4811-0.3039 (  2854 PWs)   bands (ev):

   -77.4316 -77.4316 -40.8465 -40.8465 -40.6584 -40.6584 -40.6266 -40.6266
    13.6243  13.6243  14.8619  14.8619  16.8188  16.8188  17.3006  17.3006
    17.9362  17.9362  19.4467  19.4467  27.1327

     occupation numbers 
     1.0000   1.0000   1.0000   1.0000   1.0000   1.0000   1.0000   1.0000
     1.0000   1.0000   1.0000   1.0000   1.0000   1.0000   1.0000   1.0000
     1.0000   1.0000   0.0000   0.0000   0.0000

          k = 0.0000-0.5774 0.0000 (  2866 PWs)   bands (ev):

   -77.4376 -77.4206 -40.8408 -40.7941 -40.7523 -40.6655 -40.6514 -40.5956
    13.8470  13.8610  14.1130  15.9029  16.0160  16.1004  16.3777  17.9537
    17.9682  18.1038  19.9009  21.9260  28.0526

     occupation numbers 
     1.0000   1.0000   1.0000   1.0000   1.0000   1.0000   1.0000   1.0000
     1.0000   1.0000   1.0000   1.0000   1.0000   1.0000   1.0000   1.0000
     1.0000   1.0000   0.0000   0.0000   0.0000

          k = 0.0000-0.5774 0.1013 (  2852 PWs)   bands (ev):

   -77.4365 -77.4217 -40.8536 -40.8087 -40.7295 -40.6609 -40.6466 -40.6003
    13.5813  13.8915  14.5549  15.1749  16.0173  16.4029  17.1337  17.7675
    17.9979  18.0966  19.6899  21.7414  27.2376

     occupation numbers 
     1.0000   1.0000   1.0000   1.0000   1.0000   1.0000   1.0000   1.0000
     1.0000   1.0000   1.0000   1.0000   1.0000   1.0000   1.0000   1.0000
     1.0000   1.0000   0.0000   0.0000   0.0000

          k = 0.0000-0.5774 0.2026 (  2872 PWs)   bands (ev):

   -77.4334 -77.4249 -40.8662 -40.8379 -40.6897 -40.6481 -40.6442 -40.6131
    13.4665  13.8648  14.7244  14.8992  16.3420  16.7313  17.3431  18.0039
    18.0212  18.0768  19.3623  21.1270  26.2237

     occupation numbers 
     1.0000   1.0000   1.0000   1.0000   1.0000   1.0000   1.0000   1.0000
     1.0000   1.0000   1.0000   1.0000   1.0000   1.0000   1.0000   1.0000
     1.0000   1.0000   0.0000   0.0000   0.0000

          k = 0.0000-0.5774-0.3039 (  2880 PWs)   bands (ev):

   -77.4291 -77.4291 -40.8609 -40.8609 -40.6582 -40.6582 -40.6306 -40.6306
    13.6086  13.6086  14.8127  14.8127  16.8188  16.8188  17.5352  17.5352
    18.0494  18.0494  20.1208  20.1208  25.8603

     occupation numbers 
     1.0000   1.0000   1.0000   1.0000   1.0000   1.0000   1.0000   1.0000
     1.0000   1.0000   1.0000   1.0000   1.0000   1.0000   1.0000   1.0000
     1.0000   1.0000   0.0000   0.0000   0.0000

          k = 0.0833 0.1443 0.0000 (  2843 PWs)   bands (ev):

   -77.4826 -77.4352 -40.8695 -40.6363 -40.6145 -40.5900 -40.5869 -40.5594
    10.3765  13.8597  15.5676  16.0002  16.1615  16.2866  16.3819  16.4334
    16.6532  16.7482  17.8175  20.5422  24.8124

     occupation numbers 
     1.0000   1.0000   1.0000   1.0000   1.0000   1.0000   1.0000   1.0000
     1.0000   1.0000   1.0000   1.0000   1.0000   1.0000   1.0000   1.0000
     1.0000   1.0000   1.0000   0.0000   0.0000

          k = 0.0833 0.1443 0.1013 (  2852 PWs)   bands (ev):

   -77.4794 -77.4384 -40.8524 -40.6321 -40.6243 -40.6047 -40.5809 -40.5626
    10.6329  13.8235  15.5965  15.6745  16.0078  16.2408  16.3208  16.5247
    16.7966  16.8640  17.7842  19.5524  26.5077

     occupation numbers 
     1.0000   1.0000   1.0000   1.0000   1.0000   1.0000   1.0000   1.0000
     1.0000   1.0000   1.0000   1.0000   1.0000   1.0000   1.0000   1.0000
     1.0000   1.0000   1.0000   0.0000   0.0000

          k = 0.0833 0.1443 0.2026 (  2861 PWs)   bands (ev):

   -77.4708 -77.4471 -40.8054 -40.6742 -40.6206 -40.6006 -40.5857 -40.5714
    11.3666  13.4405  15.2862  15.6527  15.7025  16.1537  16.2111  16.3911
    17.1352  17.2020  17.6643  18.3889  29.7755

     occupation numbers 
     1.0000   1.0000   1.0000   1.0000   1.0000   1.0000   1.0000   1.0000
     1.0000   1.0000   1.0000   1.0000   1.0000   1.0000   1.0000   1.0000
     1.0000   1.0000   1.0000   1.0000   0.0000

          k = 0.0833 0.1443-0.3039 (  2850 PWs)   bands (ev):

   -77.4589 -77.4589 -40.7405 -40.7405 -40.6061 -40.6061 -40.5825 -40.5825
    12.4363  12.4363  15.3415  15.3415  15.9032  15.9032  16.2573  16.2573
    17.4279  17.4279  17.7040  17.7040  33.5748

     occupation numbers 
     1.0000   1.0000   1.0000   1.0000   1.0000   1.0000   1.0000   1.0000
     1.0000   1.0000   1.0000   1.0000   1.0000   1.0000   1.0000   1.0000
     1.0000   1.0000   1.0000   1.0000   0.0000

          k = 0.0833 0.2406 0.0000 (  2840 PWs)   bands (ev):

   -77.4717 -77.4302 -40.8448 -40.6861 -40.6588 -40.6165 -40.5976 -40.5724
    11.2728  14.2439  15.2955  15.3061  16.0225  16.2012  16.5483  16.6006
    16.8118  17.0774  17.8551  22.1295  25.0459

     occupation numbers 
     1.0000   1.0000   1.0000   1.0000   1.0000   1.0000   1.0000   1.0000
     1.0000   1.0000   1.0000   1.0000   1.0000   1.0000   1.0000   1.0000
     1.0000   1.0000   1.0000   0.0000   0.0000

          k = 0.0833 0.2406 0.1013 (  2837 PWs)   bands (ev):

   -77.4689 -77.4330 -40.8332 -40.6803 -40.6686 -40.6215 -40.5969 -40.5758
    11.5021  14.2661  15.0919  15.3563  15.9131  16.1834  16.4298  16.7129
    16.9909  17.0525  17.8179  20.7144  27.0358

     occupation numbers 
     1.0000   1.0000   1.0000   1.0000   1.0000   1.0000   1.0000   1.0000
     1.0000   1.0000   1.0000   1.0000   1.0000   1.0000   1.0000   1.0000
     1.0000   1.0000   1.0000   0.0000   0.0000

          k = 0.0833 0.2406 0.2026 (  2853 PWs)   bands (ev):

   -77.4613 -77.4406 -40.8010 -40.7073 -40.6589 -40.6231 -40.6013 -40.5852
    12.1505  13.9651  14.9262  15.4633  15.6437  16.0639  16.4003  16.7148
    17.2247  17.3223  17.7005  19.0688  30.3972

     occupation numbers 
     1.0000   1.0000   1.0000   1.0000   1.0000   1.0000   1.0000   1.0000
     1.0000   1.0000   1.0000   1.0000   1.0000   1.0000   1.0000   1.0000
     1.0000   1.0000   1.0000   0.0000   0.0000

          k = 0.0833 0.2406-0.3039 (  2850 PWs)   bands (ev):

   -77.4510 -77.4510 -40.7554 -40.7554 -40.6364 -40.6364 -40.5969 -40.5969
    13.0770  13.0770  15.1928  15.1928  15.7929  15.7929  16.5418  16.5418
    17.4734  17.4734  17.9949  17.9949  34.0597

     occupation numbers 
     1.0000   1.0000   1.0000   1.0000   1.0000   1.0000   1.0000   1.0000
     1.0000   1.0000   1.0000   1.0000   1.0000   1.0000   1.0000   1.0000
     1.0000   1.0000   1.0000   1.0000   0.0000

          k = 0.0833 0.3368 0.0000 (  2846 PWs)   bands (ev):

   -77.4584 -77.4250 -40.8124 -40.7468 -40.7124 -40.6417 -40.6136 -40.5865
    12.4267  14.3656  14.7322  15.2504  16.0086  16.0190  16.3919  16.9713
    17.3214  17.6525  17.8855  23.9603  25.4196

     occupation numbers 
     1.0000   1.0000   1.0000   1.0000   1.0000   1.0000   1.0000   1.0000
     1.0000   1.0000   1.0000   1.0000   1.0000   1.0000   1.0000   1.0000
     1.0000   1.0000   1.0000   0.0000   0.0000

          k = 0.0833 0.3368 0.1013 (  2852 PWs)   bands (ev):

   -77.4562 -77.4273 -40.8147 -40.7358 -40.7177 -40.6420 -40.6134 -40.5898
    12.5855  14.4163  14.6494  15.2929  15.8255  16.2340  16.3595  17.0072
    17.4023  17.5068  17.9063  21.9720  27.8149

     occupation numbers 
     1.0000   1.0000   1.0000   1.0000   1.0000   1.0000   1.0000   1.0000
     1.0000   1.0000   1.0000   1.0000   1.0000   1.0000   1.0000   1.0000
     1.0000   1.0000   1.0000   0.0000   0.0000

          k = 0.0833 0.3368 0.2026 (  2853 PWs)   bands (ev):

   -77.4501 -77.4334 -40.8093 -40.7575 -40.6895 -40.6400 -40.6181 -40.5994
    13.0160  14.1499  14.7761  15.3391  15.7559  16.2308  16.4545  17.0347
    17.4459  17.6142  17.8837  19.9196  30.3889

     occupation numbers 
     1.0000   1.0000   1.0000   1.0000   1.0000   1.0000   1.0000   1.0000
     1.0000   1.0000   1.0000   1.0000   1.0000   1.0000   1.0000   1.0000
     1.0000   1.0000   1.0000   0.0000   0.0000

          k = 0.0833 0.3368-0.3039 (  2862 PWs)   bands (ev):

   -77.4417 -77.4417 -40.7884 -40.7884 -40.6559 -40.6559 -40.6126 -40.6126
    13.5928  13.5928  15.1023  15.1023  15.9795  15.9795  16.7260  16.7260
    17.6874  17.6874  18.4523  18.4523  31.5891

     occupation numbers 
     1.0000   1.0000   1.0000   1.0000   1.0000   1.0000   1.0000   1.0000
     1.0000   1.0000   1.0000   1.0000   1.0000   1.0000   1.0000   1.0000
     1.0000   1.0000   1.0000   1.0000   0.0000

          k = 0.0833 0.4330 0.0000 (  2870 PWs)   bands (ev):

   -77.4459 -77.4216 -40.8005 -40.7783 -40.7588 -40.6620 -40.6336 -40.5986
    13.4376  14.1846  14.3545  15.4854  15.8901  16.1775  16.2171  17.5074
    17.7538  17.9030  18.4572  24.9222  25.9524

     occupation numbers 
     1.0000   1.0000   1.0000   1.0000   1.0000   1.0000   1.0000   1.0000
     1.0000   1.0000   1.0000   1.0000   1.0000   1.0000   1.0000   1.0000
     1.0000   1.0000   1.0000   0.0000   0.0000

          k = 0.0833 0.4330 0.1013 (  2856 PWs)   bands (ev):

   -77.4443 -77.4232 -40.8228 -40.7764 -40.7398 -40.6595 -40.6314 -40.6018
    13.4259  14.1928  14.5141  15.2199  15.9674  16.2762  16.5199  17.4588
    17.7325  17.8103  18.4528  23.0768  26.7614

     occupation numbers 
     1.0000   1.0000   1.0000   1.0000   1.0000   1.0000   1.0000   1.0000
     1.0000   1.0000   1.0000   1.0000   1.0000   1.0000   1.0000   1.0000
     1.0000   1.0000   1.0000   0.0000   0.0000

          k = 0.0833 0.4330 0.2026 (  2861 PWs)   bands (ev):

   -77.4398 -77.4276 -40.8354 -40.8034 -40.6971 -40.6518 -40.6335 -40.6105
    13.4992  14.0557  14.7043  15.1560  16.0739  16.5014  16.9255  17.2098
    17.6245  17.9521  18.5131  20.9552  27.4941

     occupation numbers 
     1.0000   1.0000   1.0000   1.0000   1.0000   1.0000   1.0000   1.0000
     1.0000   1.0000   1.0000   1.0000   1.0000   1.0000   1.0000   1.0000
     1.0000   1.0000   1.0000   0.0000   0.0000

          k = 0.0833 0.4330-0.3039 (  2852 PWs)   bands (ev):

   -77.4337 -77.4337 -40.8274 -40.8274 -40.6637 -40.6637 -40.6247 -40.6247
    13.7334  13.7334  14.9749  14.9749  16.5045  16.5045  16.8936  16.8936
    17.8995  17.8995  19.3156  19.3156  28.5133

     occupation numbers 
     1.0000   1.0000   1.0000   1.0000   1.0000   1.0000   1.0000   1.0000
     1.0000   1.0000   1.0000   1.0000   1.0000   1.0000   1.0000   1.0000
     1.0000   1.0000   0.0000   0.0000   0.0000

          k = 0.0833 0.5292 0.0000 (  2859 PWs)   bands (ev):

   -77.4377 -77.4206 -40.8316 -40.7856 -40.7525 -40.6734 -40.6512 -40.6056
    13.8814  14.0201  14.1666  15.8580  15.8582  16.0222  16.3760  17.8982
    17.9099  17.9781  19.7431  22.7016  27.8593

     occupation numbers 
     1.0000   1.0000   1.0000   1.0000   1.0000   1.0000   1.0000   1.0000
     1.0000   1.0000   1.0000   1.0000   1.0000   1.0000   1.0000   1.0000
     1.0000   1.0000   0.0000   0.0000   0.0000

          k = 0.0833 0.5292 0.1013 (  2857 PWs)   bands (ev):

   -77.4365 -77.4217 -40.8446 -40.8007 -40.7305 -40.6679 -40.6472 -40.6088
    13.6645  14.0243  14.5945  15.1609  15.9026  16.4529  16.8012  17.7103
    17.9090  18.0052  19.6746  22.4233  26.6663

     occupation numbers 
     1.0000   1.0000   1.0000   1.0000   1.0000   1.0000   1.0000   1.0000
     1.0000   1.0000   1.0000   1.0000   1.0000   1.0000   1.0000   1.0000
     1.0000   1.0000   0.0000   0.0000   0.0000

          k = 0.0833 0.5292 0.2026 (  2859 PWs)   bands (ev):

   -77.4334 -77.4248 -40.8574 -40.8298 -40.6949 -40.6542 -40.6465 -40.6167
    13.5714  13.9925  14.7335  15.0106  16.0713  16.7987  17.1845  17.4680
    17.8700  18.0615  19.7099  21.5447  26.0010

     occupation numbers 
     1.0000   1.0000   1.0000   1.0000   1.0000   1.0000   1.0000   1.0000
     1.0000   1.0000   1.0000   1.0000   1.0000   1.0000   1.0000   1.0000
     1.0000   1.0000   0.0000   0.0000   0.0000

          k = 0.0833 0.5292-0.3039 (  2864 PWs)   bands (ev):

   -77.4291 -77.4291 -40.8523 -40.8523 -40.6670 -40.6670 -40.6304 -40.6304
    13.7228  13.7228  14.8876  14.8876  16.6022  16.6022  17.3287  17.3287
    17.9410  17.9410  20.4274  20.4274  26.2839

     occupation numbers 
     1.0000   1.0000   1.0000   1.0000   1.0000   1.0000   1.0000   1.0000
     1.0000   1.0000   1.0000   1.0000   1.0000   1.0000   1.0000   1.0000
     1.0000   1.0000   0.0000   0.0000   0.0000

          k = 0.1667 0.2887 0.0000 (  2840 PWs)   bands (ev):

   -77.4603 -77.4257 -40.8171 -40.7229 -40.7142 -40.6352 -40.6111 -40.5946
    12.2817  14.5571  14.8458  15.0131  15.9304  16.0266  16.4977  16.7148
    17.3077  17.6784  17.8435  23.7032  25.4484

     occupation numbers 
     1.0000   1.0000   1.0000   1.0000   1.0000   1.0000   1.0000   1.0000
     1.0000   1.0000   1.0000   1.0000   1.0000   1.0000   1.0000   1.0000
     1.0000   1.0000   1.0000   0.0000   0.0000

          k = 0.1667 0.2887 0.1013 (  2844 PWs)   bands (ev):

   -77.4579 -77.4280 -40.8150 -40.7220 -40.7098 -40.6438 -40.6064 -40.5982
    12.4623  14.6475  14.7018  15.0651  15.8822  16.0357  16.3931  16.8211
    17.4175  17.4940  17.9212  21.8351  27.7834

     occupation numbers 
     1.0000   1.0000   1.0000   1.0000   1.0000   1.0000   1.0000   1.0000
     1.0000   1.0000   1.0000   1.0000   1.0000   1.0000   1.0000   1.0000
     1.0000   1.0000   1.0000   0.0000   0.0000

          k = 0.1667 0.2887 0.2026 (  2850 PWs)   bands (ev):

   -77.4516 -77.4343 -40.8035 -40.7470 -40.6808 -40.6491 -40.6082 -40.6070
    12.9575  14.2686  14.8941  15.2130  15.6901  15.9061  16.4019  16.9715
    17.4446  17.6070  17.9594  19.8447  31.1195

     occupation numbers 
     1.0000   1.0000   1.0000   1.0000   1.0000   1.0000   1.0000   1.0000
     1.0000   1.0000   1.0000   1.0000   1.0000   1.0000   1.0000   1.0000
     1.0000   1.0000   1.0000   0.0000   0.0000

          k = 0.1667 0.2887-0.3039 (  2864 PWs)   bands (ev):

   -77.4430 -77.4430 -40.7789 -40.7789 -40.6557 -40.6557 -40.6133 -40.6133
    13.6271  13.6271  15.2023  15.2023  15.6380  15.6380  16.6735  16.6735
    17.7358  17.7358  18.4349  18.4349  33.3168

     occupation numbers 
     1.0000   1.0000   1.0000   1.0000   1.0000   1.0000   1.0000   1.0000
     1.0000   1.0000   1.0000   1.0000   1.0000   1.0000   1.0000   1.0000
     1.0000   1.0000   1.0000   1.0000   0.0000

          k = 0.1667 0.3849 0.0000 (  2860 PWs)   bands (ev):

   -77.4480 -77.4220 -40.7843 -40.7703 -40.7500 -40.6633 -40.6297 -40.6162
    13.3865  14.4994  14.5331  15.0001  15.7662  16.1672  16.2939  17.0378
    17.7477  17.8298  18.4976  25.5589  25.9120

     occupation numbers 
     1.0000   1.0000   1.0000   1.0000   1.0000   1.0000   1.0000   1.0000
     1.0000   1.0000   1.0000   1.0000   1.0000   1.0000   1.0000   1.0000
     1.0000   1.0000   1.0000   0.0000   0.0000

          k = 0.1667 0.3849 0.1013 (  2855 PWs)   bands (ev):

   -77.4462 -77.4237 -40.8058 -40.7669 -40.7291 -40.6700 -40.6261 -40.6160
    13.4586  14.4345  14.6244  15.0764  15.8055  16.1661  16.2548  17.0826
    17.6323  17.8310  18.5720  23.1373  28.1833

     occupation numbers 
     1.0000   1.0000   1.0000   1.0000   1.0000   1.0000   1.0000   1.0000
     1.0000   1.0000   1.0000   1.0000   1.0000   1.0000   1.0000   1.0000
     1.0000   1.0000   1.0000   0.0000   0.0000

          k = 0.1667 0.3849 0.2026 (  2853 PWs)   bands (ev):

   -77.4415 -77.4285 -40.8168 -40.7869 -40.6932 -40.6710 -40.6304 -40.6156
    13.6579  14.2333  14.8602  15.2877  15.7209  16.0204  16.3979  17.0760
    17.5509  17.9723  18.7441  20.9712  29.2202

     occupation numbers 
     1.0000   1.0000   1.0000   1.0000   1.0000   1.0000   1.0000   1.0000
     1.0000   1.0000   1.0000   1.0000   1.0000   1.0000   1.0000   1.0000
     1.0000   1.0000   0.0000   0.0000   0.0000

          k = 0.1667 0.3849-0.3039 (  2858 PWs)   bands (ev):

   -77.4350 -77.4350 -40.8085 -40.8085 -40.6729 -40.6729 -40.6255 -40.6255
    13.9405  13.9405  15.1848  15.1848  15.8114  15.8114  16.6733  16.6733
    17.9464  17.9464  19.4125  19.4125  30.3431

     occupation numbers 
     1.0000   1.0000   1.0000   1.0000   1.0000   1.0000   1.0000   1.0000
     1.0000   1.0000   1.0000   1.0000   1.0000   1.0000   1.0000   1.0000
     1.0000   1.0000   0.0000   0.0000   0.0000

          k = 0.1667 0.4811 0.0000 (  2866 PWs)   bands (ev):

   -77.4377 -77.4205 -40.8078 -40.7690 -40.7528 -40.6891 -40.6508 -40.6310
    14.0780  14.2883  14.3268  15.3190  15.7259  16.0661  16.3714  17.4689
    17.8195  17.9555  19.6881  24.3739  27.5737

     occupation numbers 
     1.0000   1.0000   1.0000   1.0000   1.0000   1.0000   1.0000   1.0000
     1.0000   1.0000   1.0000   1.0000   1.0000   1.0000   1.0000   1.0000
     1.0000   1.0000   0.0000   0.0000   0.0000

          k = 0.1667 0.4811 0.1013 (  2863 PWs)   bands (ev):

   -77.4366 -77.4217 -40.8214 -40.7866 -40.7296 -40.6863 -40.6490 -40.6276
    13.9099  14.3764  14.5635  15.1152  15.7764  16.2122  16.4619  17.4572
    17.6378  18.0128  19.7648  23.7640  26.5176

     occupation numbers 
     1.0000   1.0000   1.0000   1.0000   1.0000   1.0000   1.0000   1.0000
     1.0000   1.0000   1.0000   1.0000   1.0000   1.0000   1.0000   1.0000
     1.0000   1.0000   0.0000   0.0000   0.0000

          k = 0.1667 0.4811 0.2026 (  2854 PWs)   bands (ev):

   -77.4334 -77.4248 -40.8356 -40.8125 -40.7066 -40.6757 -40.6475 -40.6223
    13.8620  14.2891  14.7562  15.2734  15.6778  16.3512  16.7006  17.1531
    17.6466  18.0820  20.0627  22.2246  26.6491

     occupation numbers 
     1.0000   1.0000   1.0000   1.0000   1.0000   1.0000   1.0000   1.0000
     1.0000   1.0000   1.0000   1.0000   1.0000   1.0000   1.0000   1.0000
     1.0000   1.0000   0.0000   0.0000   0.0000

          k = 0.1667 0.4811-0.3039 (  2850 PWs)   bands (ev):

   -77.4291 -77.4291 -40.8324 -40.8324 -40.6875 -40.6875 -40.6302 -40.6302
    14.0115  14.0115  15.0788  15.0788  16.0781  16.0781  16.8583  16.8583
    17.9507  17.9507  20.8457  20.8457  27.5146

     occupation numbers 
     1.0000   1.0000   1.0000   1.0000   1.0000   1.0000   1.0000   1.0000
     1.0000   1.0000   1.0000   1.0000   1.0000   1.0000   1.0000   1.0000
     1.0000   1.0000   0.0000   0.0000   0.0000

          k = 0.1667 0.5774 0.0000 (  2854 PWs)   bands (ev):

   -77.4332 -77.4207 -40.8213 -40.7751 -40.7369 -40.6996 -40.6629 -40.6362
    14.2180  14.2257  14.2480  15.5449  15.7601  15.9341  16.4590  17.7633
    17.8155  17.9197  20.9623  22.5396  29.0327

     occupation numbers 
     1.0000   1.0000   1.0000   1.0000   1.0000   1.0000   1.0000   1.0000
     1.0000   1.0000   1.0000   1.0000   1.0000   1.0000   1.0000   1.0000
     1.0000   1.0000   0.0000   0.0000   0.0000

          k = 0.1667 0.5774 0.1013 (  2859 PWs)   bands (ev):

   -77.4324 -77.4216 -40.8319 -40.7911 -40.7297 -40.6840 -40.6630 -40.6324
    13.9294  14.2942  14.7268  15.0941  15.6973  16.3375  16.5558  17.6109
    17.7605  17.9653  21.0513  22.4829  27.7782

     occupation numbers 
     1.0000   1.0000   1.0000   1.0000   1.0000   1.0000   1.0000   1.0000
     1.0000   1.0000   1.0000   1.0000   1.0000   1.0000   1.0000   1.0000
     1.0000   1.0000   0.0000   0.0000   0.0000

          k = 0.1667 0.5774 0.2026 (  2861 PWs)   bands (ev):

   -77.4301 -77.4239 -40.8445 -40.8205 -40.7136 -40.6741 -40.6537 -40.6254
    13.8581  14.3014  14.7947  15.2251  15.5963  16.5474  16.8294  17.2217
    17.7778  18.0017  21.3375  22.2640  26.5362

     occupation numbers 
     1.0000   1.0000   1.0000   1.0000   1.0000   1.0000   1.0000   1.0000
     1.0000   1.0000   1.0000   1.0000   1.0000   1.0000   1.0000   1.0000
     1.0000   1.0000   0.0000   0.0000   0.0000

          k = 0.1667 0.5774-0.3039 (  2866 PWs)   bands (ev):

   -77.4270 -77.4270 -40.8414 -40.8414 -40.6933 -40.6933 -40.6311 -40.6311
    14.0150  14.0150  15.0385  15.0385  16.1140  16.1140  17.0669  17.0669
    17.8886  17.8886  21.8205  21.8205  26.0698

     occupation numbers 
     1.0000   1.0000   1.0000   1.0000   1.0000   1.0000   1.0000   1.0000
     1.0000   1.0000   1.0000   1.0000   1.0000   1.0000   1.0000   1.0000
     1.0000   1.0000   0.0000   0.0000   0.0000

          k = 0.2500 0.4330 0.0000 (  2876 PWs)   bands (ev):

   -77.4377 -77.4205 -40.7870 -40.7678 -40.7530 -40.6924 -40.6507 -40.6499
    14.2226  14.3593  14.7439  14.7675  15.6460  16.0935  16.3794  17.2199
    17.7726  17.9565  19.7029  26.0918  26.9627

     occupation numbers 
     1.0000   1.0000   1.0000   1.0000   1.0000   1.0000   1.0000   1.0000
     1.0000   1.0000   1.0000   1.0000   1.0000   1.0000   1.0000   1.0000
     1.0000   1.0000   0.0000   0.0000   0.0000

          k = 0.2500 0.4330 0.1013 (  2859 PWs)   bands (ev):

   -77.4366 -77.4217 -40.7981 -40.7913 -40.7176 -40.7049 -40.6521 -40.6365
    14.2188  14.3121  14.7763  14.9152  15.7956  15.9470  16.3850  17.2658
    17.5802  18.0186  19.8195  24.4888  27.2353

     occupation numbers 
     1.0000   1.0000   1.0000   1.0000   1.0000   1.0000   1.0000   1.0000
     1.0000   1.0000   1.0000   1.0000   1.0000   1.0000   1.0000   1.0000
     1.0000   1.0000   0.0000   0.0000   0.0000

          k = 0.2500 0.4330 0.2026 (  2852 PWs)   bands (ev):

   -77.4334 -77.4248 -40.8189 -40.8058 -40.7098 -40.6935 -40.6480 -40.6244
    14.2022  14.2552  14.9350  15.2823  15.6275  15.9044  16.4353  17.0590
    17.6127  18.0902  20.1803  22.4906  27.9915

     occupation numbers 
     1.0000   1.0000   1.0000   1.0000   1.0000   1.0000   1.0000   1.0000
     1.0000   1.0000   1.0000   1.0000   1.0000   1.0000   1.0000   1.0000
     1.0000   1.0000   0.0000   0.0000   0.0000

          k = 0.2500 0.4330-0.3039 (  2862 PWs)   bands (ev):

   -77.4291 -77.4291 -40.8199 -40.8199 -40.7001 -40.7001 -40.6301 -40.6301
    14.2139  14.2139  15.2420  15.2420  15.6994  15.6994  16.6464  16.6464
    17.9701  17.9701  21.0018  21.0018  28.9863

     occupation numbers 
     1.0000   1.0000   1.0000   1.0000   1.0000   1.0000   1.0000   1.0000
     1.0000   1.0000   1.0000   1.0000   1.0000   1.0000   1.0000   1.0000
     1.0000   1.0000   0.0000   0.0000   0.0000

          k = 0.2500 0.5292 0.0000 (  2870 PWs)   bands (ev):

   -77.4302 -77.4213 -40.7992 -40.7598 -40.7252 -40.7226 -40.6725 -40.6717
    14.2983  14.5099  14.5988  15.0983  15.6622  15.8818  16.5472  17.5085
    17.7392  17.8795  21.3775  23.9565  26.3060

     occupation numbers 
     1.0000   1.0000   1.0000   1.0000   1.0000   1.0000   1.0000   1.0000
     1.0000   1.0000   1.0000   1.0000   1.0000   1.0000   1.0000   1.0000
     1.0000   1.0000   0.0000   0.0000   0.0000

          k = 0.2500 0.5292 0.1013 (  2871 PWs)   bands (ev):

   -77.4296 -77.4219 -40.8056 -40.7805 -40.7404 -40.6967 -40.6764 -40.6512
    14.2434  14.6260  14.7155  14.9859  15.6862  15.8939  16.5639  17.5048
    17.5675  17.9243  21.5556  23.9606  26.3123

     occupation numbers 
     1.0000   1.0000   1.0000   1.0000   1.0000   1.0000   1.0000   1.0000
     1.0000   1.0000   1.0000   1.0000   1.0000   1.0000   1.0000   1.0000
     1.0000   1.0000   0.0000   0.0000   0.0000

          k = 0.2500 0.5292 0.2026 (  2863 PWs)   bands (ev):

   -77.4280 -77.4235 -40.8200 -40.8064 -40.7392 -40.7030 -40.6502 -40.6317
    14.2547  14.6054  14.8637  15.1688  15.5434  15.9241  16.6250  17.0765
    17.6913  17.9690  22.0344  23.6284  26.1962

     occupation numbers 
     1.0000   1.0000   1.0000   1.0000   1.0000   1.0000   1.0000   1.0000
     1.0000   1.0000   1.0000   1.0000   1.0000   1.0000   1.0000   1.0000
     1.0000   1.0000   0.0000   0.0000   0.0000

          k = 0.2500 0.5292-0.3039 (  2872 PWs)   bands (ev):

   -77.4257 -77.4257 -40.8222 -40.8222 -40.7223 -40.7223 -40.6306 -40.6306
    14.3869  14.3869  15.1448  15.1448  15.7018  15.7018  16.7551  16.7551
    17.8826  17.8826  22.7848  22.7848  26.7309

     occupation numbers 
     1.0000   1.0000   1.0000   1.0000   1.0000   1.0000   1.0000   1.0000
     1.0000   1.0000   1.0000   1.0000   1.0000   1.0000   1.0000   1.0000
     1.0000   1.0000   0.0000   0.0000   0.0000

          k = 0.3333 0.5774 0.0000 (  2868 PWs)   bands (ev):

   -77.4245 -77.4245 -40.7878 -40.7441 -40.7440 -40.6980 -40.6977 -40.6977
    14.3160  14.7107  14.7107  14.9686  15.7203  15.7203  16.6453  17.6594
    17.6594  17.7072  23.1342  23.9638  23.9638

     occupation numbers 
     1.0000   1.0000   1.0000   1.0000   1.0000   1.0000   1.0000   1.0000
     1.0000   1.0000   1.0000   1.0000   1.0000   1.0000   1.0000   1.0000
     1.0000   1.0000   0.0000   0.0000   0.0000

          k = 0.3333 0.5774 0.1013 (  2865 PWs)   bands (ev):

   -77.4245 -77.4245 -40.7818 -40.7703 -40.7703 -40.7041 -40.6714 -40.6714
    14.4074  14.7241  14.7241  14.9844  15.6995  15.6995  16.6213  17.4893
    17.7054  17.7054  23.5174  24.0305  24.0305

     occupation numbers 
     1.0000   1.0000   1.0000   1.0000   1.0000   1.0000   1.0000   1.0000
     1.0000   1.0000   1.0000   1.0000   1.0000   1.0000   1.0000   1.0000
     1.0000   1.0000   0.0000   0.0000   0.0000

          k = 0.3333 0.5774 0.2026 (  2859 PWs)   bands (ev):

   -77.4245 -77.4245 -40.7998 -40.7998 -40.7655 -40.7206 -40.6416 -40.6416
    14.6409  14.7483  14.7483  14.9912  15.6648  15.6648  16.5933  17.0384
    17.7944  17.7944  24.1959  24.1959  24.5089

     occupation numbers 
     1.0000   1.0000   1.0000   1.0000   1.0000   1.0000   1.0000   1.0000
     1.0000   1.0000   1.0000   1.0000   1.0000   1.0000   1.0000   1.0000
     1.0000   1.0000   0.0000   0.0000   0.0000

          k = 0.3333 0.5774-0.3039 (  2844 PWs)   bands (ev):

   -77.4245 -77.4245 -40.8110 -40.8110 -40.7430 -40.7430 -40.6303 -40.6303
    14.7590  14.7590  14.8848  14.8848  15.6508  15.6508  16.6935  16.6935
    17.8375  17.8375  24.3021  24.3021  25.8850

     occupation numbers 
     1.0000   1.0000   1.0000   1.0000   1.0000   1.0000   1.0000   1.0000
     1.0000   1.0000   1.0000   1.0000   1.0000   1.0000   1.0000   1.0000
     1.0000   1.0000   0.0000   0.0000   0.0000

 ------ SPIN DOWN ----------


          k = 0.0000 0.0000 0.0000 (  2839 PWs)   bands (ev):

   -75.3485 -75.2923 -38.8096 -38.5077 -38.5077 -38.4696 -38.4615 -38.4615
     9.6643  14.3979  17.5881  17.7373  17.7373  18.0842  18.0842  18.1712
    18.6027  18.6027  19.7630  19.7630  25.7629

     occupation numbers 
     1.0000   1.0000   1.0000   1.0000   1.0000   1.0000   1.0000   1.0000
     1.0000   1.0000   1.0000   1.0000   1.0000   1.0000   1.0000   1.0000
     0.9999   0.9999   0.0000   0.0000   0.0000

          k = 0.0000 0.0000 0.1013 (  2876 PWs)   bands (ev):

   -75.3447 -75.2961 -38.7872 -38.5046 -38.5046 -38.4927 -38.4646 -38.4646
     9.9360  14.1484  17.5003  17.6319  17.6836  17.6836  18.0092  18.0092
    18.7617  18.7617  19.7431  19.7431  27.0369

     occupation numbers 
     1.0000   1.0000   1.0000   1.0000   1.0000   1.0000   1.0000   1.0000
     1.0000   1.0000   1.0000   1.0000   1.0000   1.0000   1.0000   1.0000
     0.0000   0.0000   0.0000   0.0000   0.0000

          k = 0.0000 0.0000 0.2026 (  2864 PWs)   bands (ev):

   -75.3345 -75.3064 -38.7256 -38.5556 -38.4962 -38.4962 -38.4730 -38.4730
    10.7221  13.2411  17.0585  17.2774  17.6371  17.6371  17.8428  17.8428
    19.0936  19.0936  19.6446  19.6446  29.9391

     occupation numbers 
     1.0000   1.0000   1.0000   1.0000   1.0000   1.0000   1.0000   1.0000
     1.0000   1.0000   1.0000   1.0000   1.0000   1.0000   1.0000   1.0000
     0.0000   0.0000   0.0000   0.0000   0.0000

          k = 0.0000 0.0000-0.3039 (  2846 PWs)   bands (ev):

   -75.3204 -75.3204 -38.6409 -38.6409 -38.4846 -38.4846 -38.4846 -38.4846
    11.9161  11.9161  17.0465  17.0465  17.6935  17.6935  17.6935  17.6935
    19.4206  19.4206  19.4206  19.4206  33.5223

     occupation numbers 
     1.0000   1.0000   1.0000   1.0000   1.0000   1.0000   1.0000   1.0000
     1.0000   1.0000   1.0000   1.0000   1.0000   1.0000   1.0000   1.0000
     0.0000   0.0000   0.0000   0.0000   0.0000

          k = 0.0000 0.0962 0.0000 (  2829 PWs)   bands (ev):

   -75.3450 -75.2905 -38.8019 -38.5257 -38.5134 -38.4800 -38.4724 -38.4646
     9.9098  14.5700  17.4144  17.6240  17.8581  17.8647  18.0128  18.1982
    18.5164  18.5195  19.7968  20.5399  25.7791

     occupation numbers 
     1.0000   1.0000   1.0000   1.0000   1.0000   1.0000   1.0000   1.0000
     1.0000   1.0000   1.0000   1.0000   1.0000   1.0000   1.0000   1.0000
     1.0000   1.0000   0.0000   0.0000   0.0000

          k = 0.0000 0.0962 0.1013 (  2859 PWs)   bands (ev):

   -75.3413 -75.2942 -38.7807 -38.5221 -38.5101 -38.5025 -38.4753 -38.4678
    10.1779  14.3325  17.2287  17.4094  17.6856  17.7974  18.0149  18.1166
    18.7036  18.7090  19.7682  20.2220  27.1207

     occupation numbers 
     1.0000   1.0000   1.0000   1.0000   1.0000   1.0000   1.0000   1.0000
     1.0000   1.0000   1.0000   1.0000   1.0000   1.0000   1.0000   1.0000
     0.0000   0.0000   0.0000   0.0000   0.0000

          k = 0.0000 0.0962 0.2026 (  2866 PWs)   bands (ev):

   -75.3314 -75.3042 -38.7226 -38.5621 -38.5121 -38.5012 -38.4850 -38.4768
    10.9535  13.4402  16.8638  17.2760  17.5250  17.7421  17.8448  17.9481
    19.0589  19.0888  19.6499  19.8305  30.0797

     occupation numbers 
     1.0000   1.0000   1.0000   1.0000   1.0000   1.0000   1.0000   1.0000
     1.0000   1.0000   1.0000   1.0000   1.0000   1.0000   1.0000   1.0000
     0.0000   0.0000   0.0000   0.0000   0.0000

          k = 0.0000 0.0962-0.3039 (  2858 PWs)   bands (ev):

   -75.3178 -75.3178 -38.6427 -38.6427 -38.4985 -38.4985 -38.4890 -38.4890
    12.1314  12.1314  16.9701  16.9701  17.6407  17.6407  17.7980  17.7980
[...]
    19.9303  19.9426  21.1120  23.6304  28.3848

     occupation numbers 
     1.0000   1.0000   1.0000   1.0000   1.0000   1.0000   1.0000   1.0000
     1.0000   1.0000   1.0000   1.0000   1.0000   1.0000   1.0000   0.0000
     0.0000   0.0000   0.0000   0.0000   0.0000

          k = 0.0833 0.5292 0.1013 (  2857 PWs)   bands (ev):

   -75.2886 -75.2727 -38.7814 -38.7342 -38.6383 -38.5895 -38.5471 -38.5246
    14.6359  15.2363  15.7862  16.3437  17.5923  18.0477  18.0784  19.6942
    19.8490  19.9650  20.9764  23.2779  27.4106

     occupation numbers 
     1.0000   1.0000   1.0000   1.0000   1.0000   1.0000   1.0000   1.0000
     1.0000   1.0000   1.0000   1.0000   1.0000   1.0000   1.0000   0.0000
     0.0000   0.0000   0.0000   0.0000   0.0000

          k = 0.0833 0.5292 0.2026 (  2859 PWs)   bands (ev):

   -75.2853 -75.2761 -38.7933 -38.7639 -38.6047 -38.5692 -38.5554 -38.5282
    14.6098  15.0774  16.0837  16.3789  17.6259  18.3888  18.5697  19.2477
    19.8038  20.0364  20.7681  22.3294  26.9235

     occupation numbers 
     1.0000   1.0000   1.0000   1.0000   1.0000   1.0000   1.0000   1.0000
     1.0000   1.0000   1.0000   1.0000   1.0000   1.0000   1.0000   0.0000
     0.0000   0.0000   0.0000   0.0000   0.0000

          k = 0.0833 0.5292-0.3039 (  2864 PWs)   bands (ev):

   -75.2807 -75.2807 -38.7875 -38.7875 -38.5776 -38.5776 -38.5422 -38.5422
    14.7823  14.7823  16.3256  16.3256  18.1257  18.1257  18.9027  18.9027
    19.8904  19.8904  21.2849  21.2849  27.1858

     occupation numbers 
     1.0000   1.0000   1.0000   1.0000   1.0000   1.0000   1.0000   1.0000
     1.0000   1.0000   1.0000   1.0000   1.0000   1.0000   0.0000   0.0000
     0.0000   0.0000   0.0000   0.0000   0.0000

          k = 0.1667 0.2887 0.0000 (  2840 PWs)   bands (ev):

   -75.3143 -75.2769 -38.7295 -38.6508 -38.6421 -38.5550 -38.5110 -38.5043
    12.3616  15.7637  16.0360  16.4442  17.6270  17.6483  18.2238  18.4962
    19.1457  19.4955  19.8656  24.5207  26.2261

     occupation numbers 
     1.0000   1.0000   1.0000   1.0000   1.0000   1.0000   1.0000   1.0000
     1.0000   1.0000   1.0000   1.0000   1.0000   1.0000   1.0000   1.0000
     0.0000   0.0000   0.0000   0.0000   0.0000

          k = 0.1667 0.2887 0.1013 (  2844 PWs)   bands (ev):

   -75.3118 -75.2794 -38.7306 -38.6489 -38.6332 -38.5604 -38.5149 -38.5048
    12.5692  15.6465  15.9791  16.5097  17.5313  17.6512  18.1261  18.6203
    19.2692  19.3678  19.8768  22.8900  28.3992

     occupation numbers 
     1.0000   1.0000   1.0000   1.0000   1.0000   1.0000   1.0000   1.0000
     1.0000   1.0000   1.0000   1.0000   1.0000   1.0000   1.0000   0.9745
     0.0000   0.0000   0.0000   0.0000   0.0000

          k = 0.1667 0.2887 0.2026 (  2850 PWs)   bands (ev):

   -75.3049 -75.2863 -38.7233 -38.6714 -38.5967 -38.5637 -38.5242 -38.5140
    13.1585  14.9489  16.2364  16.6764  17.2417  17.4966  18.1821  18.7634
    19.3402  19.4879  19.8344  21.2105  31.6148

     occupation numbers 
     1.0000   1.0000   1.0000   1.0000   1.0000   1.0000   1.0000   1.0000
     1.0000   1.0000   1.0000   1.0000   1.0000   1.0000   1.0000   0.0000
     0.0000   0.0000   0.0000   0.0000   0.0000

          k = 0.1667 0.2887-0.3039 (  2864 PWs)   bands (ev):

   -75.2956 -75.2956 -38.7012 -38.7012 -38.5674 -38.5674 -38.5280 -38.5280
    14.0198  14.0198  16.6080  16.6080  17.1937  17.1937  18.4816  18.4816
    19.6700  19.6700  20.0530  20.0530  33.7484

     occupation numbers 
     1.0000   1.0000   1.0000   1.0000   1.0000   1.0000   1.0000   1.0000
     1.0000   1.0000   1.0000   1.0000   1.0000   1.0000   1.0000   1.0000
     0.0000   0.0000   0.0000   0.0000   0.0000

          k = 0.1667 0.3849 0.0000 (  2860 PWs)   bands (ev):

   -75.3010 -75.2730 -38.7030 -38.6935 -38.6806 -38.5857 -38.5344 -38.5245
    13.6245  15.7576  15.8364  16.2663  17.4361  17.7564  17.9755  18.8527
    19.6492  19.8497  20.2346  26.2830  26.5422

     occupation numbers 
     1.0000   1.0000   1.0000   1.0000   1.0000   1.0000   1.0000   1.0000
     1.0000   1.0000   1.0000   1.0000   1.0000   1.0000   1.0000   0.0000
     0.0000   0.0000   0.0000   0.0000   0.0000

          k = 0.1667 0.3849 0.1013 (  2855 PWs)   bands (ev):

   -75.2991 -75.2748 -38.7296 -38.6970 -38.6462 -38.5898 -38.5399 -38.5192
    13.7681  15.6177  15.9354  16.3662  17.3871  17.7455  17.9312  18.9116
    19.5974  19.7488  20.3294  23.9856  28.8051

     occupation numbers 
     1.0000   1.0000   1.0000   1.0000   1.0000   1.0000   1.0000   1.0000
     1.0000   1.0000   1.0000   1.0000   1.0000   1.0000   1.0000   0.0000
     0.0000   0.0000   0.0000   0.0000   0.0000

          k = 0.1667 0.3849 0.2026 (  2853 PWs)   bands (ev):

   -75.2940 -75.2800 -38.7437 -38.7165 -38.6065 -38.5876 -38.5472 -38.5202
    14.1621  15.2369  16.2077  16.5702  17.2297  17.4859  18.1204  18.9292
    19.4419  19.9269  20.4085  22.0352  29.8307

     occupation numbers 
     1.0000   1.0000   1.0000   1.0000   1.0000   1.0000   1.0000   1.0000
     1.0000   1.0000   1.0000   1.0000   1.0000   1.0000   1.0000   0.0000
     0.0000   0.0000   0.0000   0.0000   0.0000

          k = 0.1667 0.3849-0.3039 (  2858 PWs)   bands (ev):

   -75.2870 -75.2870 -38.7371 -38.7371 -38.5879 -38.5879 -38.5359 -38.5359
    14.7020  14.7020  16.5407  16.5407  17.2125  17.2125  18.4880  18.4880
    19.9101  19.9101  20.7444  20.7444  30.9120

     occupation numbers 
     1.0000   1.0000   1.0000   1.0000   1.0000   1.0000   1.0000   1.0000
     1.0000   1.0000   1.0000   1.0000   1.0000   1.0000   1.0000   1.0000
     0.0000   0.0000   0.0000   0.0000   0.0000

          k = 0.1667 0.4811 0.0000 (  2866 PWs)   bands (ev):

   -75.2899 -75.2714 -38.7440 -38.7013 -38.6589 -38.6138 -38.5504 -38.5475
    14.7310  15.5999  15.6079  16.3290  17.3727  17.6957  17.9927  19.3300
    19.8375  19.8963  21.1581  25.1236  28.1853

     occupation numbers 
     1.0000   1.0000   1.0000   1.0000   1.0000   1.0000   1.0000   1.0000
     1.0000   1.0000   1.0000   1.0000   1.0000   1.0000   1.0000   0.0000
     0.0000   0.0000   0.0000   0.0000   0.0000

          k = 0.1667 0.4811 0.1013 (  2863 PWs)   bands (ev):

   -75.2887 -75.2727 -38.7550 -38.7177 -38.6417 -38.6060 -38.5609 -38.5346
    14.7422  15.5472  15.7769  16.3554  17.3788  17.6620  18.0879  19.3315
    19.6100  19.9685  21.2042  24.4646  27.2987

     occupation numbers 
     1.0000   1.0000   1.0000   1.0000   1.0000   1.0000   1.0000   1.0000
     1.0000   1.0000   1.0000   1.0000   1.0000   1.0000   1.0000   0.0000
     0.0000   0.0000   0.0000   0.0000   0.0000

          k = 0.1667 0.4811 0.2026 (  2854 PWs)   bands (ev):

   -75.2853 -75.2760 -38.7682 -38.7443 -38.6245 -38.5904 -38.5609 -38.5271
    14.8363  15.3459  16.0977  16.6007  17.2027  17.6431  18.3311  19.0382
    19.5529  20.0613  21.3478  23.0159  27.4666

     occupation numbers 
     1.0000   1.0000   1.0000   1.0000   1.0000   1.0000   1.0000   1.0000
     1.0000   1.0000   1.0000   1.0000   1.0000   1.0000   1.0000   0.0000
     0.0000   0.0000   0.0000   0.0000   0.0000

          k = 0.1667 0.4811-0.3039 (  2850 PWs)   bands (ev):

   -75.2807 -75.2807 -38.7648 -38.7648 -38.6057 -38.6057 -38.5372 -38.5372
    15.0555  15.0555  16.4905  16.4905  17.3883  17.3883  18.6132  18.6132
    19.9002  19.9002  21.8611  21.8611  28.2627

     occupation numbers 
     1.0000   1.0000   1.0000   1.0000   1.0000   1.0000   1.0000   1.0000
     1.0000   1.0000   1.0000   1.0000   1.0000   1.0000   0.9964   0.9964
     0.0000   0.0000   0.0000   0.0000   0.0000

          k = 0.1667 0.5774 0.0000 (  2854 PWs)   bands (ev):

   -75.2851 -75.2716 -38.7588 -38.7079 -38.6415 -38.6252 -38.5607 -38.5562
    15.1925  15.4670  15.5499  16.4012  17.4409  17.5009  18.0979  19.6684
    19.8328  19.8607  22.0729  23.5661  29.4683

     occupation numbers 
     1.0000   1.0000   1.0000   1.0000   1.0000   1.0000   1.0000   1.0000
     1.0000   1.0000   1.0000   1.0000   1.0000   1.0000   1.0000   0.0000
     0.0000   0.0000   0.0000   0.0000   0.0000

          k = 0.1667 0.5774 0.1013 (  2859 PWs)   bands (ev):

   -75.2842 -75.2725 -38.7677 -38.7234 -38.6442 -38.6000 -38.5728 -38.5420
    15.0340  15.5081  15.9243  16.2095  17.3410  17.6924  18.2011  19.5862
    19.6687  19.9177  22.0961  23.4622  28.3990

     occupation numbers 
     1.0000   1.0000   1.0000   1.0000   1.0000   1.0000   1.0000   1.0000
     1.0000   1.0000   1.0000   1.0000   1.0000   1.0000   1.0000   0.0000
     0.0000   0.0000   0.0000   0.0000   0.0000

          k = 0.1667 0.5774 0.2026 (  2861 PWs)   bands (ev):

   -75.2817 -75.2750 -38.7790 -38.7532 -38.6330 -38.5908 -38.5630 -38.5308
    14.9864  15.4077  16.1694  16.5117  17.1173  17.8193  18.4793  19.1040
    19.7002  19.9658  22.2136  23.1224  27.3434

     occupation numbers 
     1.0000   1.0000   1.0000   1.0000   1.0000   1.0000   1.0000   1.0000
     1.0000   1.0000   1.0000   1.0000   1.0000   1.0000   1.0000   0.0000
     0.0000   0.0000   0.0000   0.0000   0.0000

          k = 0.1667 0.5774-0.3039 (  2866 PWs)   bands (ev):

   -75.2784 -75.2784 -38.7751 -38.7751 -38.6127 -38.6127 -38.5370 -38.5370
    15.1387  15.1387  16.4803  16.4803  17.4456  17.4456  18.7753  18.7753
    19.8354  19.8354  22.6033  22.6033  26.9826

     occupation numbers 
     1.0000   1.0000   1.0000   1.0000   1.0000   1.0000   1.0000   1.0000
     1.0000   1.0000   1.0000   1.0000   1.0000   1.0000   0.0000   0.0000
     0.0000   0.0000   0.0000   0.0000   0.0000

          k = 0.2500 0.4330 0.0000 (  2876 PWs)   bands (ev):

   -75.2900 -75.2714 -38.7214 -38.6999 -38.6591 -38.6175 -38.5711 -38.5473
    14.7463  15.6793  15.9556  16.0005  17.2737  17.7261  17.9993  19.0666
    19.7837  19.8939  21.2048  26.6603  27.5826

     occupation numbers 
     1.0000   1.0000   1.0000   1.0000   1.0000   1.0000   1.0000   1.0000
     1.0000   1.0000   1.0000   1.0000   1.0000   1.0000   1.0000   0.0000
     0.0000   0.0000   0.0000   0.0000   0.0000

          k = 0.2500 0.4330 0.1013 (  2859 PWs)   bands (ev):

   -75.2887 -75.2726 -38.7254 -38.7249 -38.6289 -38.6275 -38.5728 -38.5366
    14.8212  15.5952  16.0215  16.1795  17.3089  17.5403  18.0205  19.1235
    19.5480  19.9745  21.3008  25.1616  27.8607

     occupation numbers 
     1.0000   1.0000   1.0000   1.0000   1.0000   1.0000   1.0000   1.0000
     1.0000   1.0000   1.0000   1.0000   1.0000   1.0000   1.0000   0.0000
     0.0000   0.0000   0.0000   0.0000   0.0000

          k = 0.2500 0.4330 0.2026 (  2852 PWs)   bands (ev):

   -75.2853 -75.2760 -38.7479 -38.7376 -38.6324 -38.6103 -38.5608 -38.5269
    15.0134  15.4494  16.2352  16.5213  17.1525  17.2699  18.1276  18.9349
    19.5101  20.0709  21.5271  23.3259  28.6171

     occupation numbers 
     1.0000   1.0000   1.0000   1.0000   1.0000   1.0000   1.0000   1.0000
     1.0000   1.0000   1.0000   1.0000   1.0000   1.0000   1.0000   0.0000
     0.0000   0.0000   0.0000   0.0000   0.0000

          k = 0.2500 0.4330-0.3039 (  2862 PWs)   bands (ev):

   -75.2807 -75.2807 -38.7504 -38.7504 -38.6217 -38.6217 -38.5358 -38.5358
    15.2475  15.2475  16.5643  16.5643  17.0482  17.0482  18.4381  18.4381
    19.9244  19.9244  22.0766  22.0766  29.6003

     occupation numbers 
     1.0000   1.0000   1.0000   1.0000   1.0000   1.0000   1.0000   1.0000
     1.0000   1.0000   1.0000   1.0000   1.0000   1.0000   1.0000   1.0000
     0.0000   0.0000   0.0000   0.0000   0.0000

          k = 0.2500 0.5292 0.0000 (  2870 PWs)   bands (ev):

   -75.2818 -75.2723 -38.7345 -38.6912 -38.6505 -38.6286 -38.5948 -38.5711
    15.4645  15.6642  15.8008  16.0872  17.2713  17.4676  18.1997  19.3882
    19.7451  19.8104  22.5052  24.7679  26.8923

     occupation numbers 
     1.0000   1.0000   1.0000   1.0000   1.0000   1.0000   1.0000   1.0000
     1.0000   1.0000   1.0000   1.0000   1.0000   1.0000   1.0000   0.0000
     0.0000   0.0000   0.0000   0.0000   0.0000

          k = 0.2500 0.5292 0.1013 (  2871 PWs)   bands (ev):

   -75.2812 -75.2729 -38.7390 -38.7100 -38.6648 -38.6114 -38.5915 -38.5539
    15.4158  15.7832  15.8804  16.1508  17.2409  17.3655  18.2227  19.4194
    19.5061  19.8685  22.6584  24.7301  26.9305

     occupation numbers 
     1.0000   1.0000   1.0000   1.0000   1.0000   1.0000   1.0000   1.0000
     1.0000   1.0000   1.0000   1.0000   1.0000   1.0000   1.0000   0.0000
     0.0000   0.0000   0.0000   0.0000   0.0000

          k = 0.2500 0.5292 0.2026 (  2863 PWs)   bands (ev):

   -75.2794 -75.2746 -38.7511 -38.7365 -38.6652 -38.6261 -38.5566 -38.5347
    15.4427  15.7309  16.1539  16.4890  16.9731  17.2291  18.3118  18.9577
    19.6078  19.9271  23.0274  24.3376  26.9630

     occupation numbers 
     1.0000   1.0000   1.0000   1.0000   1.0000   1.0000   1.0000   1.0000
     1.0000   1.0000   1.0000   1.0000   1.0000   1.0000   1.0000   0.0000
     0.0000   0.0000   0.0000   0.0000   0.0000

          k = 0.2500 0.5292-0.3039 (  2872 PWs)   bands (ev):

   -75.2770 -75.2770 -38.7528 -38.7528 -38.6477 -38.6477 -38.5344 -38.5344
    15.5703  15.5703  16.5416  16.5416  16.9487  16.9487  18.5285  18.5285
    19.8270  19.8270  23.6064  23.6064  27.4962

     occupation numbers 
     1.0000   1.0000   1.0000   1.0000   1.0000   1.0000   1.0000   1.0000
     1.0000   1.0000   1.0000   1.0000   1.0000   1.0000   1.0000   1.0000
     0.0000   0.0000   0.0000   0.0000   0.0000

          k = 0.3333 0.5774 0.0000 (  2868 PWs)   bands (ev):

   -75.2757 -75.2757 -38.7219 -38.6741 -38.6741 -38.6235 -38.5987 -38.5987
    15.7098  15.8167  15.8167  15.9973  17.2982  17.2982  18.3088  19.5625
    19.5625  19.7084  23.9712  24.7721  24.7721

     occupation numbers 
     1.0000   1.0000   1.0000   1.0000   1.0000   1.0000   1.0000   1.0000
     1.0000   1.0000   1.0000   1.0000   1.0000   1.0000   1.0000   0.0000
     0.0000   0.0000   0.0000   0.0000   0.0000

          k = 0.3333 0.5774 0.1013 (  2865 PWs)   bands (ev):

   -75.2757 -75.2757 -38.7153 -38.6972 -38.6972 -38.6301 -38.5754 -38.5754
    15.7800  15.8856  15.8856  16.0272  17.2104  17.2104  18.2934  19.4478
    19.6198  19.6198  24.3699  24.8141  24.8141

     occupation numbers 
     1.0000   1.0000   1.0000   1.0000   1.0000   1.0000   1.0000   1.0000
     1.0000   1.0000   1.0000   1.0000   1.0000   1.0000   1.0000   0.0000
     0.0000   0.0000   0.0000   0.0000   0.0000

          k = 0.3333 0.5774 0.2026 (  2859 PWs)   bands (ev):

   -75.2757 -75.2757 -38.7271 -38.7271 -38.6974 -38.6482 -38.5452 -38.5452
    15.9430  16.0503  16.0503  16.0824  17.0161  17.0161  18.3050  18.9207
    19.7265  19.7265  24.9179  24.9179  25.3508

     occupation numbers 
     1.0000   1.0000   1.0000   1.0000   1.0000   1.0000   1.0000   1.0000
     1.0000   1.0000   1.0000   1.0000   1.0000   1.0000   1.0000   0.0000
     0.0000   0.0000   0.0000   0.0000   0.0000

          k = 0.3333 0.5774-0.3039 (  2844 PWs)   bands (ev):

   -75.2757 -75.2757 -38.7389 -38.7389 -38.6728 -38.6728 -38.5333 -38.5333
    16.0728  16.0728  16.1582  16.1582  16.8970  16.8970  18.4879  18.4879
    19.7764  19.7764  24.9837  24.9837  26.6557

     occupation numbers 
     1.0000   1.0000   1.0000   1.0000   1.0000   1.0000   1.0000   1.0000
     1.0000   1.0000   1.0000   1.0000   1.0000   1.0000   1.0000   1.0000
     0.0000   0.0000   0.0000   0.0000   0.0000

     the Fermi energy is    18.6390 ev

!    total energy              =    -753.45488758 Ry
     total all-electron energy =     -5573.811579 Ry
     estimated scf accuracy    <       0.00000037 Ry
     smearing contrib. (-TS)   =      -0.00001264 Ry
     internal energy E=F+TS    =    -753.45487494 Ry

     The total energy is F=E-TS. E is the sum of the following terms:
     one-electron contribution =    -283.23236274 Ry
     hartree contribution      =     165.18947214 Ry
     xc contribution           =     -61.40002356 Ry
     ewald contribution        =    -398.83635357 Ry
     one-center paw contrib.   =    -175.17560720 Ry
      -> PAW hartree energy AE =     221.96643498 Ry
      -> PAW hartree energy PS =    -220.91132151 Ry
      -> PAW xc energy AE      =    -117.67018226 Ry
      -> PAW xc energy PS      =      29.02726519 Ry
      -> total E_H with PAW    =     166.24458560 Ry
      -> total E_XC with PAW   =    -150.04294063 Ry

     total magnetization       =     3.36 Bohr mag/cell
     absolute magnetization    =     3.68 Bohr mag/cell

     convergence has been achieved in  11 iterations

     Writing all to output data dir ./out/Co.save/
 
     init_run     :      0.39s CPU      0.51s WALL (       1 calls)
     electrons    :     24.71s CPU     26.02s WALL (       1 calls)

     Called by init_run:
     wfcinit      :      0.26s CPU      0.35s WALL (       1 calls)
     potinit      :      0.09s CPU      0.10s WALL (       1 calls)
     hinit0       :      0.03s CPU      0.03s WALL (       1 calls)

     Called by electrons:
     c_bands      :     21.71s CPU     22.72s WALL (      11 calls)
     sum_band     :      2.04s CPU      2.14s WALL (      11 calls)
     v_of_rho     :      0.03s CPU      0.03s WALL (      12 calls)
     v_h          :      0.00s CPU      0.00s WALL (      12 calls)
     v_xc         :      0.03s CPU      0.03s WALL (      12 calls)
     newd         :      0.04s CPU      0.05s WALL (      12 calls)
     PAW_pot      :      0.95s CPU      1.14s WALL (      12 calls)
     mix_rho      :      0.01s CPU      0.01s WALL (      11 calls)

     Called by c_bands:
     init_us_2    :      0.12s CPU      0.13s WALL (    3344 calls)
     init_us_2:cp :      0.12s CPU      0.12s WALL (    3344 calls)
     cegterg      :     20.93s CPU     21.81s WALL (    1672 calls)

     Called by sum_band:
     sum_band:wei :      0.01s CPU      0.01s WALL (      11 calls)
     sum_band:loo :      1.93s CPU      2.03s WALL (      11 calls)
     sum_band:buf :      0.01s CPU      0.01s WALL (    1672 calls)
     sum_band:ini :      0.07s CPU      0.06s WALL (    1672 calls)
     sum_band:cal :      0.17s CPU      0.16s WALL (    1672 calls)
     sum_band:bec :      0.00s CPU      0.01s WALL (    1672 calls)
     addusdens    :      0.08s CPU      0.08s WALL (      11 calls)
                                        0.00s GPU  (      11 calls)
     addusd:skk   :      0.00s CPU      0.00s WALL (      11 calls)
                                        0.00s GPU  (      11 calls)

     Called by *egterg:
     cdiaghg      :      5.07s CPU      5.20s WALL (   10424 calls)
     cegterg:over :      0.73s CPU      0.69s WALL (    8904 calls)
     cegterg:upda :      0.09s CPU      0.18s WALL (    8904 calls)
     cegterg:last :      0.29s CPU      0.33s WALL (    6258 calls)
     h_psi        :     13.91s CPU     14.58s WALL (   10576 calls)
     s_psi        :      0.27s CPU      0.23s WALL (   10576 calls)
     g_psi        :      0.04s CPU      0.06s WALL (    8904 calls)

     Called by h_psi:
     h_psi:calbec :      0.75s CPU      0.72s WALL (   10576 calls)
     vloc_psi     :     12.97s CPU     13.54s WALL (   10576 calls)
     add_vuspsi   :      0.14s CPU      0.24s WALL (   10576 calls)

     General routines
     calbec       :      0.91s CPU      0.87s WALL (   12248 calls)
     fft          :      0.02s CPU      0.02s WALL (     294 calls)
     ffts         :      0.00s CPU      0.00s WALL (      46 calls)
     fftw         :     13.88s CPU     14.25s WALL (  322410 calls)
     interpolate  :      0.00s CPU      0.00s WALL (      24 calls)
 
     Parallel routines

     PAW routines
     PAW_pot      :      0.95s CPU      1.14s WALL (      12 calls)
     PAW_symme    :      0.01s CPU      0.01s WALL (      22 calls)
 
     PWSCF        :     25.42s CPU     27.31s WALL

 
   This run was terminated on:   7:38:39  22Mar2024            

=------------------------------------------------------------------------------=
   JOB DONE.
=------------------------------------------------------------------------------=
