
     Program PWSCF v.7.2 starts on 22Mar2024 at  7:53:33 

     This program is part of the open-source Quantum ESPRESSO suite
     for quantum simulation of materials; please cite
         "P. Giannozzi et al., J. Phys.:Condens. Matter 21 395502 (2009);
         "P. Giannozzi et al., J. Phys.:Condens. Matter 29 465901 (2017);
         "P. Giannozzi et al., J. Chem. Phys. 152 154105 (2020);
          URL http://www.quantum-espresso.org", 
     in publications or presentations arising from this work. More details at
     http://www.quantum-espresso.org/quote

     Parallel version (MPI), running on    20 processors

     MPI processes distributed on     1 nodes
     352863 MiB available memory on the printing compute node when the environment starts
 
     Waiting for input...
     Reading input from standard input

     Current dimensions of program PWSCF are:
     Max number of different atomic species (ntypx) = 10
     Max number of k-points (npk) = 120000
     Max angular momentum in pseudopotentials (lmaxx) =  4
     file Co.pbe-spn-kjpaw_psl.0.3.1.UPF: wavefunction(s)  3P 3D renormalized
 
     R & G space division:  proc/nbgrp/npool/nimage =      20
     Subspace diagonalization in iterative solution of the eigenvalue problem:
     a serial algorithm will be used

 
     Parallelization info
     --------------------
     sticks:   dense  smooth     PW     G-vecs:    dense   smooth      PW
     Min          33      33      9                 1173     1137     183
     Max          34      34     10                 1188     1142     190
     Sum         673     673    199                23607    22767    3767
 
     Using Slab Decomposition
 


     bravais-lattice index     =            4
     lattice parameter (alat)  =       4.6865  a.u.
     unit-cell volume          =     146.1138 (a.u.)^3
     number of atoms/cell      =            2
     number of atomic types    =            1
     number of electrons       =        34.00
     number of Kohn-Sham states=           21
     kinetic-energy cutoff     =     110.0000  Ry
     charge density cutoff     =     450.0000  Ry
     scf convergence threshold =      1.0E-06
     mixing beta               =       0.7000
     number of iterations used =            8  plain     mixing
     Exchange-correlation= SLA  PW   PBX  PBC
                           (   1   4   3   4   0   0   0)

     celldm(1)=   4.686521  celldm(2)=   0.000000  celldm(3)=   1.639113
     celldm(4)=   0.000000  celldm(5)=   0.000000  celldm(6)=   0.000000

     crystal axes: (cart. coord. in units of alat)
               a(1) = (   1.000000   0.000000   0.000000 )  
               a(2) = (  -0.500000   0.866025   0.000000 )  
               a(3) = (   0.000000   0.000000   1.639113 )  

     reciprocal axes: (cart. coord. in units 2 pi/alat)
               b(1) = (  1.000000  0.577350  0.000000 )  
               b(2) = (  0.000000  1.154701  0.000000 )  
               b(3) = (  0.000000  0.000000  0.610086 )  


     PseudoPot. # 1 for Co read from file:
     /truba/home/amuhaymin/ZnS/pseudo/QE/Co.pbe-spn-kjpaw_psl.0.3.1.UPF
     MD5 check sum: b0a1ad65bf214e88c1f3d33b20c7d919
     Pseudo is Projector augmented-wave + core cor, Zval = 17.0
     Generated using &quot;atomic&quot; code by A. Dal Corso  v.6.2.2
     Shape of augmentation charge: PSQ
     Using radial grid of 1193 points,  6 beta functions with: 
                l(1) =   0
                l(2) =   0
                l(3) =   1
                l(4) =   1
                l(5) =   2
                l(6) =   2
     Q(r) pseudized with 0 coefficients 


     atomic species   valence    mass     pseudopotential
        Co            17.00    58.93300     Co( 1.00)

     Starting magnetic structure 
     atomic species   magnetization
        Co           0.294

     24 Sym. Ops., with inversion, found (12 have fractional translation)


                                    s                        frac. trans.

      isym =  1     identity                                     

 cryst.   s( 1) = (     1          0          0      )
                  (     0          1          0      )
                  (     0          0          1      )

 cart.    s( 1) = (  1.0000000  0.0000000  0.0000000 )
                  (  0.0000000  1.0000000  0.0000000 )
                  (  0.0000000  0.0000000  1.0000000 )


      isym =  2     180 deg rotation - cart. axis [0,0,1]        

 cryst.   s( 2) = (    -1          0          0      )    f =(  0.0000000 )
                  (     0         -1          0      )       ( -0.0000000 )
                  (     0          0          1      )       ( -0.5000000 )

 cart.    s( 2) = ( -1.0000000  0.0000000  0.0000000 )    f =(  0.0000000 )
                  (  0.0000000 -1.0000000  0.0000000 )       ( -0.0000000 )
                  (  0.0000000  0.0000000  1.0000000 )       ( -0.8195565 )


      isym =  3     180 deg rotation - cart. axis [0,1,0]        

 cryst.   s( 3) = (    -1          0          0      )    f =(  0.0000000 )
                  (     1          1          0      )       (  0.0000000 )
                  (     0          0         -1      )       (  0.5000000 )

 cart.    s( 3) = ( -1.0000000  0.0000000  0.0000000 )    f =(  0.0000000 )
                  (  0.0000000  1.0000000  0.0000000 )       (  0.0000000 )
                  (  0.0000000  0.0000000 -1.0000000 )       (  0.8195565 )


      isym =  4     180 deg rotation - cart. axis [1,0,0]        

 cryst.   s( 4) = (     1          0          0      )
                  (    -1         -1          0      )
                  (     0          0         -1      )

 cart.    s( 4) = (  1.0000000  0.0000000  0.0000000 )
                  (  0.0000000 -1.0000000  0.0000000 )
                  (  0.0000000  0.0000000 -1.0000000 )


      isym =  5      60 deg rotation - cryst. axis [0,0,1]       

 cryst.   s( 5) = (     1          1          0      )    f =(  0.0000000 )
                  (    -1          0          0      )       ( -0.0000000 )
                  (     0          0          1      )       ( -0.5000000 )

 cart.    s( 5) = (  0.5000000 -0.8660254  0.0000000 )    f =(  0.0000000 )
                  (  0.8660254  0.5000000  0.0000000 )       ( -0.0000000 )
                  (  0.0000000  0.0000000  1.0000000 )       ( -0.8195565 )


      isym =  6      60 deg rotation - cryst. axis [0,0,-1]      

 cryst.   s( 6) = (     0         -1          0      )    f =(  0.0000000 )
                  (     1          1          0      )       ( -0.0000000 )
                  (     0          0          1      )       ( -0.5000000 )

 cart.    s( 6) = (  0.5000000  0.8660254  0.0000000 )    f =(  0.0000000 )
                  ( -0.8660254  0.5000000  0.0000000 )       ( -0.0000000 )
                  (  0.0000000  0.0000000  1.0000000 )       ( -0.8195565 )


      isym =  7     120 deg rotation - cryst. axis [0,0,1]       

 cryst.   s( 7) = (     0          1          0      )
                  (    -1         -1          0      )
                  (     0          0          1      )

 cart.    s( 7) = ( -0.5000000 -0.8660254  0.0000000 )
                  (  0.8660254 -0.5000000  0.0000000 )
                  (  0.0000000  0.0000000  1.0000000 )


      isym =  8     120 deg rotation - cryst. axis [0,0,-1]      

 cryst.   s( 8) = (    -1         -1          0      )
                  (     1          0          0      )
                  (     0          0          1      )

 cart.    s( 8) = ( -0.5000000  0.8660254  0.0000000 )
                  ( -0.8660254 -0.5000000  0.0000000 )
                  (  0.0000000  0.0000000  1.0000000 )


      isym =  9     180 deg rotation - cryst. axis [1,-1,0]      

 cryst.   s( 9) = (     0         -1          0      )    f =( -0.0000000 )
                  (    -1          0          0      )       ( -0.0000000 )
                  (     0          0         -1      )       (  0.5000000 )

 cart.    s( 9) = (  0.5000000 -0.8660254  0.0000000 )    f =( -0.0000000 )
                  ( -0.8660254 -0.5000000  0.0000000 )       ( -0.0000000 )
                  (  0.0000000  0.0000000 -1.0000000 )       (  0.8195565 )


      isym = 10     180 deg rotation - cryst. axis [2,1,0]       

 cryst.   s(10) = (     1          1          0      )    f =(  0.0000000 )
                  (     0         -1          0      )       ( -0.0000000 )
                  (     0          0         -1      )       (  0.5000000 )

 cart.    s(10) = (  0.5000000  0.8660254  0.0000000 )    f =(  0.0000000 )
                  (  0.8660254 -0.5000000  0.0000000 )       ( -0.0000000 )
                  (  0.0000000  0.0000000 -1.0000000 )       (  0.8195565 )


      isym = 11     180 deg rotation - cryst. axis [0,1,0]       

 cryst.   s(11) = (    -1         -1          0      )
                  (     0          1          0      )
                  (     0          0         -1      )

 cart.    s(11) = ( -0.5000000 -0.8660254  0.0000000 )
                  ( -0.8660254  0.5000000  0.0000000 )
                  (  0.0000000  0.0000000 -1.0000000 )


      isym = 12     180 deg rotation - cryst. axis [1,1,0]       

 cryst.   s(12) = (     0          1          0      )
                  (     1          0          0      )
                  (     0          0         -1      )

 cart.    s(12) = ( -0.5000000  0.8660254  0.0000000 )
                  (  0.8660254  0.5000000  0.0000000 )
                  (  0.0000000  0.0000000 -1.0000000 )


      isym = 13     inversion                                    

 cryst.   s(13) = (    -1          0          0      )
                  (     0         -1          0      )
                  (     0          0         -1      )

 cart.    s(13) = ( -1.0000000  0.0000000  0.0000000 )
                  (  0.0000000 -1.0000000  0.0000000 )
                  (  0.0000000  0.0000000 -1.0000000 )


      isym = 14     inv. 180 deg rotation - cart. axis [0,0,1]   

 cryst.   s(14) = (     1          0          0      )    f =(  0.0000000 )
                  (     0          1          0      )       (  0.0000000 )
                  (     0          0         -1      )       (  0.5000000 )

 cart.    s(14) = (  1.0000000  0.0000000  0.0000000 )    f =(  0.0000000 )
                  (  0.0000000  1.0000000  0.0000000 )       (  0.0000000 )
                  (  0.0000000  0.0000000 -1.0000000 )       (  0.8195565 )


      isym = 15     inv. 180 deg rotation - cart. axis [0,1,0]   

 cryst.   s(15) = (     1          0          0      )    f =(  0.0000000 )
                  (    -1         -1          0      )       ( -0.0000000 )
                  (     0          0          1      )       ( -0.5000000 )

 cart.    s(15) = (  1.0000000  0.0000000  0.0000000 )    f =(  0.0000000 )
                  (  0.0000000 -1.0000000  0.0000000 )       ( -0.0000000 )
                  (  0.0000000  0.0000000  1.0000000 )       ( -0.8195565 )


      isym = 16     inv. 180 deg rotation - cart. axis [1,0,0]   

 cryst.   s(16) = (    -1          0          0      )
                  (     1          1          0      )
                  (     0          0          1      )

 cart.    s(16) = ( -1.0000000  0.0000000  0.0000000 )
                  (  0.0000000  1.0000000  0.0000000 )
                  (  0.0000000  0.0000000  1.0000000 )


      isym = 17     inv.  60 deg rotation - cryst. axis [0,0,1]  

 cryst.   s(17) = (    -1         -1          0      )    f =(  0.0000000 )
                  (     1          0          0      )       ( -0.0000000 )
                  (     0          0         -1      )       (  0.5000000 )

 cart.    s(17) = ( -0.5000000  0.8660254  0.0000000 )    f =(  0.0000000 )
                  ( -0.8660254 -0.5000000  0.0000000 )       ( -0.0000000 )
                  (  0.0000000  0.0000000 -1.0000000 )       (  0.8195565 )


      isym = 18     inv.  60 deg rotation - cryst. axis [0,0,-1] 

 cryst.   s(18) = (     0          1          0      )    f =( -0.0000000 )
                  (    -1         -1          0      )       ( -0.0000000 )
                  (     0          0         -1      )       (  0.5000000 )

 cart.    s(18) = ( -0.5000000 -0.8660254  0.0000000 )    f =(  0.0000000 )
                  (  0.8660254 -0.5000000  0.0000000 )       ( -0.0000000 )
                  (  0.0000000  0.0000000 -1.0000000 )       (  0.8195565 )


      isym = 19     inv. 120 deg rotation - cryst. axis [0,0,1]  

 cryst.   s(19) = (     0         -1          0      )
                  (     1          1          0      )
                  (     0          0         -1      )

 cart.    s(19) = (  0.5000000  0.8660254  0.0000000 )
                  ( -0.8660254  0.5000000  0.0000000 )
                  (  0.0000000  0.0000000 -1.0000000 )


      isym = 20     inv. 120 deg rotation - cryst. axis [0,0,-1] 

 cryst.   s(20) = (     1          1          0      )
                  (    -1          0          0      )
                  (     0          0         -1      )

 cart.    s(20) = (  0.5000000 -0.8660254  0.0000000 )
                  (  0.8660254  0.5000000  0.0000000 )
                  (  0.0000000  0.0000000 -1.0000000 )


      isym = 21     inv. 180 deg rotation - cryst. axis [1,-1,0] 

 cryst.   s(21) = (     0          1          0      )    f =(  0.0000000 )
                  (     1          0          0      )       ( -0.0000000 )
                  (     0          0          1      )       ( -0.5000000 )

 cart.    s(21) = ( -0.5000000  0.8660254  0.0000000 )    f =(  0.0000000 )
                  (  0.8660254  0.5000000  0.0000000 )       ( -0.0000000 )
                  (  0.0000000  0.0000000  1.0000000 )       ( -0.8195565 )


      isym = 22     inv. 180 deg rotation - cryst. axis [2,1,0]  

 cryst.   s(22) = (    -1         -1          0      )    f =(  0.0000000 )
                  (     0          1          0      )       ( -0.0000000 )
                  (     0          0          1      )       ( -0.5000000 )

 cart.    s(22) = ( -0.5000000 -0.8660254  0.0000000 )    f =(  0.0000000 )
                  ( -0.8660254  0.5000000  0.0000000 )       ( -0.0000000 )
                  (  0.0000000  0.0000000  1.0000000 )       ( -0.8195565 )


      isym = 23     inv. 180 deg rotation - cryst. axis [0,1,0]  

 cryst.   s(23) = (     1          1          0      )
                  (     0         -1          0      )
                  (     0          0          1      )

 cart.    s(23) = (  0.5000000  0.8660254  0.0000000 )
                  (  0.8660254 -0.5000000  0.0000000 )
                  (  0.0000000  0.0000000  1.0000000 )


      isym = 24     inv. 180 deg rotation - cryst. axis [1,1,0]  

 cryst.   s(24) = (     0         -1          0      )
                  (    -1          0          0      )
                  (     0          0          1      )

 cart.    s(24) = (  0.5000000 -0.8660254  0.0000000 )
                  ( -0.8660254 -0.5000000  0.0000000 )
                  (  0.0000000  0.0000000  1.0000000 )


     point group D_6h(6/mmm)
     there are 12 classes
     the character table:

       E     2C6   2C3   C2    3C2'  3C2'' i     2S3   2S6   s_h   3s_d  3s_v 
A_1g   1.00  1.00  1.00  1.00  1.00  1.00  1.00  1.00  1.00  1.00  1.00  1.00
A_2g   1.00  1.00  1.00  1.00 -1.00 -1.00  1.00  1.00  1.00  1.00 -1.00 -1.00
B_1g   1.00 -1.00  1.00 -1.00  1.00 -1.00  1.00 -1.00  1.00 -1.00  1.00 -1.00
B_2g   1.00 -1.00  1.00 -1.00 -1.00  1.00  1.00 -1.00  1.00 -1.00 -1.00  1.00
E_1g   2.00  1.00 -1.00 -2.00  0.00  0.00  2.00  1.00 -1.00 -2.00  0.00  0.00
E_2g   2.00 -1.00 -1.00  2.00  0.00  0.00  2.00 -1.00 -1.00  2.00  0.00  0.00
A_1u   1.00  1.00  1.00  1.00  1.00  1.00 -1.00 -1.00 -1.00 -1.00 -1.00 -1.00
A_2u   1.00  1.00  1.00  1.00 -1.00 -1.00 -1.00 -1.00 -1.00 -1.00  1.00  1.00
B_1u   1.00 -1.00  1.00 -1.00  1.00 -1.00 -1.00  1.00 -1.00  1.00 -1.00  1.00
B_2u   1.00 -1.00  1.00 -1.00 -1.00  1.00 -1.00  1.00 -1.00  1.00  1.00 -1.00
E_1u   2.00  1.00 -1.00 -2.00  0.00  0.00 -2.00 -1.00  1.00  2.00  0.00  0.00
E_2u   2.00 -1.00 -1.00  2.00  0.00  0.00 -2.00  1.00  1.00 -2.00  0.00  0.00

     the symmetry operations in each class and the name of the first element:

     E        1
          identity                                               
     2C6      5    6
           60 deg rotation - cryst. axis [0,0,1]                 
     2C3      7    8
          120 deg rotation - cryst. axis [0,0,1]                 
     C2       2
          180 deg rotation - cart. axis [0,0,1]                  
     3C2'     4   12   11
          180 deg rotation - cart. axis [1,0,0]                  
     3C2''    3    9   10
          180 deg rotation - cart. axis [0,1,0]                  
     i       13
          inversion                                              
     2S3     17   18
          inv.  60 deg rotation - cryst. axis [0,0,1]            
     2S6     19   20
          inv. 120 deg rotation - cryst. axis [0,0,1]            
     s_h     14
          inv. 180 deg rotation - cart. axis [0,0,1]             
     3s_d    16   24   23
          inv. 180 deg rotation - cart. axis [1,0,0]             
     3s_v    15   21   22
          inv. 180 deg rotation - cart. axis [0,1,0]             

   Cartesian axes

     site n.     atom                  positions (alat units)
         1           Co  tau(   1) = (  -0.0000000   0.5773503   0.4097782  )
         2           Co  tau(   2) = (   0.5000000   0.2886751   1.2293347  )

   Crystallographic axes

     site n.     atom                  positions (cryst. coord.)
         1           Co  tau(   1) = (  0.3333333  0.6666667  0.2500000  )
         2           Co  tau(   2) = (  0.6666667  0.3333333  0.7500000  )

     number of k points=    76  Gaussian smearing, width (Ry)=  0.0010
                       cart. coord. in units 2pi/alat
        k(    1) = (   0.0000000   0.0000000   0.0000000), wk =   0.0011574
        k(    2) = (   0.0000000   0.0000000   0.1016810), wk =   0.0023148
        k(    3) = (   0.0000000   0.0000000   0.2033620), wk =   0.0023148
        k(    4) = (   0.0000000   0.0000000  -0.3050431), wk =   0.0011574
        k(    5) = (   0.0000000   0.0962250   0.0000000), wk =   0.0069444
        k(    6) = (   0.0000000   0.0962250   0.1016810), wk =   0.0138889
        k(    7) = (   0.0000000   0.0962250   0.2033620), wk =   0.0138889
        k(    8) = (   0.0000000   0.0962250  -0.3050431), wk =   0.0069444
        k(    9) = (   0.0000000   0.1924501   0.0000000), wk =   0.0069444
        k(   10) = (   0.0000000   0.1924501   0.1016810), wk =   0.0138889
        k(   11) = (   0.0000000   0.1924501   0.2033620), wk =   0.0138889
        k(   12) = (   0.0000000   0.1924501  -0.3050431), wk =   0.0069444
        k(   13) = (   0.0000000   0.2886751   0.0000000), wk =   0.0069444
        k(   14) = (   0.0000000   0.2886751   0.1016810), wk =   0.0138889
        k(   15) = (   0.0000000   0.2886751   0.2033620), wk =   0.0138889
        k(   16) = (   0.0000000   0.2886751  -0.3050431), wk =   0.0069444
        k(   17) = (   0.0000000   0.3849002   0.0000000), wk =   0.0069444
        k(   18) = (   0.0000000   0.3849002   0.1016810), wk =   0.0138889
        k(   19) = (   0.0000000   0.3849002   0.2033620), wk =   0.0138889
        k(   20) = (   0.0000000   0.3849002  -0.3050431), wk =   0.0069444
        k(   21) = (   0.0000000   0.4811252   0.0000000), wk =   0.0069444
        k(   22) = (   0.0000000   0.4811252   0.1016810), wk =   0.0138889
        k(   23) = (   0.0000000   0.4811252   0.2033620), wk =   0.0138889
        k(   24) = (   0.0000000   0.4811252  -0.3050431), wk =   0.0069444
        k(   25) = (   0.0000000  -0.5773503   0.0000000), wk =   0.0034722
        k(   26) = (   0.0000000  -0.5773503   0.1016810), wk =   0.0069444
        k(   27) = (   0.0000000  -0.5773503   0.2033620), wk =   0.0069444
        k(   28) = (   0.0000000  -0.5773503  -0.3050431), wk =   0.0034722
        k(   29) = (   0.0833333   0.1443376   0.0000000), wk =   0.0069444
        k(   30) = (   0.0833333   0.1443376   0.1016810), wk =   0.0138889
        k(   31) = (   0.0833333   0.1443376   0.2033620), wk =   0.0138889
        k(   32) = (   0.0833333   0.1443376  -0.3050431), wk =   0.0069444
        k(   33) = (   0.0833333   0.2405626   0.0000000), wk =   0.0138889
        k(   34) = (   0.0833333   0.2405626   0.1016810), wk =   0.0277778
        k(   35) = (   0.0833333   0.2405626   0.2033620), wk =   0.0277778
        k(   36) = (   0.0833333   0.2405626  -0.3050431), wk =   0.0138889
        k(   37) = (   0.0833333   0.3367877   0.0000000), wk =   0.0138889
        k(   38) = (   0.0833333   0.3367877   0.1016810), wk =   0.0277778
        k(   39) = (   0.0833333   0.3367877   0.2033620), wk =   0.0277778
        k(   40) = (   0.0833333   0.3367877  -0.3050431), wk =   0.0138889
        k(   41) = (   0.0833333   0.4330127   0.0000000), wk =   0.0138889
        k(   42) = (   0.0833333   0.4330127   0.1016810), wk =   0.0277778
        k(   43) = (   0.0833333   0.4330127   0.2033620), wk =   0.0277778
        k(   44) = (   0.0833333   0.4330127  -0.3050431), wk =   0.0138889
        k(   45) = (   0.0833333   0.5292377   0.0000000), wk =   0.0138889
        k(   46) = (   0.0833333   0.5292377   0.1016810), wk =   0.0277778
        k(   47) = (   0.0833333   0.5292377   0.2033620), wk =   0.0277778
        k(   48) = (   0.0833333   0.5292377  -0.3050431), wk =   0.0138889
        k(   49) = (   0.1666667   0.2886751   0.0000000), wk =   0.0069444
        k(   50) = (   0.1666667   0.2886751   0.1016810), wk =   0.0138889
        k(   51) = (   0.1666667   0.2886751   0.2033620), wk =   0.0138889
        k(   52) = (   0.1666667   0.2886751  -0.3050431), wk =   0.0069444
        k(   53) = (   0.1666667   0.3849002   0.0000000), wk =   0.0138889
        k(   54) = (   0.1666667   0.3849002   0.1016810), wk =   0.0277778
        k(   55) = (   0.1666667   0.3849002   0.2033620), wk =   0.0277778
        k(   56) = (   0.1666667   0.3849002  -0.3050431), wk =   0.0138889
        k(   57) = (   0.1666667   0.4811252   0.0000000), wk =   0.0138889
        k(   58) = (   0.1666667   0.4811252   0.1016810), wk =   0.0277778
        k(   59) = (   0.1666667   0.4811252   0.2033620), wk =   0.0277778
        k(   60) = (   0.1666667   0.4811252  -0.3050431), wk =   0.0138889
        k(   61) = (   0.1666667   0.5773503   0.0000000), wk =   0.0069444
        k(   62) = (   0.1666667   0.5773503   0.1016810), wk =   0.0138889
        k(   63) = (   0.1666667   0.5773503   0.2033620), wk =   0.0138889
        k(   64) = (   0.1666667   0.5773503  -0.3050431), wk =   0.0069444
        k(   65) = (   0.2500000   0.4330127   0.0000000), wk =   0.0069444
        k(   66) = (   0.2500000   0.4330127   0.1016810), wk =   0.0138889
        k(   67) = (   0.2500000   0.4330127   0.2033620), wk =   0.0138889
        k(   68) = (   0.2500000   0.4330127  -0.3050431), wk =   0.0069444
        k(   69) = (   0.2500000   0.5292377   0.0000000), wk =   0.0138889
        k(   70) = (   0.2500000   0.5292377   0.1016810), wk =   0.0277778
        k(   71) = (   0.2500000   0.5292377   0.2033620), wk =   0.0277778
        k(   72) = (   0.2500000   0.5292377  -0.3050431), wk =   0.0138889
        k(   73) = (   0.3333333   0.5773503   0.0000000), wk =   0.0023148
        k(   74) = (   0.3333333   0.5773503   0.1016810), wk =   0.0046296
        k(   75) = (   0.3333333   0.5773503   0.2033620), wk =   0.0046296
        k(   76) = (   0.3333333   0.5773503  -0.3050431), wk =   0.0023148

                       cryst. coord.
        k(    1) = (   0.0000000   0.0000000   0.0000000), wk =   0.0011574
        k(    2) = (   0.0000000   0.0000000   0.1666667), wk =   0.0023148
        k(    3) = (   0.0000000   0.0000000   0.3333333), wk =   0.0023148
        k(    4) = (   0.0000000   0.0000000  -0.5000000), wk =   0.0011574
        k(    5) = (   0.0000000   0.0833333   0.0000000), wk =   0.0069444
        k(    6) = (   0.0000000   0.0833333   0.1666667), wk =   0.0138889
        k(    7) = (   0.0000000   0.0833333   0.3333333), wk =   0.0138889
        k(    8) = (   0.0000000   0.0833333  -0.5000000), wk =   0.0069444
        k(    9) = (   0.0000000   0.1666667   0.0000000), wk =   0.0069444
        k(   10) = (   0.0000000   0.1666667   0.1666667), wk =   0.0138889
        k(   11) = (   0.0000000   0.1666667   0.3333333), wk =   0.0138889
        k(   12) = (   0.0000000   0.1666667  -0.5000000), wk =   0.0069444
        k(   13) = (   0.0000000   0.2500000   0.0000000), wk =   0.0069444
        k(   14) = (   0.0000000   0.2500000   0.1666667), wk =   0.0138889
        k(   15) = (   0.0000000   0.2500000   0.3333333), wk =   0.0138889
        k(   16) = (   0.0000000   0.2500000  -0.5000000), wk =   0.0069444
        k(   17) = (   0.0000000   0.3333333   0.0000000), wk =   0.0069444
        k(   18) = (   0.0000000   0.3333333   0.1666667), wk =   0.0138889
        k(   19) = (   0.0000000   0.3333333   0.3333333), wk =   0.0138889
        k(   20) = (   0.0000000   0.3333333  -0.5000000), wk =   0.0069444
        k(   21) = (   0.0000000   0.4166667   0.0000000), wk =   0.0069444
        k(   22) = (   0.0000000   0.4166667   0.1666667), wk =   0.0138889
        k(   23) = (   0.0000000   0.4166667   0.3333333), wk =   0.0138889
        k(   24) = (   0.0000000   0.4166667  -0.5000000), wk =   0.0069444
        k(   25) = (   0.0000000  -0.5000000   0.0000000), wk =   0.0034722
        k(   26) = (   0.0000000  -0.5000000   0.1666667), wk =   0.0069444
        k(   27) = (   0.0000000  -0.5000000   0.3333333), wk =   0.0069444
        k(   28) = (   0.0000000  -0.5000000  -0.5000000), wk =   0.0034722
        k(   29) = (   0.0833333   0.0833333   0.0000000), wk =   0.0069444
        k(   30) = (   0.0833333   0.0833333   0.1666667), wk =   0.0138889
        k(   31) = (   0.0833333   0.0833333   0.3333333), wk =   0.0138889
        k(   32) = (   0.0833333   0.0833333  -0.5000000), wk =   0.0069444
        k(   33) = (   0.0833333   0.1666667   0.0000000), wk =   0.0138889
        k(   34) = (   0.0833333   0.1666667   0.1666667), wk =   0.0277778
        k(   35) = (   0.0833333   0.1666667   0.3333333), wk =   0.0277778
        k(   36) = (   0.0833333   0.1666667  -0.5000000), wk =   0.0138889
        k(   37) = (   0.0833333   0.2500000   0.0000000), wk =   0.0138889
        k(   38) = (   0.0833333   0.2500000   0.1666667), wk =   0.0277778
        k(   39) = (   0.0833333   0.2500000   0.3333333), wk =   0.0277778
        k(   40) = (   0.0833333   0.2500000  -0.5000000), wk =   0.0138889
        k(   41) = (   0.0833333   0.3333333   0.0000000), wk =   0.0138889
        k(   42) = (   0.0833333   0.3333333   0.1666667), wk =   0.0277778
        k(   43) = (   0.0833333   0.3333333   0.3333333), wk =   0.0277778
        k(   44) = (   0.0833333   0.3333333  -0.5000000), wk =   0.0138889
        k(   45) = (   0.0833333   0.4166667   0.0000000), wk =   0.0138889
        k(   46) = (   0.0833333   0.4166667   0.1666667), wk =   0.0277778
        k(   47) = (   0.0833333   0.4166667   0.3333333), wk =   0.0277778
        k(   48) = (   0.0833333   0.4166667  -0.5000000), wk =   0.0138889
        k(   49) = (   0.1666667   0.1666667   0.0000000), wk =   0.0069444
        k(   50) = (   0.1666667   0.1666667   0.1666667), wk =   0.0138889
        k(   51) = (   0.1666667   0.1666667   0.3333333), wk =   0.0138889
        k(   52) = (   0.1666667   0.1666667  -0.5000000), wk =   0.0069444
        k(   53) = (   0.1666667   0.2500000   0.0000000), wk =   0.0138889
        k(   54) = (   0.1666667   0.2500000   0.1666667), wk =   0.0277778
        k(   55) = (   0.1666667   0.2500000   0.3333333), wk =   0.0277778
        k(   56) = (   0.1666667   0.2500000  -0.5000000), wk =   0.0138889
        k(   57) = (   0.1666667   0.3333333   0.0000000), wk =   0.0138889
        k(   58) = (   0.1666667   0.3333333   0.1666667), wk =   0.0277778
        k(   59) = (   0.1666667   0.3333333   0.3333333), wk =   0.0277778
        k(   60) = (   0.1666667   0.3333333  -0.5000000), wk =   0.0138889
        k(   61) = (   0.1666667   0.4166667   0.0000000), wk =   0.0069444
        k(   62) = (   0.1666667   0.4166667   0.1666667), wk =   0.0138889
        k(   63) = (   0.1666667   0.4166667   0.3333333), wk =   0.0138889
        k(   64) = (   0.1666667   0.4166667  -0.5000000), wk =   0.0069444
        k(   65) = (   0.2500000   0.2500000   0.0000000), wk =   0.0069444
        k(   66) = (   0.2500000   0.2500000   0.1666667), wk =   0.0138889
        k(   67) = (   0.2500000   0.2500000   0.3333333), wk =   0.0138889
        k(   68) = (   0.2500000   0.2500000  -0.5000000), wk =   0.0069444
        k(   69) = (   0.2500000   0.3333333   0.0000000), wk =   0.0138889
        k(   70) = (   0.2500000   0.3333333   0.1666667), wk =   0.0277778
        k(   71) = (   0.2500000   0.3333333   0.3333333), wk =   0.0277778
        k(   72) = (   0.2500000   0.3333333  -0.5000000), wk =   0.0138889
        k(   73) = (   0.3333333   0.3333333   0.0000000), wk =   0.0023148
        k(   74) = (   0.3333333   0.3333333   0.1666667), wk =   0.0046296
        k(   75) = (   0.3333333   0.3333333   0.3333333), wk =   0.0046296
        k(   76) = (   0.3333333   0.3333333  -0.5000000), wk =   0.0023148

     Dense  grid:    23607 G-vectors     FFT dimensions: (  32,  32,  54)

     Smooth grid:    22767 G-vectors     FFT dimensions: (  32,  32,  54)

     Dynamical RAM for                 wfc:       0.05 MB

     Dynamical RAM for     wfc (w. buffer):       6.96 MB

     Dynamical RAM for           str. fact:       0.02 MB

     Dynamical RAM for           local pot:       0.00 MB

     Dynamical RAM for          nlocal pot:       0.08 MB

     Dynamical RAM for                qrad:       1.70 MB

     Dynamical RAM for          rho,v,vnew:       0.25 MB

     Dynamical RAM for               rhoin:       0.08 MB

     Dynamical RAM for            rho*nmix:       0.57 MB

     Dynamical RAM for           G-vectors:       0.08 MB

     Dynamical RAM for          h,s,v(r/c):       0.08 MB

     Dynamical RAM for          <psi|beta>:       0.01 MB

     Dynamical RAM for                 psi:       0.09 MB

     Dynamical RAM for                hpsi:       0.09 MB

     Dynamical RAM for                spsi:       0.09 MB

     Dynamical RAM for      wfcinit/wfcrot:       0.10 MB

     Dynamical RAM for           addusdens:       3.39 MB

     Estimated static dynamical RAM per process >       9.34 MB

     Estimated max dynamical RAM per process >      13.31 MB

     Estimated total dynamical RAM >     266.26 MB

     Check: negative core charge=   -0.000042
     Generating pointlists ...
     new r_m :   0.4125 (alat units)  1.9332 (a.u.) for type    1

     The initial density is read from file :
     ./out/Co.save/charge-density


     starting charge      34.0419, renormalised to      34.0000

     negative rho (up, down):  3.312E-04 1.233E-04
     Starting wfcs from file
     Checking if some PAW data can be deallocated... 

     total cpu time spent up to now is        0.6 secs

     Self-consistent Calculation

     iteration #  1     ecut=   110.00 Ry     beta= 0.70
     Davidson diagonalization with overlap

---- Real-time Memory Report at c_bands before calling an iterative solver
            55 MiB given to the printing process from OS
             0 MiB allocation reported by mallinfo(arena+hblkhd)
        352287 MiB available memory on the node where the printing process lives
------------------
     ethr =  1.00E-05,  avg # of iterations =  5.5

     total cpu time spent up to now is        3.1 secs

     total energy              =    -753.43057258 Ry
     estimated scf accuracy    <       0.01141928 Ry

     total magnetization       =     3.33 Bohr mag/cell
     absolute magnetization    =     3.60 Bohr mag/cell

     iteration #  2     ecut=   110.00 Ry     beta= 0.70
     Davidson diagonalization with overlap

---- Real-time Memory Report at c_bands before calling an iterative solver
            79 MiB given to the printing process from OS
             0 MiB allocation reported by mallinfo(arena+hblkhd)
        352048 MiB available memory on the node where the printing process lives
------------------
     ethr =  3.36E-05,  avg # of iterations =  5.7

     total cpu time spent up to now is        5.5 secs

     total energy              =    -753.44065562 Ry
     estimated scf accuracy    <       0.06063891 Ry

     total magnetization       =     3.38 Bohr mag/cell
     absolute magnetization    =     3.70 Bohr mag/cell

     iteration #  3     ecut=   110.00 Ry     beta= 0.70
     Davidson diagonalization with overlap

---- Real-time Memory Report at c_bands before calling an iterative solver
            80 MiB given to the printing process from OS
             0 MiB allocation reported by mallinfo(arena+hblkhd)
        352037 MiB available memory on the node where the printing process lives
------------------
     ethr =  3.36E-05,  avg # of iterations =  4.1

     total cpu time spent up to now is        7.3 secs

     total energy              =    -753.45401789 Ry
     estimated scf accuracy    <       0.00256889 Ry

     total magnetization       =     3.36 Bohr mag/cell
     absolute magnetization    =     3.67 Bohr mag/cell

     iteration #  4     ecut=   110.00 Ry     beta= 0.70
     Davidson diagonalization with overlap

---- Real-time Memory Report at c_bands before calling an iterative solver
            81 MiB given to the printing process from OS
             0 MiB allocation reported by mallinfo(arena+hblkhd)
        352028 MiB available memory on the node where the printing process lives
------------------
     ethr =  7.56E-06,  avg # of iterations =  3.4

     total cpu time spent up to now is        9.1 secs

     total energy              =    -753.45487609 Ry
     estimated scf accuracy    <       0.00002444 Ry

     total magnetization       =     3.36 Bohr mag/cell
     absolute magnetization    =     3.67 Bohr mag/cell

     iteration #  5     ecut=   110.00 Ry     beta= 0.70
     Davidson diagonalization with overlap

---- Real-time Memory Report at c_bands before calling an iterative solver
            82 MiB given to the printing process from OS
             0 MiB allocation reported by mallinfo(arena+hblkhd)
        352021 MiB available memory on the node where the printing process lives
------------------
     ethr =  7.19E-08,  avg # of iterations =  9.1

     total cpu time spent up to now is       12.3 secs

     total energy              =    -753.45495443 Ry
     estimated scf accuracy    <       0.00011391 Ry

     total magnetization       =     3.36 Bohr mag/cell
     absolute magnetization    =     3.67 Bohr mag/cell

     iteration #  6     ecut=   110.00 Ry     beta= 0.70
     Davidson diagonalization with overlap

---- Real-time Memory Report at c_bands before calling an iterative solver
            83 MiB given to the printing process from OS
             0 MiB allocation reported by mallinfo(arena+hblkhd)
        352010 MiB available memory on the node where the printing process lives
------------------
     ethr =  7.19E-08,  avg # of iterations =  5.5

     total cpu time spent up to now is       14.7 secs

     total energy              =    -753.45498483 Ry
     estimated scf accuracy    <       0.00004351 Ry

     total magnetization       =     3.36 Bohr mag/cell
     absolute magnetization    =     3.68 Bohr mag/cell

     iteration #  7     ecut=   110.00 Ry     beta= 0.70
     Davidson diagonalization with overlap

---- Real-time Memory Report at c_bands before calling an iterative solver
            85 MiB given to the printing process from OS
             0 MiB allocation reported by mallinfo(arena+hblkhd)
        352001 MiB available memory on the node where the printing process lives
------------------
     ethr =  7.19E-08,  avg # of iterations =  4.0
 
     Magnetic moment per site  (integrated on atomic sphere of radius R)
     atom   1 (R=0.413)  charge= 15.5969  magn=  1.7526
     atom   2 (R=0.413)  charge= 15.5969  magn=  1.7526

     total cpu time spent up to now is       16.4 secs

     End of self-consistent calculation

 ------ SPIN UP ------------


          k = 0.0000 0.0000 0.0000 (  2839 PWs)   bands (ev):

   -77.4181 -77.3643 -40.8190 -40.5175 -40.5175 -40.5010 -40.4731 -40.4731
     9.7164  13.5050  15.9998  16.1012  16.1012  16.4006  16.4006  16.7839
    16.7839  17.8429  17.8429  18.3409  24.8421

     occupation numbers 
     1.0000   1.0000   1.0000   1.0000   1.0000   1.0000   1.0000   1.0000
     1.0000   1.0000   1.0000   1.0000   1.0000   1.0000   1.0000   1.0000
     1.0000   1.0000   1.0000   1.0000   0.0000

          k = 0.0000 0.0000 0.1017 (  2851 PWs)   bands (ev):

   -77.4145 -77.3679 -40.7980 -40.5226 -40.5146 -40.5146 -40.4761 -40.4761
     9.9888  13.4281  15.9324  16.0441  16.0441  16.3323  16.3323  16.9352
    16.9352  17.4146  17.8246  17.8246  26.3334

     occupation numbers 
     1.0000   1.0000   1.0000   1.0000   1.0000   1.0000   1.0000   1.0000
     1.0000   1.0000   1.0000   1.0000   1.0000   1.0000   1.0000   1.0000
     1.0000   1.0000   1.0000   1.0000   0.0000

          k = 0.0000 0.0000 0.2034 (  2846 PWs)   bands (ev):

   -77.4047 -77.3778 -40.7403 -40.5813 -40.5064 -40.5064 -40.4842 -40.4842
    10.7703  12.9732  15.7771  15.9950  15.9950  16.1409  16.1806  16.1806
    17.2400  17.2400  17.7356  17.7356  29.4970

     occupation numbers 
     1.0000   1.0000   1.0000   1.0000   1.0000   1.0000   1.0000   1.0000
     1.0000   1.0000   1.0000   1.0000   1.0000   1.0000   1.0000   1.0000
     1.0000   1.0000   1.0000   1.0000   0.0000

          k = 0.0000 0.0000-0.3050 (  2834 PWs)   bands (ev):

   -77.3913 -77.3913 -40.6611 -40.6611 -40.4953 -40.4953 -40.4953 -40.4953
    11.9111  11.9111  15.7054  15.7054  16.0446  16.0446  16.0446  16.0446
    17.5346  17.5346  17.5346  17.5346  33.2827

     occupation numbers 
     1.0000   1.0000   1.0000   1.0000   1.0000   1.0000   1.0000   1.0000
     1.0000   1.0000   1.0000   1.0000   1.0000   1.0000   1.0000   1.0000
     1.0000   1.0000   1.0000   1.0000   0.0000

          k = 0.0000 0.0962 0.0000 (  2829 PWs)   bands (ev):

   -77.4148 -77.3627 -40.8119 -40.5340 -40.5228 -40.5037 -40.4901 -40.4760
     9.9608  13.6549  15.8402  16.2168  16.2266  16.3486  16.5038  16.6107
    16.7130  17.0108  17.8715  19.5083  24.8821

     occupation numbers 
     1.0000   1.0000   1.0000   1.0000   1.0000   1.0000   1.0000   1.0000
     1.0000   1.0000   1.0000   1.0000   1.0000   1.0000   1.0000   1.0000
     1.0000   1.0000   1.0000   0.0000   0.0000

          k = 0.0000 0.0962 0.1017 (  2839 PWs)   bands (ev):

   -77.4114 -77.3662 -40.7920 -40.5309 -40.5279 -40.5196 -40.4893 -40.4791
    10.2290  13.5924  15.8395  16.0649  16.1446  16.1689  16.4298  16.6852
    16.8892  16.9506  17.8461  18.7666  26.4436

     occupation numbers 
     1.0000   1.0000   1.0000   1.0000   1.0000   1.0000   1.0000   1.0000
     1.0000   1.0000   1.0000   1.0000   1.0000   1.0000   1.0000   1.0000
     1.0000   1.0000   1.0000   0.0000   0.0000

          k = 0.0000 0.0962 0.2034 (  2860 PWs)   bands (ev):

   -77.4018 -77.3758 -40.7375 -40.5862 -40.5211 -40.5111 -40.4964 -40.4877
    10.9981  13.1649  15.7238  15.7645  15.9127  16.0882  16.2765  16.3097
    17.2134  17.2552  17.7409  18.0298  29.6532

     occupation numbers 
     1.0000   1.0000   1.0000   1.0000   1.0000   1.0000   1.0000   1.0000
     1.0000   1.0000   1.0000   1.0000   1.0000   1.0000   1.0000   1.0000
     1.0000   1.0000   1.0000   1.0000   0.0000

          k = 0.0000 0.0962-0.3050 (  2850 PWs)   bands (ev):

   -77.3888 -77.3888 -40.6623 -40.6623 -40.5086 -40.5086 -40.4994 -40.4994
    12.1206  12.1206  15.5745  15.5745  16.0430  16.0430  16.1388  16.1388
    17.5229  17.5229  17.6241  17.6241  33.4547

     occupation numbers 
     1.0000   1.0000   1.0000   1.0000   1.0000   1.0000   1.0000   1.0000
     1.0000   1.0000   1.0000   1.0000   1.0000   1.0000   1.0000   1.0000
     1.0000   1.0000   1.0000   1.0000   0.0000

          k = 0.0000 0.1925 0.0000 (  2841 PWs)   bands (ev):

   -77.4057 -77.3583 -40.7918 -40.5790 -40.5368 -40.5361 -40.5119 -40.4840
    10.6674  14.0264  15.5821  15.8330  16.1585  16.5286  16.5383  16.5433
    16.6907  16.7931  17.9314  21.1033  25.0240

     occupation numbers 
     1.0000   1.0000   1.0000   1.0000   1.0000   1.0000   1.0000   1.0000
     1.0000   1.0000   1.0000   1.0000   1.0000   1.0000   1.0000   1.0000
     1.0000   1.0000   1.0000   0.0000   0.0000

          k = 0.0000 0.1925 0.1017 (  2836 PWs)   bands (ev):

   -77.4026 -77.3615 -40.7756 -40.5745 -40.5565 -40.5333 -40.5126 -40.4876
    10.9197  14.0080  15.5647  15.6231  16.0387  16.3659  16.4183  16.6833
    16.8626  16.9337  17.8906  19.9911  26.8027

     occupation numbers 
     1.0000   1.0000   1.0000   1.0000   1.0000   1.0000   1.0000   1.0000
     1.0000   1.0000   1.0000   1.0000   1.0000   1.0000   1.0000   1.0000
     1.0000   1.0000   1.0000   0.0000   0.0000

          k = 0.0000 0.1925 0.2034 (  2842 PWs)   bands (ev):

   -77.3939 -77.3702 -40.7312 -40.6071 -40.5589 -40.5237 -40.5227 -40.4973
    11.6400  13.6608  15.2355  15.6817  15.7600  16.2475  16.3166  16.5416
    17.1845  17.3337  17.7522  18.6670  30.1209

     occupation numbers 
     1.0000   1.0000   1.0000   1.0000   1.0000   1.0000   1.0000   1.0000
     1.0000   1.0000   1.0000   1.0000   1.0000   1.0000   1.0000   1.0000
     1.0000   1.0000   1.0000   1.0000   0.0000

          k = 0.0000 0.1925-0.3050 (  2852 PWs)   bands (ev):

   -77.3821 -77.3821 -40.6698 -40.6698 -40.5403 -40.5403 -40.5105 -40.5105
    12.6848  12.6848  15.3550  15.3550  15.9744  15.9744  16.3896  16.3896
    17.5060  17.5060  17.8656  17.8656  33.9307

     occupation numbers 
     1.0000   1.0000   1.0000   1.0000   1.0000   1.0000   1.0000   1.0000
     1.0000   1.0000   1.0000   1.0000   1.0000   1.0000   1.0000   1.0000
     1.0000   1.0000   1.0000   1.0000   0.0000

          k = 0.0000 0.2887 0.0000 (  2828 PWs)   bands (ev):

   -77.3928 -77.3528 -40.7617 -40.6411 -40.5979 -40.5555 -40.5257 -40.4955
    11.7356  14.3236  15.1087  15.4276  16.0499  16.3281  16.4816  16.9661
    17.0171  17.2088  17.9864  22.8962  25.3038

     occupation numbers 
     1.0000   1.0000   1.0000   1.0000   1.0000   1.0000   1.0000   1.0000
     1.0000   1.0000   1.0000   1.0000   1.0000   1.0000   1.0000   1.0000
     1.0000   1.0000   1.0000   0.0000   0.0000

          k = 0.0000 0.2887 0.1017 (  2826 PWs)   bands (ev):

   -77.3902 -77.3555 -40.7540 -40.6323 -40.6116 -40.5515 -40.5286 -40.4995
    11.9450  14.3581  14.9702  15.4793  15.9033  16.3672  16.4795  17.0565
    17.0934  17.1675  17.9328  21.2662  27.4518

     occupation numbers 
     1.0000   1.0000   1.0000   1.0000   1.0000   1.0000   1.0000   1.0000
     1.0000   1.0000   1.0000   1.0000   1.0000   1.0000   1.0000   1.0000
     1.0000   1.0000   1.0000   0.0000   0.0000

          k = 0.0000 0.2887 0.2034 (  2856 PWs)   bands (ev):

   -77.3828 -77.3628 -40.7309 -40.6529 -40.6008 -40.5425 -40.5405 -40.5105
    12.5287  14.0993  14.9085  15.4936  15.7917  16.3239  16.4889  16.9134
    17.3104  17.4867  17.7783  19.4342  30.7931

     occupation numbers 
     1.0000   1.0000   1.0000   1.0000   1.0000   1.0000   1.0000   1.0000
     1.0000   1.0000   1.0000   1.0000   1.0000   1.0000   1.0000   1.0000
     1.0000   1.0000   1.0000   0.0000   0.0000

          k = 0.0000 0.2887-0.3050 (  2858 PWs)   bands (ev):

   -77.3729 -77.3729 -40.6947 -40.6947 -40.5689 -40.5689 -40.5255 -40.5255
    13.3385  13.3385  15.1998  15.1998  16.0368  16.0368  16.6856  16.6856
    17.5517  17.5517  18.2066  18.2066  33.1629

     occupation numbers 
     1.0000   1.0000   1.0000   1.0000   1.0000   1.0000   1.0000   1.0000
     1.0000   1.0000   1.0000   1.0000   1.0000   1.0000   1.0000   1.0000
     1.0000   1.0000   1.0000   1.0000   0.0000

          k = 0.0000 0.3849 0.0000 (  2852 PWs)   bands (ev):

   -77.3791 -77.3482 -40.7265 -40.7036 -40.6587 -40.5737 -40.5445 -40.5073
    12.8987  14.2525  14.5900  15.5428  16.1385  16.1739  16.2885  17.5231
    17.6587  17.6714  18.0227  24.8508  25.4287

     occupation numbers 
     1.0000   1.0000   1.0000   1.0000   1.0000   1.0000   1.0000   1.0000
     1.0000   1.0000   1.0000   1.0000   1.0000   1.0000   1.0000   1.0000
     1.0000   1.0000   1.0000   0.0000   0.0000

          k = 0.0000 0.3849 0.1017 (  2849 PWs)   bands (ev):

   -77.3770 -77.3502 -40.7446 -40.6815 -40.6622 -40.5693 -40.5450 -40.5118
    12.9938  14.2733  14.6309  15.3830  16.1124  16.2293  16.6406  17.5345
    17.5701  17.6076  17.9773  22.5095  27.6805

     occupation numbers 
     1.0000   1.0000   1.0000   1.0000   1.0000   1.0000   1.0000   1.0000
     1.0000   1.0000   1.0000   1.0000   1.0000   1.0000   1.0000   1.0000
     1.0000   1.0000   1.0000   0.0000   0.0000

          k = 0.0000 0.3849 0.2034 (  2841 PWs)   bands (ev):

   -77.3713 -77.3559 -40.7509 -40.7075 -40.6207 -40.5572 -40.5542 -40.5240
    13.2628  14.0831  14.7798  15.2760  16.2336  16.4854  16.9642  17.2493
    17.6389  17.7168  17.8750  20.3236  28.8627

     occupation numbers 
     1.0000   1.0000   1.0000   1.0000   1.0000   1.0000   1.0000   1.0000
     1.0000   1.0000   1.0000   1.0000   1.0000   1.0000   1.0000   1.0000
     1.0000   1.0000   1.0000   0.0000   0.0000

          k = 0.0000 0.3849-0.3050 (  2860 PWs)   bands (ev):

   -77.3636 -77.3636 -40.7365 -40.7365 -40.5802 -40.5802 -40.5406 -40.5406
    13.6598  13.6598  15.0620  15.0620  16.6498  16.6498  16.8553  16.8553
    17.7536  17.7536  18.6890  18.6890  29.9642

     occupation numbers 
     1.0000   1.0000   1.0000   1.0000   1.0000   1.0000   1.0000   1.0000
     1.0000   1.0000   1.0000   1.0000   1.0000   1.0000   1.0000   1.0000
     1.0000   1.0000   0.9940   0.9940   0.0000

          k = 0.0000 0.4811 0.0000 (  2854 PWs)   bands (ev):

   -77.3678 -77.3459 -40.7497 -40.7025 -40.6941 -40.5869 -40.5650 -40.5162
    13.6576  14.0614  14.2815  15.9050  16.0089  16.1511  16.3856  17.9029
    18.0298  18.0411  18.8080  23.7261  26.8712

     occupation numbers 
     1.0000   1.0000   1.0000   1.0000   1.0000   1.0000   1.0000   1.0000
     1.0000   1.0000   1.0000   1.0000   1.0000   1.0000   1.0000   1.0000
     1.0000   1.0000   0.0000   0.0000   0.0000

          k = 0.0000 0.4811 0.1017 (  2848 PWs)   bands (ev):

   -77.3664 -77.3474 -40.7669 -40.7187 -40.6638 -40.5822 -40.5618 -40.5209
    13.5456  14.0495  14.5952  15.2717  16.1192  16.3958  17.0055  17.8073
    17.9291  18.0819  18.6484  22.9029  26.2850

     occupation numbers 
     1.0000   1.0000   1.0000   1.0000   1.0000   1.0000   1.0000   1.0000
     1.0000   1.0000   1.0000   1.0000   1.0000   1.0000   1.0000   1.0000
     1.0000   1.0000   1.0000   0.0000   0.0000

          k = 0.0000 0.4811 0.2034 (  2847 PWs)   bands (ev):

   -77.3624 -77.3514 -40.7804 -40.7489 -40.6183 -40.5693 -40.5632 -40.5339
    13.5089  13.9736  14.7633  15.0720  16.4322  16.6636  17.3957  17.9624
    17.9687  18.0591  18.3315  21.1774  26.4610

     occupation numbers 
     1.0000   1.0000   1.0000   1.0000   1.0000   1.0000   1.0000   1.0000
     1.0000   1.0000   1.0000   1.0000   1.0000   1.0000   1.0000   1.0000
     1.0000   1.0000   1.0000   0.0000   0.0000

          k = 0.0000 0.4811-0.3050 (  2844 PWs)   bands (ev):

   -77.3569 -77.3569 -40.7735 -40.7735 -40.5818 -40.5818 -40.5516 -40.5516
    13.6878  13.6878  14.9349  14.9349  16.8910  16.8910  17.3754  17.3754
    18.0121  18.0121  19.5354  19.5354  27.2325

     occupation numbers 
     1.0000   1.0000   1.0000   1.0000   1.0000   1.0000   1.0000   1.0000
     1.0000   1.0000   1.0000   1.0000   1.0000   1.0000   1.0000   1.0000
     1.0000   1.0000   0.0000   0.0000   0.0000

          k = 0.0000-0.5774 0.0000 (  2846 PWs)   bands (ev):

   -77.3632 -77.3456 -40.7666 -40.7184 -40.6789 -40.5917 -40.5757 -40.5194
    13.9084  13.9238  14.1794  15.9631  16.1014  16.1604  16.4591  18.0404
    18.0465  18.1798  19.9808  22.0106  28.1845

     occupation numbers 
     1.0000   1.0000   1.0000   1.0000   1.0000   1.0000   1.0000   1.0000
     1.0000   1.0000   1.0000   1.0000   1.0000   1.0000   1.0000   1.0000
     1.0000   1.0000   0.0000   0.0000   0.0000

          k = 0.0000-0.5774 0.1017 (  2842 PWs)   bands (ev):

   -77.3620 -77.3468 -40.7801 -40.7337 -40.6552 -40.5868 -40.5704 -40.5243
    13.6425  13.9547  14.6264  15.2431  16.0790  16.4808  17.2119  17.8545
    18.0731  18.1725  19.7689  21.8266  27.3587

     occupation numbers 
     1.0000   1.0000   1.0000   1.0000   1.0000   1.0000   1.0000   1.0000
     1.0000   1.0000   1.0000   1.0000   1.0000   1.0000   1.0000   1.0000
     1.0000   1.0000   0.0000   0.0000   0.0000

          k = 0.0000-0.5774 0.2034 (  2864 PWs)   bands (ev):

   -77.3588 -77.3500 -40.7934 -40.7642 -40.6140 -40.5737 -40.5676 -40.5375
    13.5275  13.9302  14.7912  14.9765  16.4082  16.8043  17.4241  18.0883
    18.0957  18.1522  19.4386  21.2127  26.3341

     occupation numbers 
     1.0000   1.0000   1.0000   1.0000   1.0000   1.0000   1.0000   1.0000
     1.0000   1.0000   1.0000   1.0000   1.0000   1.0000   1.0000   1.0000
     1.0000   1.0000   0.0000   0.0000   0.0000

          k = 0.0000-0.5774-0.3050 (  2852 PWs)   bands (ev):

   -77.3544 -77.3544 -40.7879 -40.7879 -40.5816 -40.5816 -40.5556 -40.5556
    13.6714  13.6714  14.8857  14.8857  16.8918  16.8918  17.6127  17.6127
    18.1243  18.1243  20.2036  20.2036  25.9639

     occupation numbers 
     1.0000   1.0000   1.0000   1.0000   1.0000   1.0000   1.0000   1.0000
     1.0000   1.0000   1.0000   1.0000   1.0000   1.0000   1.0000   1.0000
     1.0000   1.0000   0.0000   0.0000   0.0000

          k = 0.0833 0.1443 0.0000 (  2835 PWs)   bands (ev):

   -77.4086 -77.3597 -40.7983 -40.5620 -40.5400 -40.5146 -40.5091 -40.4836
    10.4372  13.9218  15.6371  16.0810  16.2391  16.3724  16.4528  16.4999
    16.7294  16.8223  17.9049  20.6574  24.9751

     occupation numbers 
     1.0000   1.0000   1.0000   1.0000   1.0000   1.0000   1.0000   1.0000
     1.0000   1.0000   1.0000   1.0000   1.0000   1.0000   1.0000   1.0000
     1.0000   1.0000   1.0000   0.0000   0.0000

          k = 0.0833 0.1443 0.1017 (  2849 PWs)   bands (ev):

   -77.4054 -77.3630 -40.7809 -40.5576 -40.5487 -40.5297 -40.5044 -40.4869
    10.6955  13.8891  15.6658  15.7521  16.0855  16.3109  16.4006  16.5977
    16.8733  16.9384  17.8717  19.6589  26.6802

     occupation numbers 
     1.0000   1.0000   1.0000   1.0000   1.0000   1.0000   1.0000   1.0000
     1.0000   1.0000   1.0000   1.0000   1.0000   1.0000   1.0000   1.0000
     1.0000   1.0000   1.0000   0.0000   0.0000

          k = 0.0833 0.1443 0.2034 (  2848 PWs)   bands (ev):

   -77.3964 -77.3720 -40.7328 -40.5989 -40.5457 -40.5255 -40.5100 -40.4960
    11.4347  13.5153  15.3576  15.7251  15.7745  16.2285  16.2811  16.4604
    17.2137  17.2829  17.7510  18.4825  29.9678

     occupation numbers 
     1.0000   1.0000   1.0000   1.0000   1.0000   1.0000   1.0000   1.0000
     1.0000   1.0000   1.0000   1.0000   1.0000   1.0000   1.0000   1.0000
     1.0000   1.0000   1.0000   1.0000   0.0000

          k = 0.0833 0.1443-0.3050 (  2836 PWs)   bands (ev):

   -77.3842 -77.3842 -40.6665 -40.6665 -40.5306 -40.5306 -40.5075 -40.5075
    12.5111  12.5111  15.4119  15.4119  15.9768  15.9768  16.3234  16.3234
    17.5113  17.5113  17.7903  17.7903  33.7873

     occupation numbers 
     1.0000   1.0000   1.0000   1.0000   1.0000   1.0000   1.0000   1.0000
     1.0000   1.0000   1.0000   1.0000   1.0000   1.0000   1.0000   1.0000
     1.0000   1.0000   1.0000   1.0000   0.0000

          k = 0.0833 0.2406 0.0000 (  2830 PWs)   bands (ev):

   -77.3976 -77.3548 -40.7731 -40.6117 -40.5837 -40.5418 -40.5202 -40.4965
    11.3333  14.3034  15.3720  15.3730  16.1030  16.2682  16.6342  16.6736
    16.8833  17.1536  17.9444  22.2500  25.2068

     occupation numbers 
     1.0000   1.0000   1.0000   1.0000   1.0000   1.0000   1.0000   1.0000
     1.0000   1.0000   1.0000   1.0000   1.0000   1.0000   1.0000   1.0000
     1.0000   1.0000   1.0000   0.0000   0.0000

          k = 0.0833 0.2406 0.1017 (  2828 PWs)   bands (ev):

   -77.3948 -77.3577 -40.7614 -40.6056 -40.5936 -40.5468 -40.5199 -40.5000
    11.5644  14.3294  15.1667  15.4224  15.9898  16.2608  16.4978  16.7908
    17.0665  17.1296  17.9070  20.8276  27.2054

     occupation numbers 
     1.0000   1.0000   1.0000   1.0000   1.0000   1.0000   1.0000   1.0000
     1.0000   1.0000   1.0000   1.0000   1.0000   1.0000   1.0000   1.0000
     1.0000   1.0000   1.0000   0.0000   0.0000

          k = 0.0833 0.2406 0.2034 (  2842 PWs)   bands (ev):

   -77.3869 -77.3655 -40.7286 -40.6331 -40.5836 -40.5475 -40.5254 -40.5097
    12.2175  14.0395  14.9920  15.5299  15.7195  16.1435  16.4643  16.7842
    17.3038  17.4058  17.7883  19.1683  30.5853

     occupation numbers 
     1.0000   1.0000   1.0000   1.0000   1.0000   1.0000   1.0000   1.0000
     1.0000   1.0000   1.0000   1.0000   1.0000   1.0000   1.0000   1.0000
     1.0000   1.0000   1.0000   0.0000   0.0000

          k = 0.0833 0.2406-0.3050 (  2840 PWs)   bands (ev):

   -77.3762 -77.3762 -40.6821 -40.6821 -40.5603 -40.5603 -40.5218 -40.5218
    13.1497  13.1497  15.2606  15.2606  15.8674  15.8674  16.6078  16.6078
    17.5568  17.5568  18.0847  18.0847  34.2480

     occupation numbers 
     1.0000   1.0000   1.0000   1.0000   1.0000   1.0000   1.0000   1.0000
     1.0000   1.0000   1.0000   1.0000   1.0000   1.0000   1.0000   1.0000
     1.0000   1.0000   1.0000   1.0000   0.0000

          k = 0.0833 0.3368 0.0000 (  2840 PWs)   bands (ev):

   -77.3842 -77.3497 -40.7402 -40.6725 -40.6370 -40.5674 -40.5368 -40.5105
    12.4871  14.4255  14.8047  15.3121  16.0760  16.1018  16.4665  17.0553
    17.3937  17.7290  17.9768  24.0859  25.5723

     occupation numbers 
     1.0000   1.0000   1.0000   1.0000   1.0000   1.0000   1.0000   1.0000
     1.0000   1.0000   1.0000   1.0000   1.0000   1.0000   1.0000   1.0000
     1.0000   1.0000   1.0000   0.0000   0.0000

          k = 0.0833 0.3368 0.1017 (  2842 PWs)   bands (ev):

   -77.3819 -77.3521 -40.7426 -40.6612 -40.6426 -40.5677 -40.5366 -40.5139
    12.6470  14.4807  14.7188  15.3564  15.9020  16.3036  16.4359  17.0889
    17.4769  17.5848  17.9944  22.0901  27.9723

     occupation numbers 
     1.0000   1.0000   1.0000   1.0000   1.0000   1.0000   1.0000   1.0000
     1.0000   1.0000   1.0000   1.0000   1.0000   1.0000   1.0000   1.0000
     1.0000   1.0000   1.0000   0.0000   0.0000

          k = 0.0833 0.3368 0.2034 (  2843 PWs)   bands (ev):

   -77.3756 -77.3584 -40.7370 -40.6836 -40.6137 -40.5647 -40.5420 -40.5237
    13.0805  14.2213  14.8411  15.4101  15.8271  16.3061  16.5225  17.1075
    17.5276  17.6948  17.9691  20.0231  30.4860

     occupation numbers 
     1.0000   1.0000   1.0000   1.0000   1.0000   1.0000   1.0000   1.0000
     1.0000   1.0000   1.0000   1.0000   1.0000   1.0000   1.0000   1.0000
     1.0000   1.0000   1.0000   0.0000   0.0000

          k = 0.0833 0.3368-0.3050 (  2852 PWs)   bands (ev):

   -77.3670 -77.3670 -40.7155 -40.7155 -40.5795 -40.5795 -40.5374 -40.5374
    13.6610  13.6610  15.1728  15.1728  16.0516  16.0516  16.7952  16.7952
    17.7682  17.7682  18.5446  18.5446  31.6851

     occupation numbers 
     1.0000   1.0000   1.0000   1.0000   1.0000   1.0000   1.0000   1.0000
     1.0000   1.0000   1.0000   1.0000   1.0000   1.0000   1.0000   1.0000
     1.0000   1.0000   1.0000   1.0000   0.0000

          k = 0.0833 0.4330 0.0000 (  2854 PWs)   bands (ev):

   -77.3716 -77.3464 -40.7262 -40.7055 -40.6833 -40.5880 -40.5574 -40.5225
    13.4982  14.2457  14.4228  15.5466  15.9568  16.2551  16.2984  17.5882
    17.8274  17.9957  18.5348  25.0260  26.0821

     occupation numbers 
     1.0000   1.0000   1.0000   1.0000   1.0000   1.0000   1.0000   1.0000
     1.0000   1.0000   1.0000   1.0000   1.0000   1.0000   1.0000   1.0000
     1.0000   1.0000   1.0000   0.0000   0.0000

          k = 0.0833 0.4330 0.1017 (  2843 PWs)   bands (ev):

   -77.3699 -77.3481 -40.7498 -40.7017 -40.6652 -40.5853 -40.5550 -40.5258
    13.4866  14.2579  14.5818  15.2864  16.0338  16.3482  16.6007  17.5387
    17.8215  17.8852  18.5316  23.1891  26.8540

     occupation numbers 
     1.0000   1.0000   1.0000   1.0000   1.0000   1.0000   1.0000   1.0000
     1.0000   1.0000   1.0000   1.0000   1.0000   1.0000   1.0000   1.0000
     1.0000   1.0000   1.0000   0.0000   0.0000

          k = 0.0833 0.4330 0.2034 (  2851 PWs)   bands (ev):

   -77.3653 -77.3527 -40.7628 -40.7297 -40.6215 -40.5767 -40.5575 -40.5346
    13.5611  14.1232  14.7711  15.2308  16.1406  16.5703  17.0027  17.2871
    17.7075  18.0316  18.5932  21.0564  27.5844

     occupation numbers 
     1.0000   1.0000   1.0000   1.0000   1.0000   1.0000   1.0000   1.0000
     1.0000   1.0000   1.0000   1.0000   1.0000   1.0000   1.0000   1.0000
     1.0000   1.0000   1.0000   0.0000   0.0000

          k = 0.0833 0.4330-0.3050 (  2848 PWs)   bands (ev):

   -77.3590 -77.3590 -40.7545 -40.7545 -40.5876 -40.5876 -40.5492 -40.5492
    13.7978  13.7978  15.0474  15.0474  16.5755  16.5755  16.9661  16.9661
    17.9797  17.9797  19.4053  19.4053  28.6106

     occupation numbers 
     1.0000   1.0000   1.0000   1.0000   1.0000   1.0000   1.0000   1.0000
     1.0000   1.0000   1.0000   1.0000   1.0000   1.0000   1.0000   1.0000
     1.0000   1.0000   0.0000   0.0000   0.0000

          k = 0.0833 0.5292 0.0000 (  2847 PWs)   bands (ev):

   -77.3632 -77.3456 -40.7574 -40.7100 -40.6791 -40.5995 -40.5755 -40.5295
    13.9431  14.0816  14.2326  15.9181  15.9213  16.1047  16.4571  17.9755
    18.0035  18.0542  19.8210  22.7849  27.9912

     occupation numbers 
     1.0000   1.0000   1.0000   1.0000   1.0000   1.0000   1.0000   1.0000
     1.0000   1.0000   1.0000   1.0000   1.0000   1.0000   1.0000   1.0000
     1.0000   1.0000   0.0000   0.0000   0.0000

          k = 0.0833 0.5292 0.1017 (  2847 PWs)   bands (ev):

   -77.3620 -77.3467 -40.7712 -40.7258 -40.6562 -40.5937 -40.5711 -40.5328
    13.7254  14.0875  14.6644  15.2281  15.9669  16.5290  16.8778  17.7977
    17.9896  18.0822  19.7522  22.5090  26.7837

     occupation numbers 
     1.0000   1.0000   1.0000   1.0000   1.0000   1.0000   1.0000   1.0000
     1.0000   1.0000   1.0000   1.0000   1.0000   1.0000   1.0000   1.0000
     1.0000   1.0000   0.0000   0.0000   0.0000

          k = 0.0833 0.5292 0.2034 (  2847 PWs)   bands (ev):

   -77.3588 -77.3500 -40.7846 -40.7561 -40.6197 -40.5789 -40.5707 -40.5407
    13.6325  14.0581  14.8002  15.0871  16.1374  16.8706  17.2653  17.5432
    17.9502  18.1425  19.7879  21.6326  26.1045

     occupation numbers 
     1.0000   1.0000   1.0000   1.0000   1.0000   1.0000   1.0000   1.0000
     1.0000   1.0000   1.0000   1.0000   1.0000   1.0000   1.0000   1.0000
     1.0000   1.0000   0.0000   0.0000   0.0000

          k = 0.0833 0.5292-0.3050 (  2854 PWs)   bands (ev):

   -77.3544 -77.3544 -40.7794 -40.7794 -40.5912 -40.5912 -40.5547 -40.5547
    13.7857  13.7857  14.9603  14.9603  16.6749  16.6749  17.4022  17.4022
    18.0210  18.0210  20.5112  20.5112  26.3858

     occupation numbers 
     1.0000   1.0000   1.0000   1.0000   1.0000   1.0000   1.0000   1.0000
     1.0000   1.0000   1.0000   1.0000   1.0000   1.0000   1.0000   1.0000
     1.0000   1.0000   0.0000   0.0000   0.0000

          k = 0.1667 0.2887 0.0000 (  2828 PWs)   bands (ev):

   -77.3861 -77.3504 -40.7450 -40.6483 -40.6395 -40.5605 -40.5342 -40.5187
    12.3419  14.6141  14.9189  15.0776  15.9985  16.1082  16.5708  16.8015
    17.3801  17.7541  17.9353  23.8280  25.6048

     occupation numbers 
     1.0000   1.0000   1.0000   1.0000   1.0000   1.0000   1.0000   1.0000
     1.0000   1.0000   1.0000   1.0000   1.0000   1.0000   1.0000   1.0000
     1.0000   1.0000   1.0000   0.0000   0.0000

          k = 0.1667 0.2887 0.1017 (  2837 PWs)   bands (ev):

   -77.3837 -77.3527 -40.7429 -40.6474 -40.6348 -40.5692 -40.5295 -40.5224
    12.5239  14.7061  14.7755  15.1301  15.9539  16.1175  16.4620  16.9034
    17.4922  17.5731  18.0088  21.9528  27.9477

     occupation numbers 
     1.0000   1.0000   1.0000   1.0000   1.0000   1.0000   1.0000   1.0000
     1.0000   1.0000   1.0000   1.0000   1.0000   1.0000   1.0000   1.0000
     1.0000   1.0000   1.0000   0.0000   0.0000

          k = 0.1667 0.2887 0.2034 (  2837 PWs)   bands (ev):

   -77.3772 -77.3593 -40.7312 -40.6731 -40.6050 -40.5740 -40.5317 -40.5315
    13.0226  14.3412  14.9570  15.2802  15.7640  15.9855  16.4684  17.0442
    17.5286  17.6852  18.0453  19.9477  31.2962

     occupation numbers 
     1.0000   1.0000   1.0000   1.0000   1.0000   1.0000   1.0000   1.0000
     1.0000   1.0000   1.0000   1.0000   1.0000   1.0000   1.0000   1.0000
     1.0000   1.0000   1.0000   0.0000   0.0000

          k = 0.1667 0.2887-0.3050 (  2856 PWs)   bands (ev):

   -77.3682 -77.3682 -40.7059 -40.7059 -40.5796 -40.5796 -40.5378 -40.5378
    13.6965  13.6965  15.2702  15.2702  15.7120  15.7120  16.7428  16.7428
    17.8171  17.8171  18.5265  18.5265  33.4122

     occupation numbers 
     1.0000   1.0000   1.0000   1.0000   1.0000   1.0000   1.0000   1.0000
     1.0000   1.0000   1.0000   1.0000   1.0000   1.0000   1.0000   1.0000
     1.0000   1.0000   1.0000   1.0000   0.0000

          k = 0.1667 0.3849 0.0000 (  2846 PWs)   bands (ev):

   -77.3737 -77.3468 -40.7116 -40.6959 -40.6750 -40.5888 -40.5534 -40.5402
    13.4461  14.5676  14.5927  15.0609  15.8354  16.2495  16.3683  17.1232
    17.8223  17.9237  18.5728  25.6877  26.0465

     occupation numbers 
     1.0000   1.0000   1.0000   1.0000   1.0000   1.0000   1.0000   1.0000
     1.0000   1.0000   1.0000   1.0000   1.0000   1.0000   1.0000   1.0000
     1.0000   1.0000   1.0000   0.0000   0.0000

          k = 0.1667 0.3849 0.1017 (  2850 PWs)   bands (ev):

   -77.3719 -77.3486 -40.7332 -40.6925 -40.6540 -40.5957 -40.5499 -40.5397
    13.5190  14.5020  14.6866  15.1389  15.8780  16.2454  16.3271  17.1658
    17.7213  17.9072  18.6504  23.2550  28.2834

     occupation numbers 
     1.0000   1.0000   1.0000   1.0000   1.0000   1.0000   1.0000   1.0000
     1.0000   1.0000   1.0000   1.0000   1.0000   1.0000   1.0000   1.0000
     1.0000   1.0000   1.0000   0.0000   0.0000

          k = 0.1667 0.3849 0.2034 (  2847 PWs)   bands (ev):

   -77.3670 -77.3535 -40.7443 -40.7132 -40.6176 -40.5961 -40.5547 -40.5389
    13.7205  14.3007  14.9261  15.3567  15.7931  16.0941  16.4701  17.1538
    17.6356  18.0514  18.8255  21.0738  29.3059

     occupation numbers 
     1.0000   1.0000   1.0000   1.0000   1.0000   1.0000   1.0000   1.0000
     1.0000   1.0000   1.0000   1.0000   1.0000   1.0000   1.0000   1.0000
     1.0000   1.0000   0.0000   0.0000   0.0000

          k = 0.1667 0.3849-0.3050 (  2844 PWs)   bands (ev):

   -77.3602 -77.3602 -40.7357 -40.7357 -40.5974 -40.5974 -40.5493 -40.5493
    14.0059  14.0059  15.2562  15.2562  15.8819  15.8819  16.7465  16.7465
    18.0283  18.0283  19.5020  19.5020  30.4371

     occupation numbers 
     1.0000   1.0000   1.0000   1.0000   1.0000   1.0000   1.0000   1.0000
     1.0000   1.0000   1.0000   1.0000   1.0000   1.0000   1.0000   1.0000
     1.0000   1.0000   0.0000   0.0000   0.0000

          k = 0.1667 0.4811 0.0000 (  2862 PWs)   bands (ev):

   -77.3633 -77.3455 -40.7335 -40.6936 -40.6795 -40.6149 -40.5751 -40.5549
    14.1379  14.3528  14.3871  15.3790  15.7947  16.1432  16.4534  17.5522
    17.9148  18.0332  19.7631  24.4567  27.7054

     occupation numbers 
     1.0000   1.0000   1.0000   1.0000   1.0000   1.0000   1.0000   1.0000
     1.0000   1.0000   1.0000   1.0000   1.0000   1.0000   1.0000   1.0000
     1.0000   1.0000   0.0000   0.0000   0.0000

          k = 0.1667 0.4811 0.1017 (  2852 PWs)   bands (ev):

   -77.3621 -77.3467 -40.7479 -40.7120 -40.6552 -40.6118 -40.5731 -40.5514
    13.9703  14.4400  14.6278  15.1793  15.8450  16.2878  16.5398  17.5396
    17.7291  18.0918  19.8413  23.8574  26.6225

     occupation numbers 
     1.0000   1.0000   1.0000   1.0000   1.0000   1.0000   1.0000   1.0000
     1.0000   1.0000   1.0000   1.0000   1.0000   1.0000   1.0000   1.0000
     1.0000   1.0000   0.0000   0.0000   0.0000

          k = 0.1667 0.4811 0.2034 (  2849 PWs)   bands (ev):

   -77.3588 -77.3499 -40.7628 -40.7389 -40.6320 -40.6002 -40.5717 -40.5456
    13.9234  14.3548  14.8215  15.3478  15.7437  16.4242  16.7754  17.2337
    17.7295  18.1630  20.1426  22.3191  26.7428

     occupation numbers 
     1.0000   1.0000   1.0000   1.0000   1.0000   1.0000   1.0000   1.0000
     1.0000   1.0000   1.0000   1.0000   1.0000   1.0000   1.0000   1.0000
     1.0000   1.0000   0.0000   0.0000   0.0000

          k = 0.1667 0.4811-0.3050 (  2836 PWs)   bands (ev):

   -77.3544 -77.3544 -40.7595 -40.7595 -40.6124 -40.6124 -40.5536 -40.5536
    14.0749  14.0749  15.1504  15.1504  16.1486  16.1486  16.9332  16.9332
    18.0324  18.0324  20.9321  20.9321  27.6122

     occupation numbers 
     1.0000   1.0000   1.0000   1.0000   1.0000   1.0000   1.0000   1.0000
     1.0000   1.0000   1.0000   1.0000   1.0000   1.0000   1.0000   1.0000
     1.0000   1.0000   0.0000   0.0000   0.0000

          k = 0.1667 0.5774 0.0000 (  2846 PWs)   bands (ev):

   -77.3587 -77.3458 -40.7471 -40.6995 -40.6633 -40.6256 -40.5876 -40.5601
    14.2812  14.2863  14.3082  15.6043  15.8254  16.0155  16.5409  17.8449
    17.9113  17.9997  21.0358  22.6190  29.1084

     occupation numbers 
     1.0000   1.0000   1.0000   1.0000   1.0000   1.0000   1.0000   1.0000
     1.0000   1.0000   1.0000   1.0000   1.0000   1.0000   1.0000   1.0000
     1.0000   1.0000   0.0000   0.0000   0.0000

          k = 0.1667 0.5774 0.1017 (  2847 PWs)   bands (ev):

   -77.3578 -77.3467 -40.7583 -40.7163 -40.6558 -40.6092 -40.5872 -40.5562
    13.9900  14.3567  14.7922  15.1588  15.7659  16.4123  16.6332  17.7019
    17.8418  18.0469  21.1268  22.5630  27.8919

     occupation numbers 
     1.0000   1.0000   1.0000   1.0000   1.0000   1.0000   1.0000   1.0000
     1.0000   1.0000   1.0000   1.0000   1.0000   1.0000   1.0000   1.0000
     1.0000   1.0000   0.0000   0.0000   0.0000

          k = 0.1667 0.5774 0.2034 (  2855 PWs)   bands (ev):

   -77.3555 -77.3490 -40.7716 -40.7469 -40.6392 -40.5985 -40.5777 -40.5488
    13.9193  14.3669  14.8596  15.3006  15.6616  16.6221  16.9031  17.3031
    17.8587  18.0840  21.4170  22.3459  26.6436

     occupation numbers 
     1.0000   1.0000   1.0000   1.0000   1.0000   1.0000   1.0000   1.0000
     1.0000   1.0000   1.0000   1.0000   1.0000   1.0000   1.0000   1.0000
     1.0000   1.0000   0.0000   0.0000   0.0000

          k = 0.1667 0.5774-0.3050 (  2854 PWs)   bands (ev):

   -77.3522 -77.3522 -40.7685 -40.7685 -40.6183 -40.6183 -40.5545 -40.5545
    14.0780  14.0780  15.1098  15.1098  16.1854  16.1854  17.1418  17.1418
    17.9699  17.9699  21.9029  21.9029  26.1716

     occupation numbers 
     1.0000   1.0000   1.0000   1.0000   1.0000   1.0000   1.0000   1.0000
     1.0000   1.0000   1.0000   1.0000   1.0000   1.0000   1.0000   1.0000
     1.0000   1.0000   0.0000   0.0000   0.0000

          k = 0.2500 0.4330 0.0000 (  2872 PWs)   bands (ev):

   -77.3633 -77.3455 -40.7128 -40.6930 -40.6797 -40.6177 -40.5750 -40.5738
    14.2804  14.4228  14.8010  14.8308  15.7169  16.1688  16.4620  17.3056
    17.8689  18.0351  19.7770  26.1865  27.0348

     occupation numbers 
     1.0000   1.0000   1.0000   1.0000   1.0000   1.0000   1.0000   1.0000
     1.0000   1.0000   1.0000   1.0000   1.0000   1.0000   1.0000   1.0000
     1.0000   1.0000   0.0000   0.0000   0.0000

          k = 0.2500 0.4330 0.1017 (  2851 PWs)   bands (ev):

   -77.3621 -77.3467 -40.7249 -40.7172 -40.6425 -40.6307 -40.5763 -40.5602
    14.2781  14.3753  14.8400  14.9751  15.8679  16.0221  16.4648  17.3493
    17.6723  18.0981  19.8959  24.5966  27.3103

     occupation numbers 
     1.0000   1.0000   1.0000   1.0000   1.0000   1.0000   1.0000   1.0000
     1.0000   1.0000   1.0000   1.0000   1.0000   1.0000   1.0000   1.0000
     1.0000   1.0000   0.0000   0.0000   0.0000

          k = 0.2500 0.4330 0.2034 (  2834 PWs)   bands (ev):

   -77.3588 -77.3499 -40.7462 -40.7323 -40.6356 -40.6178 -40.5719 -40.5475
    14.2641  14.3191  15.0011  15.3481  15.6998  15.9779  16.5114  17.1407
    17.6959  18.1710  20.2609  22.5889  28.0735

     occupation numbers 
     1.0000   1.0000   1.0000   1.0000   1.0000   1.0000   1.0000   1.0000
     1.0000   1.0000   1.0000   1.0000   1.0000   1.0000   1.0000   1.0000
     1.0000   1.0000   0.0000   0.0000   0.0000

          k = 0.2500 0.4330-0.3050 (  2846 PWs)   bands (ev):

   -77.3544 -77.3544 -40.7471 -40.7471 -40.6252 -40.6252 -40.5533 -40.5533
    14.2776  14.2776  15.3125  15.3125  15.7691  15.7691  16.7229  16.7229
    18.0520  18.0520  21.0895  21.0895  29.0765

     occupation numbers 
     1.0000   1.0000   1.0000   1.0000   1.0000   1.0000   1.0000   1.0000
     1.0000   1.0000   1.0000   1.0000   1.0000   1.0000   1.0000   1.0000
     1.0000   1.0000   0.0000   0.0000   0.0000

          k = 0.2500 0.5292 0.0000 (  2866 PWs)   bands (ev):

   -77.3556 -77.3464 -40.7252 -40.6846 -40.6513 -40.6480 -40.5974 -40.5956
    14.3585  14.5677  14.6579  15.1588  15.7337  15.9586  16.6305  17.5931
    17.8368  17.9615  21.4505  24.0318  26.3787

     occupation numbers 
     1.0000   1.0000   1.0000   1.0000   1.0000   1.0000   1.0000   1.0000
     1.0000   1.0000   1.0000   1.0000   1.0000   1.0000   1.0000   1.0000
     1.0000   1.0000   0.0000   0.0000   0.0000

          k = 0.2500 0.5292 0.1017 (  2863 PWs)   bands (ev):

   -77.3550 -77.3470 -40.7319 -40.7064 -40.6665 -40.6213 -40.6007 -40.5751
    14.3037  14.6857  14.7769  15.0478  15.7588  15.9687  16.6448  17.5933
    17.6555  18.0064  21.6311  24.0387  26.3922

     occupation numbers 
     1.0000   1.0000   1.0000   1.0000   1.0000   1.0000   1.0000   1.0000
     1.0000   1.0000   1.0000   1.0000   1.0000   1.0000   1.0000   1.0000
     1.0000   1.0000   0.0000   0.0000   0.0000

          k = 0.2500 0.5292 0.2034 (  2849 PWs)   bands (ev):

   -77.3533 -77.3487 -40.7471 -40.7331 -40.6651 -40.6275 -40.5737 -40.5549
    14.3165  14.6693  14.9283  15.2318  15.6177  15.9968  16.7030  17.1607
    17.7728  18.0505  22.1146  23.7132  26.2882

     occupation numbers 
     1.0000   1.0000   1.0000   1.0000   1.0000   1.0000   1.0000   1.0000
     1.0000   1.0000   1.0000   1.0000   1.0000   1.0000   1.0000   1.0000
     1.0000   1.0000   0.0000   0.0000   0.0000

          k = 0.2500 0.5292-0.3050 (  2850 PWs)   bands (ev):

   -77.3510 -77.3510 -40.7495 -40.7495 -40.6475 -40.6475 -40.5537 -40.5537
    14.4504  14.4504  15.2126  15.2126  15.7730  15.7730  16.8335  16.8335
    17.9632  17.9632  22.8695  22.8695  26.8262

     occupation numbers 
     1.0000   1.0000   1.0000   1.0000   1.0000   1.0000   1.0000   1.0000
     1.0000   1.0000   1.0000   1.0000   1.0000   1.0000   1.0000   1.0000
     1.0000   1.0000   0.0000   0.0000   0.0000

          k = 0.3333 0.5774 0.0000 (  2856 PWs)   bands (ev):

   -77.3498 -77.3498 -40.7142 -40.6691 -40.6691 -40.6232 -40.6232 -40.6216
    14.3741  14.7673  14.7673  15.0315  15.7952  15.7952  16.7295  17.7436
    17.7436  17.8058  23.2038  24.0382  24.0382

     occupation numbers 
     1.0000   1.0000   1.0000   1.0000   1.0000   1.0000   1.0000   1.0000
     1.0000   1.0000   1.0000   1.0000   1.0000   1.0000   1.0000   1.0000
     1.0000   1.0000   0.0000   0.0000   0.0000

          k = 0.3333 0.5774 0.1017 (  2865 PWs)   bands (ev):

   -77.3498 -77.3498 -40.7081 -40.6965 -40.6965 -40.6279 -40.5957 -40.5957
    14.4667  14.7825  14.7825  15.0481  15.7735  15.7735  16.7045  17.5832
    17.7886  17.7886  23.5918  24.1061  24.1061

     occupation numbers 
     1.0000   1.0000   1.0000   1.0000   1.0000   1.0000   1.0000   1.0000
     1.0000   1.0000   1.0000   1.0000   1.0000   1.0000   1.0000   1.0000
     1.0000   1.0000   0.0000   0.0000   0.0000

          k = 0.3333 0.5774 0.2034 (  2850 PWs)   bands (ev):

   -77.3498 -77.3498 -40.7270 -40.7270 -40.6912 -40.6449 -40.5649 -40.5649
    14.7033  14.8105  14.8105  15.0565  15.7369  15.7369  16.6744  17.1240
    17.8753  17.8753  24.2745  24.2745  24.5927

     occupation numbers 
     1.0000   1.0000   1.0000   1.0000   1.0000   1.0000   1.0000   1.0000
     1.0000   1.0000   1.0000   1.0000   1.0000   1.0000   1.0000   1.0000
     1.0000   1.0000   0.0000   0.0000   0.0000

          k = 0.3333 0.5774-0.3050 (  2832 PWs)   bands (ev):

   -77.3498 -77.3498 -40.7386 -40.7386 -40.6680 -40.6680 -40.5533 -40.5533
    14.8231  14.8231  14.9500  14.9500  15.7220  15.7220  16.7742  16.7742
    17.9172  17.9172  24.3827  24.3827  25.9786

     occupation numbers 
     1.0000   1.0000   1.0000   1.0000   1.0000   1.0000   1.0000   1.0000
     1.0000   1.0000   1.0000   1.0000   1.0000   1.0000   1.0000   1.0000
     1.0000   1.0000   0.0000   0.0000   0.0000

 ------ SPIN DOWN ----------


          k = 0.0000 0.0000 0.0000 (  2839 PWs)   bands (ev):

   -75.2752 -75.2173 -38.7400 -38.4340 -38.4340 -38.3922 -38.3862 -38.3862
     9.7261  14.4701  17.6842  17.8080  17.8080  18.1616  18.1616  18.2916
    18.6612  18.6613  19.8423  19.8423  25.9268

     occupation numbers 
     1.0000   1.0000   1.0000   1.0000   1.0000   1.0000   1.0000   1.0000
     1.0000   1.0000   1.0000   1.0000   1.0000   1.0000   1.0000   1.0000
     1.0000   1.0000   0.0000   0.0000   0.0000

          k = 0.0000 0.0000 0.1017 (  2851 PWs)   bands (ev):

   -75.2714 -75.2212 -38.7170 -38.4308 -38.4308 -38.4159 -38.3894 -38.3894
    10.0000  14.2254  17.5948  17.7401  17.7511  17.7511  18.0841  18.0841
    18.8254  18.8254  19.8233  19.8233  27.2116

     occupation numbers 
     1.0000   1.0000   1.0000   1.0000   1.0000   1.0000   1.0000   1.0000
     1.0000   1.0000   1.0000   1.0000   1.0000   1.0000   1.0000   1.0000
     0.0000   0.0000   0.0000   0.0000   0.0000

          k = 0.0000 0.0000 0.2034 (  2846 PWs)   bands (ev):

   -75.2608 -75.2318 -38.6540 -38.4802 -38.4221 -38.4221 -38.3981 -38.3981
    10.7924  13.3241  17.1491  17.3679  17.7020  17.7020  17.9127  17.9127
    19.1654  19.1655  19.7252  19.7252  30.1346

     occupation numbers 
     1.0000   1.0000   1.0000   1.0000   1.0000   1.0000   1.0000   1.0000
     1.0000   1.0000   1.0000   1.0000   1.0000   1.0000   1.0000   1.0000
     0.0000   0.0000   0.0000   0.0000   0.0000

          k = 0.0000 0.0000-0.3050 (  2834 PWs)   bands (ev):

   -75.2463 -75.2463 -38.5674 -38.5674 -38.4101 -38.4101 -38.4101 -38.4101
    11.9946  11.9946  17.1335  17.1335  17.7594  17.7594  17.7594  17.7594
    19.4985  19.4985  19.4985  19.4985  33.7382

     occupation numbers 
     1.0000   1.0000   1.0000   1.0000   1.0000   1.0000   1.0000   1.0000
     1.0000   1.0000   1.0000   1.0000   1.0000   1.0000   1.0000   1.0000
     0.0000   0.0000   0.0000   0.0000   0.0000

          k = 0.0000 0.0962 0.0000 (  2829 PWs)   bands (ev):

   -75.2717 -75.2155 -38.7322 -38.4520 -38.4397 -38.4048 -38.3952 -38.3892
     9.9717  14.6413  17.4925  17.7268  17.9356  17.9457  18.0912  18.2755
    18.5776  18.5778  19.8768  20.6351  25.9428

     occupation numbers 
     1.0000   1.0000   1.0000   1.0000   1.0000   1.0000   1.0000   1.0000
     1.0000   1.0000   1.0000   1.0000   1.0000   1.0000   1.0000   1.0000
     1.0000   1.0000   0.0000   0.0000   0.0000

          k = 0.0000 0.0962 0.1017 (  2839 PWs)   bands (ev):

   -75.2680 -75.2193 -38.7105 -38.4483 -38.4363 -38.4265 -38.3994 -38.3926
    10.2419  14.4089  17.3223  17.4890  17.7655  17.8643  18.0961  18.1911
    18.7679  18.7759  19.8490  20.3108  27.2949

     occupation numbers 
     1.0000   1.0000   1.0000   1.0000   1.0000   1.0000   1.0000   1.0000
     1.0000   1.0000   1.0000   1.0000   1.0000   1.0000   1.0000   1.0000
     0.0000   0.0000   0.0000   0.0000   0.0000

          k = 0.0000 0.0962 0.2034 (  2860 PWs)   bands (ev):

   -75.2577 -75.2296 -38.6511 -38.4872 -38.4379 -38.4271 -38.4098 -38.4019
    11.0235  13.5229  16.9466  17.3642  17.5903  17.8063  17.9203  18.0177
    19.1312  19.1627  19.7308  19.9139  30.2744

     occupation numbers 
     1.0000   1.0000   1.0000   1.0000   1.0000   1.0000   1.0000   1.0000
     1.0000   1.0000   1.0000   1.0000   1.0000   1.0000   1.0000   1.0000
     0.0000   0.0000   0.0000   0.0000   0.0000

          k = 0.0000 0.0962-0.3050 (  2850 PWs)   bands (ev):

   -75.2436 -75.2436 -38.5694 -38.5694 -38.4239 -38.4239 -38.4145 -38.4145
    12.2095  12.2095  17.0522  17.0522  17.7104  17.7104  17.8634  17.8634
    19.4829  19.4830  19.5584  19.5584  33.9037

     occupation numbers 
     1.0000   1.0000   1.0000   1.0000   1.0000   1.0000   1.0000   1.0000
     1.0000   1.0000   1.0000   1.0000   1.0000   1.0000   1.0000   1.0000
     0.0000   0.0000   0.0000   0.0000   0.0000

          k = 0.0000 0.1925 0.0000 (  2841 PWs)   bands (ev):

   -75.2619 -75.2108 -38.7100 -38.5013 -38.4550 -38.4550 -38.4040 -38.3979
    10.6861  15.0825  16.9251  17.1547  17.8454  18.2723  18.2980  18.3727
    18.3924  18.5959  19.9482  22.0699  26.0092

     occupation numbers 
     1.0000   1.0000   1.0000   1.0000   1.0000   1.0000   1.0000   1.0000
     1.0000   1.0000   1.0000   1.0000   1.0000   1.0000   1.0000   1.0000
     1.0000   1.0000   0.0000   0.0000   0.0000

          k = 0.0000 0.1925 0.1017 (  2836 PWs)   bands (ev):

   -75.2585 -75.2142 -38.6927 -38.4957 -38.4702 -38.4512 -38.4121 -38.4017
    10.9434  14.8910  16.6865  17.1972  17.7307  18.0319  18.1301  18.4682
    18.7113  18.7454  19.9010  21.3022  27.5768

     occupation numbers 
     1.0000   1.0000   1.0000   1.0000   1.0000   1.0000   1.0000   1.0000
     1.0000   1.0000   1.0000   1.0000   1.0000   1.0000   1.0000   1.0000
     0.5787   0.0004   0.0000   0.0000   0.0000

          k = 0.0000 0.1925 0.2034 (  2842 PWs)   bands (ev):

   -75.2491 -75.2236 -38.6454 -38.5170 -38.4777 -38.4408 -38.4315 -38.4122
    11.6865  14.0571  16.5825  17.2935  17.3578  17.8465  18.0679  18.3086
    19.0848  19.2026  19.7408  20.3726  30.6967

     occupation numbers 
     1.0000   1.0000   1.0000   1.0000   1.0000   1.0000   1.0000   1.0000
     1.0000   1.0000   1.0000   1.0000   1.0000   1.0000   1.0000   1.0000
     0.0000   0.0000   0.0000   0.0000   0.0000

          k = 0.0000 0.1925-0.3050 (  2852 PWs)   bands (ev):

   -75.2364 -75.2364 -38.5807 -38.5807 -38.4553 -38.4553 -38.4265 -38.4265
    12.8105  12.8105  16.8725  16.8725  17.5756  17.5756  18.1429  18.1429
    19.4560  19.4560  19.7275  19.7275  34.3642

     occupation numbers 
     1.0000   1.0000   1.0000   1.0000   1.0000   1.0000   1.0000   1.0000
     1.0000   1.0000   1.0000   1.0000   1.0000   1.0000   1.0000   1.0000
     0.0000   0.0000   0.0000   0.0000   0.0000

          k = 0.0000 0.2887 0.0000 (  2828 PWs)   bands (ev):

   -75.2480 -75.2049 -38.6769 -38.5692 -38.5224 -38.4753 -38.4190 -38.4103
    11.7923  15.5182  16.2760  16.8498  17.6709  18.1281  18.1470  18.7241
    18.8302  19.0586  20.0128  23.7467  26.1553

     occupation numbers 
     1.0000   1.0000   1.0000   1.0000   1.0000   1.0000   1.0000   1.0000
     1.0000   1.0000   1.0000   1.0000   1.0000   1.0000   1.0000   0.1281
     0.0000   0.0000   0.0000   0.0000   0.0000

          k = 0.0000 0.2887 0.1017 (  2826 PWs)   bands (ev):

   -75.2451 -75.2078 -38.6704 -38.5577 -38.5344 -38.4709 -38.4251 -38.4146
    12.0200  15.3919  16.1673  16.9131  17.5394  18.0558  18.1628  18.8728
[...]
    20.0078  20.0312  21.1958  23.7203  28.5177

     occupation numbers 
     1.0000   1.0000   1.0000   1.0000   1.0000   1.0000   1.0000   1.0000
     1.0000   1.0000   1.0000   1.0000   1.0000   1.0000   1.0000   0.0000
     0.0000   0.0000   0.0000   0.0000   0.0000

          k = 0.0833 0.5292 0.1017 (  2847 PWs)   bands (ev):

   -75.2148 -75.1983 -38.7085 -38.6598 -38.5651 -38.5159 -38.4719 -38.4490
    14.6959  15.3004  15.8519  16.4065  17.6554  18.1237  18.1584  19.7760
    19.9332  20.0440  21.0592  23.3699  27.5277

     occupation numbers 
     1.0000   1.0000   1.0000   1.0000   1.0000   1.0000   1.0000   1.0000
     1.0000   1.0000   1.0000   1.0000   1.0000   1.0000   1.0000   0.0000
     0.0000   0.0000   0.0000   0.0000   0.0000

          k = 0.0833 0.5292 0.2034 (  2847 PWs)   bands (ev):

   -75.2113 -75.2018 -38.7211 -38.6907 -38.5306 -38.4947 -38.4803 -38.4525
    14.6696  15.1414  16.1510  16.4525  17.6931  18.4586  18.6460  19.3232
    19.8871  20.1203  20.8476  22.4211  27.0282

     occupation numbers 
     1.0000   1.0000   1.0000   1.0000   1.0000   1.0000   1.0000   1.0000
     1.0000   1.0000   1.0000   1.0000   1.0000   1.0000   1.0000   0.0000
     0.0000   0.0000   0.0000   0.0000   0.0000

          k = 0.0833 0.5292-0.3050 (  2854 PWs)   bands (ev):

   -75.2065 -75.2065 -38.7152 -38.7152 -38.5030 -38.5030 -38.4667 -38.4667
    14.8436  14.8436  16.3992  16.3992  18.1957  18.1957  18.9746  18.9746
    19.9731  19.9731  21.3706  21.3706  27.2895

     occupation numbers 
     1.0000   1.0000   1.0000   1.0000   1.0000   1.0000   1.0000   1.0000
     1.0000   1.0000   1.0000   1.0000   1.0000   1.0000   0.0000   0.0000
     0.0000   0.0000   0.0000   0.0000   0.0000

          k = 0.1667 0.2887 0.0000 (  2828 PWs)   bands (ev):

   -75.2407 -75.2022 -38.6586 -38.5768 -38.5678 -38.4808 -38.4355 -38.4282
    12.4233  15.8252  16.1102  16.5089  17.7102  17.7115  18.2887  18.5902
    19.2192  19.5733  19.9522  24.6421  26.3842

     occupation numbers 
     1.0000   1.0000   1.0000   1.0000   1.0000   1.0000   1.0000   1.0000
     1.0000   1.0000   1.0000   1.0000   1.0000   1.0000   1.0000   1.0000
     0.0000   0.0000   0.0000   0.0000   0.0000

          k = 0.1667 0.2887 0.1017 (  2837 PWs)   bands (ev):

   -75.2381 -75.2048 -38.6596 -38.5748 -38.5589 -38.4865 -38.4395 -38.4286
    12.6323  15.7200  16.0433  16.5748  17.6003  17.7363  18.1876  18.7055
    19.3445  19.4459  19.9630  23.0046  28.5647

     occupation numbers 
     1.0000   1.0000   1.0000   1.0000   1.0000   1.0000   1.0000   1.0000
     1.0000   1.0000   1.0000   1.0000   1.0000   1.0000   1.0000   0.7893
     0.0000   0.0000   0.0000   0.0000   0.0000

          k = 0.1667 0.2887 0.2034 (  2837 PWs)   bands (ev):

   -75.2311 -75.2118 -38.6519 -38.5982 -38.5215 -38.4896 -38.4492 -38.4378
    13.2255  15.0245  16.3011  16.7429  17.3172  17.5781  18.2434  18.8323
    19.4249  19.5663  19.9193  21.3103  31.7940

     occupation numbers 
     1.0000   1.0000   1.0000   1.0000   1.0000   1.0000   1.0000   1.0000
     1.0000   1.0000   1.0000   1.0000   1.0000   1.0000   1.0000   0.0000
     0.0000   0.0000   0.0000   0.0000   0.0000

          k = 0.1667 0.2887-0.3050 (  2856 PWs)   bands (ev):

   -75.2215 -75.2215 -38.6291 -38.6291 -38.4923 -38.4923 -38.4529 -38.4529
    14.0917  14.0917  16.6757  16.6757  17.2707  17.2707  18.5458  18.5458
    19.7514  19.7514  20.1429  20.1429  33.8462

     occupation numbers 
     1.0000   1.0000   1.0000   1.0000   1.0000   1.0000   1.0000   1.0000
     1.0000   1.0000   1.0000   1.0000   1.0000   1.0000   1.0000   1.0000
     0.0000   0.0000   0.0000   0.0000   0.0000

          k = 0.1667 0.3849 0.0000 (  2846 PWs)   bands (ev):

   -75.2273 -75.1984 -38.6292 -38.6219 -38.6061 -38.5117 -38.4589 -38.4491
    13.6855  15.8245  15.8974  16.3278  17.4999  17.8432  18.0426  18.9450
    19.7258  19.9388  20.3121  26.4103  26.6798

     occupation numbers 
     1.0000   1.0000   1.0000   1.0000   1.0000   1.0000   1.0000   1.0000
     1.0000   1.0000   1.0000   1.0000   1.0000   1.0000   1.0000   0.0000
     0.0000   0.0000   0.0000   0.0000   0.0000

          k = 0.1667 0.3849 0.1017 (  2850 PWs)   bands (ev):

   -75.2254 -75.2003 -38.6575 -38.6231 -38.5722 -38.5161 -38.4645 -38.4434
    13.8300  15.6853  15.9978  16.4291  17.4575  17.8271  17.9972  18.9992
    19.6818  19.8266  20.4104  24.1026  28.9098

     occupation numbers 
     1.0000   1.0000   1.0000   1.0000   1.0000   1.0000   1.0000   1.0000
     1.0000   1.0000   1.0000   1.0000   1.0000   1.0000   1.0000   0.0000
     0.0000   0.0000   0.0000   0.0000   0.0000

          k = 0.1667 0.3849 0.2034 (  2847 PWs)   bands (ev):

   -75.2201 -75.2056 -38.6720 -38.6434 -38.5320 -38.5134 -38.4721 -38.4440
    14.2262  15.3049  16.2740  16.6373  17.3046  17.5605  18.1881  19.0023
    19.5291  20.0072  20.4907  22.1365  29.9195

     occupation numbers 
     1.0000   1.0000   1.0000   1.0000   1.0000   1.0000   1.0000   1.0000
     1.0000   1.0000   1.0000   1.0000   1.0000   1.0000   1.0000   0.0000
     0.0000   0.0000   0.0000   0.0000   0.0000

          k = 0.1667 0.3849-0.3050 (  2844 PWs)   bands (ev):

   -75.2129 -75.2129 -38.6649 -38.6649 -38.5133 -38.5133 -38.4602 -38.4602
    14.7685  14.7685  16.6112  16.6112  17.2854  17.2854  18.5567  18.5567
    19.9941  19.9941  20.8324  20.8324  31.0089

     occupation numbers 
     1.0000   1.0000   1.0000   1.0000   1.0000   1.0000   1.0000   1.0000
     1.0000   1.0000   1.0000   1.0000   1.0000   1.0000   1.0000   1.0000
     0.0000   0.0000   0.0000   0.0000   0.0000

          k = 0.1667 0.4811 0.0000 (  2862 PWs)   bands (ev):

   -75.2161 -75.1970 -38.6703 -38.6263 -38.5867 -38.5401 -38.4748 -38.4727
    14.7911  15.6611  15.6694  16.3891  17.4378  17.7652  18.0804  19.4191
    19.9282  19.9772  21.2363  25.2120  28.3170

     occupation numbers 
     1.0000   1.0000   1.0000   1.0000   1.0000   1.0000   1.0000   1.0000
     1.0000   1.0000   1.0000   1.0000   1.0000   1.0000   1.0000   0.0000
     0.0000   0.0000   0.0000   0.0000   0.0000

          k = 0.1667 0.4811 0.1017 (  2852 PWs)   bands (ev):

   -75.2148 -75.1983 -38.6821 -38.6436 -38.5684 -38.5321 -38.4856 -38.4590
    14.8023  15.6110  15.8388  16.4172  17.4459  17.7358  18.1675  19.4179
    19.6975  20.0505  21.2836  24.5616  27.4040

     occupation numbers 
     1.0000   1.0000   1.0000   1.0000   1.0000   1.0000   1.0000   1.0000
     1.0000   1.0000   1.0000   1.0000   1.0000   1.0000   1.0000   0.0000
     0.0000   0.0000   0.0000   0.0000   0.0000

          k = 0.1667 0.4811 0.2034 (  2849 PWs)   bands (ev):

   -75.2113 -75.2018 -38.6960 -38.6713 -38.5509 -38.5157 -38.4857 -38.4510
    14.8969  15.4097  16.1640  16.6707  17.2709  17.7162  18.4045  19.1152
    19.6395  20.1450  21.4292  23.1109  27.5631

     occupation numbers 
     1.0000   1.0000   1.0000   1.0000   1.0000   1.0000   1.0000   1.0000
     1.0000   1.0000   1.0000   1.0000   1.0000   1.0000   1.0000   0.0000
     0.0000   0.0000   0.0000   0.0000   0.0000

          k = 0.1667 0.4811-0.3050 (  2836 PWs)   bands (ev):

   -75.2065 -75.2065 -38.6925 -38.6925 -38.5315 -38.5315 -38.4612 -38.4612
    15.1176  15.1176  16.5629  16.5629  17.4574  17.4574  18.6863  18.6863
    19.9848  19.9848  21.9476  21.9476  28.3629

     occupation numbers 
     1.0000   1.0000   1.0000   1.0000   1.0000   1.0000   1.0000   1.0000
     1.0000   1.0000   1.0000   1.0000   1.0000   1.0000   0.9974   0.9974
     0.0000   0.0000   0.0000   0.0000   0.0000

          k = 0.1667 0.5774 0.0000 (  2846 PWs)   bands (ev):

   -75.2112 -75.1973 -38.6852 -38.6328 -38.5689 -38.5518 -38.4863 -38.4805
    15.2525  15.5289  15.6089  16.4603  17.4997  17.5781  18.1861  19.7543
    19.9240  19.9451  22.1511  23.6499  29.5409

     occupation numbers 
     1.0000   1.0000   1.0000   1.0000   1.0000   1.0000   1.0000   1.0000
     1.0000   1.0000   1.0000   1.0000   1.0000   1.0000   1.0000   0.0000
     0.0000   0.0000   0.0000   0.0000   0.0000

          k = 0.1667 0.5774 0.1017 (  2847 PWs)   bands (ev):

   -75.2102 -75.1982 -38.6947 -38.6490 -38.5714 -38.5259 -38.4978 -38.4665
    15.0928  15.5716  15.9868  16.2701  17.4062  17.7677  18.2817  19.6725
    19.7542  20.0037  22.1757  23.5464  28.5134

     occupation numbers 
     1.0000   1.0000   1.0000   1.0000   1.0000   1.0000   1.0000   1.0000
     1.0000   1.0000   1.0000   1.0000   1.0000   1.0000   1.0000   0.0000
     0.0000   0.0000   0.0000   0.0000   0.0000

          k = 0.1667 0.5774 0.2034 (  2855 PWs)   bands (ev):

   -75.2077 -75.2007 -38.7067 -38.6801 -38.5596 -38.5160 -38.4877 -38.4548
    15.0457  15.4710  16.2345  16.5825  17.1840  17.8928  18.5533  19.1827
    19.7847  20.0519  22.2955  23.2076  27.4515

     occupation numbers 
     1.0000   1.0000   1.0000   1.0000   1.0000   1.0000   1.0000   1.0000
     1.0000   1.0000   1.0000   1.0000   1.0000   1.0000   1.0000   0.0000
     0.0000   0.0000   0.0000   0.0000   0.0000

          k = 0.1667 0.5774-0.3050 (  2854 PWs)   bands (ev):

   -75.2042 -75.2042 -38.7028 -38.7028 -38.5385 -38.5385 -38.4610 -38.4610
    15.1996  15.1996  16.5526  16.5526  17.5138  17.5138  18.8498  18.8498
    19.9197  19.9197  22.6878  22.6878  27.0859

     occupation numbers 
     1.0000   1.0000   1.0000   1.0000   1.0000   1.0000   1.0000   1.0000
     1.0000   1.0000   1.0000   1.0000   1.0000   1.0000   0.0000   0.0000
     0.0000   0.0000   0.0000   0.0000   0.0000

          k = 0.2500 0.4330 0.0000 (  2872 PWs)   bands (ev):

   -75.2161 -75.1969 -38.6476 -38.6255 -38.5869 -38.5433 -38.4955 -38.4725
    14.8059  15.7398  16.0178  16.0590  17.3391  17.7954  18.0862  19.1592
    19.8755  19.9762  21.2815  26.7588  27.6580

     occupation numbers 
     1.0000   1.0000   1.0000   1.0000   1.0000   1.0000   1.0000   1.0000
     1.0000   1.0000   1.0000   1.0000   1.0000   1.0000   1.0000   0.0000
     0.0000   0.0000   0.0000   0.0000   0.0000

          k = 0.2500 0.4330 0.1017 (  2851 PWs)   bands (ev):

   -75.2148 -75.1982 -38.6527 -38.6513 -38.5548 -38.5540 -38.4974 -38.4611
    14.8814  15.6561  16.0845  16.2407  17.3771  17.6112  18.1027  19.2120
    19.6362  20.0572  21.3798  25.2695  27.9391

     occupation numbers 
     1.0000   1.0000   1.0000   1.0000   1.0000   1.0000   1.0000   1.0000
     1.0000   1.0000   1.0000   1.0000   1.0000   1.0000   1.0000   0.0000
     0.0000   0.0000   0.0000   0.0000   0.0000

          k = 0.2500 0.4330 0.2034 (  2834 PWs)   bands (ev):

   -75.2113 -75.2017 -38.6758 -38.6647 -38.5589 -38.5354 -38.4853 -38.4508
    15.0750  15.5117  16.3011  16.5886  17.2221  17.3421  18.2038  19.0126
    19.5970  20.1545  21.6092  23.4236  28.7024

     occupation numbers 
     1.0000   1.0000   1.0000   1.0000   1.0000   1.0000   1.0000   1.0000
     1.0000   1.0000   1.0000   1.0000   1.0000   1.0000   1.0000   0.0000
     0.0000   0.0000   0.0000   0.0000   0.0000

          k = 0.2500 0.4330-0.3050 (  2846 PWs)   bands (ev):

   -75.2065 -75.2065 -38.6782 -38.6782 -38.5475 -38.5475 -38.4597 -38.4597
    15.3101  15.3101  16.6351  16.6351  17.1175  17.1175  18.5123  18.5123
    20.0090  20.0090  22.1640  22.1640  29.6936

     occupation numbers 
     1.0000   1.0000   1.0000   1.0000   1.0000   1.0000   1.0000   1.0000
     1.0000   1.0000   1.0000   1.0000   1.0000   1.0000   1.0000   1.0000
     0.0000   0.0000   0.0000   0.0000   0.0000

          k = 0.2500 0.5292 0.0000 (  2866 PWs)   bands (ev):

   -75.2078 -75.1980 -38.6611 -38.6165 -38.5764 -38.5558 -38.5191 -38.4970
    15.5229  15.7200  15.8615  16.1467  17.3378  17.5392  18.2873  19.4791
    19.8384  19.8977  22.5813  24.8471  26.9678

     occupation numbers 
     1.0000   1.0000   1.0000   1.0000   1.0000   1.0000   1.0000   1.0000
     1.0000   1.0000   1.0000   1.0000   1.0000   1.0000   1.0000   0.0000
     0.0000   0.0000   0.0000   0.0000   0.0000

          k = 0.2500 0.5292 0.1017 (  2863 PWs)   bands (ev):

   -75.2072 -75.1986 -38.6659 -38.6363 -38.5916 -38.5365 -38.5167 -38.4788
    15.4740  15.8419  15.9426  16.2102  17.3092  17.4380  18.3069  19.5072
    19.5960  19.9553  22.7372  24.8119  27.0126

     occupation numbers 
     1.0000   1.0000   1.0000   1.0000   1.0000   1.0000   1.0000   1.0000
     1.0000   1.0000   1.0000   1.0000   1.0000   1.0000   1.0000   0.0000
     0.0000   0.0000   0.0000   0.0000   0.0000

          k = 0.2500 0.5292 0.2034 (  2849 PWs)   bands (ev):

   -75.2054 -75.2004 -38.6788 -38.6638 -38.5918 -38.5513 -38.4809 -38.4586
    15.5023  15.7925  16.2182  16.5511  17.0450  17.3008  18.3910  19.0387
    19.6931  20.0122  23.1101  24.4245  27.0564

     occupation numbers 
     1.0000   1.0000   1.0000   1.0000   1.0000   1.0000   1.0000   1.0000
     1.0000   1.0000   1.0000   1.0000   1.0000   1.0000   1.0000   0.0000
     0.0000   0.0000   0.0000   0.0000   0.0000

          k = 0.2500 0.5292-0.3050 (  2850 PWs)   bands (ev):

   -75.2029 -75.2029 -38.6807 -38.6807 -38.5736 -38.5736 -38.4582 -38.4582
    15.6314  15.6314  16.6090  16.6090  17.0185  17.0185  18.6062  18.6062
    19.9106  19.9106  23.6926  23.6926  27.5938

     occupation numbers 
     1.0000   1.0000   1.0000   1.0000   1.0000   1.0000   1.0000   1.0000
     1.0000   1.0000   1.0000   1.0000   1.0000   1.0000   1.0000   1.0000
     0.0000   0.0000   0.0000   0.0000   0.0000

          k = 0.3333 0.5774 0.0000 (  2856 PWs)   bands (ev):

   -75.2016 -75.2016 -38.6489 -38.5997 -38.5997 -38.5474 -38.5252 -38.5252
    15.7628  15.8744  15.8744  16.0592  17.3684  17.3684  18.3965  19.6531
    19.6531  19.8028  24.0440  24.8497  24.8497

     occupation numbers 
     1.0000   1.0000   1.0000   1.0000   1.0000   1.0000   1.0000   1.0000
     1.0000   1.0000   1.0000   1.0000   1.0000   1.0000   1.0000   0.0000
     0.0000   0.0000   0.0000   0.0000   0.0000

          k = 0.3333 0.5774 0.1017 (  2865 PWs)   bands (ev):

   -75.2016 -75.2016 -38.6422 -38.6240 -38.6240 -38.5543 -38.5007 -38.5007
    15.8344  15.9443  15.9443  16.0897  17.2811  17.2811  18.3796  19.5376
    19.7085  19.7085  24.4478  24.8929  24.8929

     occupation numbers 
     1.0000   1.0000   1.0000   1.0000   1.0000   1.0000   1.0000   1.0000
     1.0000   1.0000   1.0000   1.0000   1.0000   1.0000   1.0000   0.0000
     0.0000   0.0000   0.0000   0.0000   0.0000

          k = 0.3333 0.5774 0.2034 (  2850 PWs)   bands (ev):

   -75.2016 -75.2016 -38.6551 -38.6551 -38.6237 -38.5729 -38.4693 -38.4693
    16.0012  16.1113  16.1113  16.1457  17.0876  17.0876  18.3875  19.0033
    19.8113  19.8113  24.9996  24.9996  25.4378

     occupation numbers 
     1.0000   1.0000   1.0000   1.0000   1.0000   1.0000   1.0000   1.0000
     1.0000   1.0000   1.0000   1.0000   1.0000   1.0000   1.0000   0.0000
     0.0000   0.0000   0.0000   0.0000   0.0000

          k = 0.3333 0.5774-0.3050 (  2832 PWs)   bands (ev):

   -75.2016 -75.2016 -38.6672 -38.6672 -38.5983 -38.5983 -38.4571 -38.4571
    16.1349  16.1349  16.2204  16.2204  16.9689  16.9689  18.5678  18.5678
    19.8592  19.8592  25.0672  25.0672  26.7515

     occupation numbers 
     1.0000   1.0000   1.0000   1.0000   1.0000   1.0000   1.0000   1.0000
     1.0000   1.0000   1.0000   1.0000   1.0000   1.0000   1.0000   1.0000
     0.0000   0.0000   0.0000   0.0000   0.0000

     the Fermi energy is    18.7132 ev

!    total energy              =    -753.45499367 Ry
     total all-electron energy =     -5573.811685 Ry
     estimated scf accuracy    <       0.00000017 Ry
     smearing contrib. (-TS)   =      -0.00001636 Ry
     internal energy E=F+TS    =    -753.45497731 Ry

     The total energy is F=E-TS. E is the sum of the following terms:
     one-electron contribution =    -282.45131016 Ry
     hartree contribution      =     164.90677201 Ry
     xc contribution           =     -61.40682197 Ry
     ewald contribution        =    -399.32798231 Ry
     one-center paw contrib.   =    -175.17563489 Ry
      -> PAW hartree energy AE =     222.00400911 Ry
      -> PAW hartree energy PS =    -220.94865013 Ry
      -> PAW xc energy AE      =    -117.67277277 Ry
      -> PAW xc energy PS      =      29.02959635 Ry
      -> total E_H with PAW    =     165.96213099 Ry
      -> total E_XC with PAW   =    -150.04999839 Ry

     total magnetization       =     3.36 Bohr mag/cell
     absolute magnetization    =     3.67 Bohr mag/cell

     convergence has been achieved in   7 iterations

     Writing all to output data dir ./out/Co.save/
 
     init_run     :      0.40s CPU      0.52s WALL (       1 calls)
     electrons    :     15.00s CPU     15.80s WALL (       1 calls)

     Called by init_run:
     wfcinit      :      0.28s CPU      0.37s WALL (       1 calls)
     potinit      :      0.08s CPU      0.10s WALL (       1 calls)
     hinit0       :      0.03s CPU      0.03s WALL (       1 calls)

     Called by electrons:
     c_bands      :     13.02s CPU     13.66s WALL (       7 calls)
     sum_band     :      1.32s CPU      1.38s WALL (       7 calls)
     v_of_rho     :      0.02s CPU      0.02s WALL (       8 calls)
     v_h          :      0.00s CPU      0.00s WALL (       8 calls)
     v_xc         :      0.02s CPU      0.02s WALL (       8 calls)
     newd         :      0.03s CPU      0.04s WALL (       8 calls)
     PAW_pot      :      0.68s CPU      0.78s WALL (       8 calls)
     mix_rho      :      0.00s CPU      0.00s WALL (       7 calls)

     Called by c_bands:
     init_us_2    :      0.07s CPU      0.08s WALL (    2128 calls)
     init_us_2:cp :      0.07s CPU      0.07s WALL (    2128 calls)
     cegterg      :     12.55s CPU     13.10s WALL (    1064 calls)

     Called by sum_band:
     sum_band:wei :      0.01s CPU      0.01s WALL (       7 calls)
     sum_band:loo :      1.25s CPU      1.31s WALL (       7 calls)
     sum_band:buf :      0.00s CPU      0.01s WALL (    1064 calls)
     sum_band:ini :      0.04s CPU      0.04s WALL (    1064 calls)
     sum_band:cal :      0.11s CPU      0.10s WALL (    1064 calls)
     sum_band:bec :      0.00s CPU      0.01s WALL (    1064 calls)
     addusdens    :      0.05s CPU      0.05s WALL (       7 calls)
                                        0.00s GPU  (       7 calls)
     addusd:skk   :      0.00s CPU      0.00s WALL (       7 calls)
                                        0.00s GPU  (       7 calls)

     Called by *egterg:
     cdiaghg      :      3.17s CPU      3.25s WALL (    6565 calls)
     cegterg:over :      0.45s CPU      0.42s WALL (    5653 calls)
     cegterg:upda :      0.05s CPU      0.10s WALL (    5653 calls)
     cegterg:last :      0.14s CPU      0.17s WALL (    3571 calls)
     h_psi        :      8.22s CPU      8.64s WALL (    6717 calls)
     s_psi        :      0.17s CPU      0.14s WALL (    6717 calls)
     g_psi        :      0.02s CPU      0.03s WALL (    5653 calls)

     Called by h_psi:
     h_psi:calbec :      0.44s CPU      0.42s WALL (    6717 calls)
     vloc_psi     :      7.67s CPU      8.03s WALL (    6717 calls)
     add_vuspsi   :      0.09s CPU      0.15s WALL (    6717 calls)

     General routines
     calbec       :      0.55s CPU      0.52s WALL (    7781 calls)
     fft          :      0.01s CPU      0.02s WALL (     194 calls)
     ffts         :      0.00s CPU      0.00s WALL (      30 calls)
     fftw         :      8.30s CPU      8.54s WALL (  188390 calls)
     interpolate  :      0.00s CPU      0.00s WALL (      16 calls)
 
     Parallel routines

     PAW routines
     PAW_pot      :      0.68s CPU      0.78s WALL (       8 calls)
     PAW_symme    :      0.01s CPU      0.01s WALL (      14 calls)
 
     PWSCF        :     15.72s CPU     17.11s WALL

 
   This run was terminated on:   7:53:50  22Mar2024            

=------------------------------------------------------------------------------=
   JOB DONE.
=------------------------------------------------------------------------------=
