
     Program PWSCF v.7.2 starts on 22Mar2024 at  8:49:51 

     This program is part of the open-source Quantum ESPRESSO suite
     for quantum simulation of materials; please cite
         "P. Giannozzi et al., J. Phys.:Condens. Matter 21 395502 (2009);
         "P. Giannozzi et al., J. Phys.:Condens. Matter 29 465901 (2017);
         "P. Giannozzi et al., J. Chem. Phys. 152 154105 (2020);
          URL http://www.quantum-espresso.org", 
     in publications or presentations arising from this work. More details at
     http://www.quantum-espresso.org/quote

     Parallel version (MPI), running on    20 processors

     MPI processes distributed on     1 nodes
     241361 MiB available memory on the printing compute node when the environment starts
 
     Waiting for input...
     Reading input from standard input

     Current dimensions of program PWSCF are:
     Max number of different atomic species (ntypx) = 10
     Max number of k-points (npk) = 120000
     Max angular momentum in pseudopotentials (lmaxx) =  4
     file Co.pbe-spn-kjpaw_psl.0.3.1.UPF: wavefunction(s)  3P 3D renormalized
 
     R & G space division:  proc/nbgrp/npool/nimage =      20
     Subspace diagonalization in iterative solution of the eigenvalue problem:
     a serial algorithm will be used

 
     Parallelization info
     --------------------
     sticks:   dense  smooth     PW     G-vecs:    dense   smooth      PW
     Min          33      33      9                 1156     1130     179
     Max          35      35     10                 1179     1134     186
     Sum         673     673    199                23307    22623    3693
 
     Using Slab Decomposition
 


     bravais-lattice index     =            4
     lattice parameter (alat)  =       4.6865  a.u.
     unit-cell volume          =     144.8557 (a.u.)^3
     number of atoms/cell      =            2
     number of atomic types    =            1
     number of electrons       =        34.00
     number of Kohn-Sham states=           21
     kinetic-energy cutoff     =     110.0000  Ry
     charge density cutoff     =     450.0000  Ry
     scf convergence threshold =      1.0E-06
     mixing beta               =       0.7000
     number of iterations used =            8  plain     mixing
     Exchange-correlation= SLA  PW   PBX  PBC
                           (   1   4   3   4   0   0   0)

     celldm(1)=   4.686521  celldm(2)=   0.000000  celldm(3)=   1.625000
     celldm(4)=   0.000000  celldm(5)=   0.000000  celldm(6)=   0.000000

     crystal axes: (cart. coord. in units of alat)
               a(1) = (   1.000000   0.000000   0.000000 )  
               a(2) = (  -0.500000   0.866025   0.000000 )  
               a(3) = (   0.000000   0.000000   1.625000 )  

     reciprocal axes: (cart. coord. in units 2 pi/alat)
               b(1) = (  1.000000  0.577350  0.000000 )  
               b(2) = (  0.000000  1.154701  0.000000 )  
               b(3) = (  0.000000  0.000000  0.615385 )  


     PseudoPot. # 1 for Co read from file:
     /truba/home/amuhaymin/ZnS/pseudo/QE/Co.pbe-spn-kjpaw_psl.0.3.1.UPF
     MD5 check sum: b0a1ad65bf214e88c1f3d33b20c7d919
     Pseudo is Projector augmented-wave + core cor, Zval = 17.0
     Generated using &quot;atomic&quot; code by A. Dal Corso  v.6.2.2
     Shape of augmentation charge: PSQ
     Using radial grid of 1193 points,  6 beta functions with: 
                l(1) =   0
                l(2) =   0
                l(3) =   1
                l(4) =   1
                l(5) =   2
                l(6) =   2
     Q(r) pseudized with 0 coefficients 


     atomic species   valence    mass     pseudopotential
        Co            17.00    58.93300     Co( 1.00)

     Starting magnetic structure 
     atomic species   magnetization
        Co           0.294

     24 Sym. Ops., with inversion, found (12 have fractional translation)


                                    s                        frac. trans.

      isym =  1     identity                                     

 cryst.   s( 1) = (     1          0          0      )
                  (     0          1          0      )
                  (     0          0          1      )

 cart.    s( 1) = (  1.0000000  0.0000000  0.0000000 )
                  (  0.0000000  1.0000000  0.0000000 )
                  (  0.0000000  0.0000000  1.0000000 )


      isym =  2     180 deg rotation - cart. axis [0,0,1]        

 cryst.   s( 2) = (    -1          0          0      )    f =(  0.0000000 )
                  (     0         -1          0      )       ( -0.0000000 )
                  (     0          0          1      )       ( -0.5000000 )

 cart.    s( 2) = ( -1.0000000  0.0000000  0.0000000 )    f =(  0.0000000 )
                  (  0.0000000 -1.0000000  0.0000000 )       ( -0.0000000 )
                  (  0.0000000  0.0000000  1.0000000 )       ( -0.8125000 )


      isym =  3     180 deg rotation - cart. axis [0,1,0]        

 cryst.   s( 3) = (    -1          0          0      )    f =(  0.0000000 )
                  (     1          1          0      )       (  0.0000000 )
                  (     0          0         -1      )       (  0.5000000 )

 cart.    s( 3) = ( -1.0000000  0.0000000  0.0000000 )    f =(  0.0000000 )
                  (  0.0000000  1.0000000  0.0000000 )       (  0.0000000 )
                  (  0.0000000  0.0000000 -1.0000000 )       (  0.8125000 )


      isym =  4     180 deg rotation - cart. axis [1,0,0]        

 cryst.   s( 4) = (     1          0          0      )
                  (    -1         -1          0      )
                  (     0          0         -1      )

 cart.    s( 4) = (  1.0000000  0.0000000  0.0000000 )
                  (  0.0000000 -1.0000000  0.0000000 )
                  (  0.0000000  0.0000000 -1.0000000 )


      isym =  5      60 deg rotation - cryst. axis [0,0,1]       

 cryst.   s( 5) = (     1          1          0      )    f =(  0.0000000 )
                  (    -1          0          0      )       ( -0.0000000 )
                  (     0          0          1      )       ( -0.5000000 )

 cart.    s( 5) = (  0.5000000 -0.8660254  0.0000000 )    f =(  0.0000000 )
                  (  0.8660254  0.5000000  0.0000000 )       ( -0.0000000 )
                  (  0.0000000  0.0000000  1.0000000 )       ( -0.8125000 )


      isym =  6      60 deg rotation - cryst. axis [0,0,-1]      

 cryst.   s( 6) = (     0         -1          0      )    f =(  0.0000000 )
                  (     1          1          0      )       ( -0.0000000 )
                  (     0          0          1      )       ( -0.5000000 )

 cart.    s( 6) = (  0.5000000  0.8660254  0.0000000 )    f =(  0.0000000 )
                  ( -0.8660254  0.5000000  0.0000000 )       ( -0.0000000 )
                  (  0.0000000  0.0000000  1.0000000 )       ( -0.8125000 )


      isym =  7     120 deg rotation - cryst. axis [0,0,1]       

 cryst.   s( 7) = (     0          1          0      )
                  (    -1         -1          0      )
                  (     0          0          1      )

 cart.    s( 7) = ( -0.5000000 -0.8660254  0.0000000 )
                  (  0.8660254 -0.5000000  0.0000000 )
                  (  0.0000000  0.0000000  1.0000000 )


      isym =  8     120 deg rotation - cryst. axis [0,0,-1]      

 cryst.   s( 8) = (    -1         -1          0      )
                  (     1          0          0      )
                  (     0          0          1      )

 cart.    s( 8) = ( -0.5000000  0.8660254  0.0000000 )
                  ( -0.8660254 -0.5000000  0.0000000 )
                  (  0.0000000  0.0000000  1.0000000 )


      isym =  9     180 deg rotation - cryst. axis [1,-1,0]      

 cryst.   s( 9) = (     0         -1          0      )    f =( -0.0000000 )
                  (    -1          0          0      )       ( -0.0000000 )
                  (     0          0         -1      )       (  0.5000000 )

 cart.    s( 9) = (  0.5000000 -0.8660254  0.0000000 )    f =( -0.0000000 )
                  ( -0.8660254 -0.5000000  0.0000000 )       ( -0.0000000 )
                  (  0.0000000  0.0000000 -1.0000000 )       (  0.8125000 )


      isym = 10     180 deg rotation - cryst. axis [2,1,0]       

 cryst.   s(10) = (     1          1          0      )    f =(  0.0000000 )
                  (     0         -1          0      )       ( -0.0000000 )
                  (     0          0         -1      )       (  0.5000000 )

 cart.    s(10) = (  0.5000000  0.8660254  0.0000000 )    f =(  0.0000000 )
                  (  0.8660254 -0.5000000  0.0000000 )       ( -0.0000000 )
                  (  0.0000000  0.0000000 -1.0000000 )       (  0.8125000 )


      isym = 11     180 deg rotation - cryst. axis [0,1,0]       

 cryst.   s(11) = (    -1         -1          0      )
                  (     0          1          0      )
                  (     0          0         -1      )

 cart.    s(11) = ( -0.5000000 -0.8660254  0.0000000 )
                  ( -0.8660254  0.5000000  0.0000000 )
                  (  0.0000000  0.0000000 -1.0000000 )


      isym = 12     180 deg rotation - cryst. axis [1,1,0]       

 cryst.   s(12) = (     0          1          0      )
                  (     1          0          0      )
                  (     0          0         -1      )

 cart.    s(12) = ( -0.5000000  0.8660254  0.0000000 )
                  (  0.8660254  0.5000000  0.0000000 )
                  (  0.0000000  0.0000000 -1.0000000 )


      isym = 13     inversion                                    

 cryst.   s(13) = (    -1          0          0      )
                  (     0         -1          0      )
                  (     0          0         -1      )

 cart.    s(13) = ( -1.0000000  0.0000000  0.0000000 )
                  (  0.0000000 -1.0000000  0.0000000 )
                  (  0.0000000  0.0000000 -1.0000000 )


      isym = 14     inv. 180 deg rotation - cart. axis [0,0,1]   

 cryst.   s(14) = (     1          0          0      )    f =(  0.0000000 )
                  (     0          1          0      )       (  0.0000000 )
                  (     0          0         -1      )       (  0.5000000 )

 cart.    s(14) = (  1.0000000  0.0000000  0.0000000 )    f =(  0.0000000 )
                  (  0.0000000  1.0000000  0.0000000 )       (  0.0000000 )
                  (  0.0000000  0.0000000 -1.0000000 )       (  0.8125000 )


      isym = 15     inv. 180 deg rotation - cart. axis [0,1,0]   

 cryst.   s(15) = (     1          0          0      )    f =(  0.0000000 )
                  (    -1         -1          0      )       ( -0.0000000 )
                  (     0          0          1      )       ( -0.5000000 )

 cart.    s(15) = (  1.0000000  0.0000000  0.0000000 )    f =(  0.0000000 )
                  (  0.0000000 -1.0000000  0.0000000 )       ( -0.0000000 )
                  (  0.0000000  0.0000000  1.0000000 )       ( -0.8125000 )


      isym = 16     inv. 180 deg rotation - cart. axis [1,0,0]   

 cryst.   s(16) = (    -1          0          0      )
                  (     1          1          0      )
                  (     0          0          1      )

 cart.    s(16) = ( -1.0000000  0.0000000  0.0000000 )
                  (  0.0000000  1.0000000  0.0000000 )
                  (  0.0000000  0.0000000  1.0000000 )


      isym = 17     inv.  60 deg rotation - cryst. axis [0,0,1]  

 cryst.   s(17) = (    -1         -1          0      )    f =(  0.0000000 )
                  (     1          0          0      )       ( -0.0000000 )
                  (     0          0         -1      )       (  0.5000000 )

 cart.    s(17) = ( -0.5000000  0.8660254  0.0000000 )    f =(  0.0000000 )
                  ( -0.8660254 -0.5000000  0.0000000 )       ( -0.0000000 )
                  (  0.0000000  0.0000000 -1.0000000 )       (  0.8125000 )


      isym = 18     inv.  60 deg rotation - cryst. axis [0,0,-1] 

 cryst.   s(18) = (     0          1          0      )    f =( -0.0000000 )
                  (    -1         -1          0      )       ( -0.0000000 )
                  (     0          0         -1      )       (  0.5000000 )

 cart.    s(18) = ( -0.5000000 -0.8660254  0.0000000 )    f =(  0.0000000 )
                  (  0.8660254 -0.5000000  0.0000000 )       ( -0.0000000 )
                  (  0.0000000  0.0000000 -1.0000000 )       (  0.8125000 )


      isym = 19     inv. 120 deg rotation - cryst. axis [0,0,1]  

 cryst.   s(19) = (     0         -1          0      )
                  (     1          1          0      )
                  (     0          0         -1      )

 cart.    s(19) = (  0.5000000  0.8660254  0.0000000 )
                  ( -0.8660254  0.5000000  0.0000000 )
                  (  0.0000000  0.0000000 -1.0000000 )


      isym = 20     inv. 120 deg rotation - cryst. axis [0,0,-1] 

 cryst.   s(20) = (     1          1          0      )
                  (    -1          0          0      )
                  (     0          0         -1      )

 cart.    s(20) = (  0.5000000 -0.8660254  0.0000000 )
                  (  0.8660254  0.5000000  0.0000000 )
                  (  0.0000000  0.0000000 -1.0000000 )


      isym = 21     inv. 180 deg rotation - cryst. axis [1,-1,0] 

 cryst.   s(21) = (     0          1          0      )    f =(  0.0000000 )
                  (     1          0          0      )       ( -0.0000000 )
                  (     0          0          1      )       ( -0.5000000 )

 cart.    s(21) = ( -0.5000000  0.8660254  0.0000000 )    f =(  0.0000000 )
                  (  0.8660254  0.5000000  0.0000000 )       ( -0.0000000 )
                  (  0.0000000  0.0000000  1.0000000 )       ( -0.8125000 )


      isym = 22     inv. 180 deg rotation - cryst. axis [2,1,0]  

 cryst.   s(22) = (    -1         -1          0      )    f =(  0.0000000 )
                  (     0          1          0      )       ( -0.0000000 )
                  (     0          0          1      )       ( -0.5000000 )

 cart.    s(22) = ( -0.5000000 -0.8660254  0.0000000 )    f =(  0.0000000 )
                  ( -0.8660254  0.5000000  0.0000000 )       ( -0.0000000 )
                  (  0.0000000  0.0000000  1.0000000 )       ( -0.8125000 )


      isym = 23     inv. 180 deg rotation - cryst. axis [0,1,0]  

 cryst.   s(23) = (     1          1          0      )
                  (     0         -1          0      )
                  (     0          0          1      )

 cart.    s(23) = (  0.5000000  0.8660254  0.0000000 )
                  (  0.8660254 -0.5000000  0.0000000 )
                  (  0.0000000  0.0000000  1.0000000 )


      isym = 24     inv. 180 deg rotation - cryst. axis [1,1,0]  

 cryst.   s(24) = (     0         -1          0      )
                  (    -1          0          0      )
                  (     0          0          1      )

 cart.    s(24) = (  0.5000000 -0.8660254  0.0000000 )
                  ( -0.8660254 -0.5000000  0.0000000 )
                  (  0.0000000  0.0000000  1.0000000 )


     point group D_6h(6/mmm)
     there are 12 classes
     the character table:

       E     2C6   2C3   C2    3C2'  3C2'' i     2S3   2S6   s_h   3s_d  3s_v 
A_1g   1.00  1.00  1.00  1.00  1.00  1.00  1.00  1.00  1.00  1.00  1.00  1.00
A_2g   1.00  1.00  1.00  1.00 -1.00 -1.00  1.00  1.00  1.00  1.00 -1.00 -1.00
B_1g   1.00 -1.00  1.00 -1.00  1.00 -1.00  1.00 -1.00  1.00 -1.00  1.00 -1.00
B_2g   1.00 -1.00  1.00 -1.00 -1.00  1.00  1.00 -1.00  1.00 -1.00 -1.00  1.00
E_1g   2.00  1.00 -1.00 -2.00  0.00  0.00  2.00  1.00 -1.00 -2.00  0.00  0.00
E_2g   2.00 -1.00 -1.00  2.00  0.00  0.00  2.00 -1.00 -1.00  2.00  0.00  0.00
A_1u   1.00  1.00  1.00  1.00  1.00  1.00 -1.00 -1.00 -1.00 -1.00 -1.00 -1.00
A_2u   1.00  1.00  1.00  1.00 -1.00 -1.00 -1.00 -1.00 -1.00 -1.00  1.00  1.00
B_1u   1.00 -1.00  1.00 -1.00  1.00 -1.00 -1.00  1.00 -1.00  1.00 -1.00  1.00
B_2u   1.00 -1.00  1.00 -1.00 -1.00  1.00 -1.00  1.00 -1.00  1.00  1.00 -1.00
E_1u   2.00  1.00 -1.00 -2.00  0.00  0.00 -2.00 -1.00  1.00  2.00  0.00  0.00
E_2u   2.00 -1.00 -1.00  2.00  0.00  0.00 -2.00  1.00  1.00 -2.00  0.00  0.00

     the symmetry operations in each class and the name of the first element:

     E        1
          identity                                               
     2C6      5    6
           60 deg rotation - cryst. axis [0,0,1]                 
     2C3      7    8
          120 deg rotation - cryst. axis [0,0,1]                 
     C2       2
          180 deg rotation - cart. axis [0,0,1]                  
     3C2'     4   12   11
          180 deg rotation - cart. axis [1,0,0]                  
     3C2''    3    9   10
          180 deg rotation - cart. axis [0,1,0]                  
     i       13
          inversion                                              
     2S3     17   18
          inv.  60 deg rotation - cryst. axis [0,0,1]            
     2S6     19   20
          inv. 120 deg rotation - cryst. axis [0,0,1]            
     s_h     14
          inv. 180 deg rotation - cart. axis [0,0,1]             
     3s_d    16   24   23
          inv. 180 deg rotation - cart. axis [1,0,0]             
     3s_v    15   21   22
          inv. 180 deg rotation - cart. axis [0,1,0]             

   Cartesian axes

     site n.     atom                  positions (alat units)
         1           Co  tau(   1) = (  -0.0000000   0.5773503   0.4062500  )
         2           Co  tau(   2) = (   0.5000000   0.2886751   1.2187500  )

   Crystallographic axes

     site n.     atom                  positions (cryst. coord.)
         1           Co  tau(   1) = (  0.3333333  0.6666667  0.2500000  )
         2           Co  tau(   2) = (  0.6666667  0.3333333  0.7500000  )

     number of k points=    76  Gaussian smearing, width (Ry)=  0.0010
                       cart. coord. in units 2pi/alat
        k(    1) = (   0.0000000   0.0000000   0.0000000), wk =   0.0011574
        k(    2) = (   0.0000000   0.0000000   0.1025641), wk =   0.0023148
        k(    3) = (   0.0000000   0.0000000   0.2051282), wk =   0.0023148
        k(    4) = (   0.0000000   0.0000000  -0.3076923), wk =   0.0011574
        k(    5) = (   0.0000000   0.0962250   0.0000000), wk =   0.0069444
        k(    6) = (   0.0000000   0.0962250   0.1025641), wk =   0.0138889
        k(    7) = (   0.0000000   0.0962250   0.2051282), wk =   0.0138889
        k(    8) = (   0.0000000   0.0962250  -0.3076923), wk =   0.0069444
        k(    9) = (   0.0000000   0.1924501   0.0000000), wk =   0.0069444
        k(   10) = (   0.0000000   0.1924501   0.1025641), wk =   0.0138889
        k(   11) = (   0.0000000   0.1924501   0.2051282), wk =   0.0138889
        k(   12) = (   0.0000000   0.1924501  -0.3076923), wk =   0.0069444
        k(   13) = (   0.0000000   0.2886751   0.0000000), wk =   0.0069444
        k(   14) = (   0.0000000   0.2886751   0.1025641), wk =   0.0138889
        k(   15) = (   0.0000000   0.2886751   0.2051282), wk =   0.0138889
        k(   16) = (   0.0000000   0.2886751  -0.3076923), wk =   0.0069444
        k(   17) = (   0.0000000   0.3849002   0.0000000), wk =   0.0069444
        k(   18) = (   0.0000000   0.3849002   0.1025641), wk =   0.0138889
        k(   19) = (   0.0000000   0.3849002   0.2051282), wk =   0.0138889
        k(   20) = (   0.0000000   0.3849002  -0.3076923), wk =   0.0069444
        k(   21) = (   0.0000000   0.4811252   0.0000000), wk =   0.0069444
        k(   22) = (   0.0000000   0.4811252   0.1025641), wk =   0.0138889
        k(   23) = (   0.0000000   0.4811252   0.2051282), wk =   0.0138889
        k(   24) = (   0.0000000   0.4811252  -0.3076923), wk =   0.0069444
        k(   25) = (   0.0000000  -0.5773503   0.0000000), wk =   0.0034722
        k(   26) = (   0.0000000  -0.5773503   0.1025641), wk =   0.0069444
        k(   27) = (   0.0000000  -0.5773503   0.2051282), wk =   0.0069444
        k(   28) = (   0.0000000  -0.5773503  -0.3076923), wk =   0.0034722
        k(   29) = (   0.0833333   0.1443376   0.0000000), wk =   0.0069444
        k(   30) = (   0.0833333   0.1443376   0.1025641), wk =   0.0138889
        k(   31) = (   0.0833333   0.1443376   0.2051282), wk =   0.0138889
        k(   32) = (   0.0833333   0.1443376  -0.3076923), wk =   0.0069444
        k(   33) = (   0.0833333   0.2405626   0.0000000), wk =   0.0138889
        k(   34) = (   0.0833333   0.2405626   0.1025641), wk =   0.0277778
        k(   35) = (   0.0833333   0.2405626   0.2051282), wk =   0.0277778
        k(   36) = (   0.0833333   0.2405626  -0.3076923), wk =   0.0138889
        k(   37) = (   0.0833333   0.3367877   0.0000000), wk =   0.0138889
        k(   38) = (   0.0833333   0.3367877   0.1025641), wk =   0.0277778
        k(   39) = (   0.0833333   0.3367877   0.2051282), wk =   0.0277778
        k(   40) = (   0.0833333   0.3367877  -0.3076923), wk =   0.0138889
        k(   41) = (   0.0833333   0.4330127   0.0000000), wk =   0.0138889
        k(   42) = (   0.0833333   0.4330127   0.1025641), wk =   0.0277778
        k(   43) = (   0.0833333   0.4330127   0.2051282), wk =   0.0277778
        k(   44) = (   0.0833333   0.4330127  -0.3076923), wk =   0.0138889
        k(   45) = (   0.0833333   0.5292377   0.0000000), wk =   0.0138889
        k(   46) = (   0.0833333   0.5292377   0.1025641), wk =   0.0277778
        k(   47) = (   0.0833333   0.5292377   0.2051282), wk =   0.0277778
        k(   48) = (   0.0833333   0.5292377  -0.3076923), wk =   0.0138889
        k(   49) = (   0.1666667   0.2886751   0.0000000), wk =   0.0069444
        k(   50) = (   0.1666667   0.2886751   0.1025641), wk =   0.0138889
        k(   51) = (   0.1666667   0.2886751   0.2051282), wk =   0.0138889
        k(   52) = (   0.1666667   0.2886751  -0.3076923), wk =   0.0069444
        k(   53) = (   0.1666667   0.3849002   0.0000000), wk =   0.0138889
        k(   54) = (   0.1666667   0.3849002   0.1025641), wk =   0.0277778
        k(   55) = (   0.1666667   0.3849002   0.2051282), wk =   0.0277778
        k(   56) = (   0.1666667   0.3849002  -0.3076923), wk =   0.0138889
        k(   57) = (   0.1666667   0.4811252   0.0000000), wk =   0.0138889
        k(   58) = (   0.1666667   0.4811252   0.1025641), wk =   0.0277778
        k(   59) = (   0.1666667   0.4811252   0.2051282), wk =   0.0277778
        k(   60) = (   0.1666667   0.4811252  -0.3076923), wk =   0.0138889
        k(   61) = (   0.1666667   0.5773503   0.0000000), wk =   0.0069444
        k(   62) = (   0.1666667   0.5773503   0.1025641), wk =   0.0138889
        k(   63) = (   0.1666667   0.5773503   0.2051282), wk =   0.0138889
        k(   64) = (   0.1666667   0.5773503  -0.3076923), wk =   0.0069444
        k(   65) = (   0.2500000   0.4330127   0.0000000), wk =   0.0069444
        k(   66) = (   0.2500000   0.4330127   0.1025641), wk =   0.0138889
        k(   67) = (   0.2500000   0.4330127   0.2051282), wk =   0.0138889
        k(   68) = (   0.2500000   0.4330127  -0.3076923), wk =   0.0069444
        k(   69) = (   0.2500000   0.5292377   0.0000000), wk =   0.0138889
        k(   70) = (   0.2500000   0.5292377   0.1025641), wk =   0.0277778
        k(   71) = (   0.2500000   0.5292377   0.2051282), wk =   0.0277778
        k(   72) = (   0.2500000   0.5292377  -0.3076923), wk =   0.0138889
        k(   73) = (   0.3333333   0.5773503   0.0000000), wk =   0.0023148
        k(   74) = (   0.3333333   0.5773503   0.1025641), wk =   0.0046296
        k(   75) = (   0.3333333   0.5773503   0.2051282), wk =   0.0046296
        k(   76) = (   0.3333333   0.5773503  -0.3076923), wk =   0.0023148

                       cryst. coord.
        k(    1) = (   0.0000000   0.0000000   0.0000000), wk =   0.0011574
        k(    2) = (   0.0000000   0.0000000   0.1666667), wk =   0.0023148
        k(    3) = (   0.0000000   0.0000000   0.3333333), wk =   0.0023148
        k(    4) = (   0.0000000   0.0000000  -0.5000000), wk =   0.0011574
        k(    5) = (   0.0000000   0.0833333   0.0000000), wk =   0.0069444
        k(    6) = (   0.0000000   0.0833333   0.1666667), wk =   0.0138889
        k(    7) = (   0.0000000   0.0833333   0.3333333), wk =   0.0138889
        k(    8) = (   0.0000000   0.0833333  -0.5000000), wk =   0.0069444
        k(    9) = (   0.0000000   0.1666667   0.0000000), wk =   0.0069444
        k(   10) = (   0.0000000   0.1666667   0.1666667), wk =   0.0138889
        k(   11) = (   0.0000000   0.1666667   0.3333333), wk =   0.0138889
        k(   12) = (   0.0000000   0.1666667  -0.5000000), wk =   0.0069444
        k(   13) = (   0.0000000   0.2500000   0.0000000), wk =   0.0069444
        k(   14) = (   0.0000000   0.2500000   0.1666667), wk =   0.0138889
        k(   15) = (   0.0000000   0.2500000   0.3333333), wk =   0.0138889
        k(   16) = (   0.0000000   0.2500000  -0.5000000), wk =   0.0069444
        k(   17) = (   0.0000000   0.3333333   0.0000000), wk =   0.0069444
        k(   18) = (   0.0000000   0.3333333   0.1666667), wk =   0.0138889
        k(   19) = (   0.0000000   0.3333333   0.3333333), wk =   0.0138889
        k(   20) = (   0.0000000   0.3333333  -0.5000000), wk =   0.0069444
        k(   21) = (   0.0000000   0.4166667   0.0000000), wk =   0.0069444
        k(   22) = (   0.0000000   0.4166667   0.1666667), wk =   0.0138889
        k(   23) = (   0.0000000   0.4166667   0.3333333), wk =   0.0138889
        k(   24) = (   0.0000000   0.4166667  -0.5000000), wk =   0.0069444
        k(   25) = (   0.0000000  -0.5000000   0.0000000), wk =   0.0034722
        k(   26) = (   0.0000000  -0.5000000   0.1666667), wk =   0.0069444
        k(   27) = (   0.0000000  -0.5000000   0.3333333), wk =   0.0069444
        k(   28) = (   0.0000000  -0.5000000  -0.5000000), wk =   0.0034722
        k(   29) = (   0.0833333   0.0833333   0.0000000), wk =   0.0069444
        k(   30) = (   0.0833333   0.0833333   0.1666667), wk =   0.0138889
        k(   31) = (   0.0833333   0.0833333   0.3333333), wk =   0.0138889
        k(   32) = (   0.0833333   0.0833333  -0.5000000), wk =   0.0069444
        k(   33) = (   0.0833333   0.1666667   0.0000000), wk =   0.0138889
        k(   34) = (   0.0833333   0.1666667   0.1666667), wk =   0.0277778
        k(   35) = (   0.0833333   0.1666667   0.3333333), wk =   0.0277778
        k(   36) = (   0.0833333   0.1666667  -0.5000000), wk =   0.0138889
        k(   37) = (   0.0833333   0.2500000   0.0000000), wk =   0.0138889
        k(   38) = (   0.0833333   0.2500000   0.1666667), wk =   0.0277778
        k(   39) = (   0.0833333   0.2500000   0.3333333), wk =   0.0277778
        k(   40) = (   0.0833333   0.2500000  -0.5000000), wk =   0.0138889
        k(   41) = (   0.0833333   0.3333333   0.0000000), wk =   0.0138889
        k(   42) = (   0.0833333   0.3333333   0.1666667), wk =   0.0277778
        k(   43) = (   0.0833333   0.3333333   0.3333333), wk =   0.0277778
        k(   44) = (   0.0833333   0.3333333  -0.5000000), wk =   0.0138889
        k(   45) = (   0.0833333   0.4166667   0.0000000), wk =   0.0138889
        k(   46) = (   0.0833333   0.4166667   0.1666667), wk =   0.0277778
        k(   47) = (   0.0833333   0.4166667   0.3333333), wk =   0.0277778
        k(   48) = (   0.0833333   0.4166667  -0.5000000), wk =   0.0138889
        k(   49) = (   0.1666667   0.1666667   0.0000000), wk =   0.0069444
        k(   50) = (   0.1666667   0.1666667   0.1666667), wk =   0.0138889
        k(   51) = (   0.1666667   0.1666667   0.3333333), wk =   0.0138889
        k(   52) = (   0.1666667   0.1666667  -0.5000000), wk =   0.0069444
        k(   53) = (   0.1666667   0.2500000   0.0000000), wk =   0.0138889
        k(   54) = (   0.1666667   0.2500000   0.1666667), wk =   0.0277778
        k(   55) = (   0.1666667   0.2500000   0.3333333), wk =   0.0277778
        k(   56) = (   0.1666667   0.2500000  -0.5000000), wk =   0.0138889
        k(   57) = (   0.1666667   0.3333333   0.0000000), wk =   0.0138889
        k(   58) = (   0.1666667   0.3333333   0.1666667), wk =   0.0277778
        k(   59) = (   0.1666667   0.3333333   0.3333333), wk =   0.0277778
        k(   60) = (   0.1666667   0.3333333  -0.5000000), wk =   0.0138889
        k(   61) = (   0.1666667   0.4166667   0.0000000), wk =   0.0069444
        k(   62) = (   0.1666667   0.4166667   0.1666667), wk =   0.0138889
        k(   63) = (   0.1666667   0.4166667   0.3333333), wk =   0.0138889
        k(   64) = (   0.1666667   0.4166667  -0.5000000), wk =   0.0069444
        k(   65) = (   0.2500000   0.2500000   0.0000000), wk =   0.0069444
        k(   66) = (   0.2500000   0.2500000   0.1666667), wk =   0.0138889
        k(   67) = (   0.2500000   0.2500000   0.3333333), wk =   0.0138889
        k(   68) = (   0.2500000   0.2500000  -0.5000000), wk =   0.0069444
        k(   69) = (   0.2500000   0.3333333   0.0000000), wk =   0.0138889
        k(   70) = (   0.2500000   0.3333333   0.1666667), wk =   0.0277778
        k(   71) = (   0.2500000   0.3333333   0.3333333), wk =   0.0277778
        k(   72) = (   0.2500000   0.3333333  -0.5000000), wk =   0.0138889
        k(   73) = (   0.3333333   0.3333333   0.0000000), wk =   0.0023148
        k(   74) = (   0.3333333   0.3333333   0.1666667), wk =   0.0046296
        k(   75) = (   0.3333333   0.3333333   0.3333333), wk =   0.0046296
        k(   76) = (   0.3333333   0.3333333  -0.5000000), wk =   0.0023148

     Dense  grid:    23307 G-vectors     FFT dimensions: (  32,  32,  54)

     Smooth grid:    22623 G-vectors     FFT dimensions: (  32,  32,  54)

     Dynamical RAM for                 wfc:       0.05 MB

     Dynamical RAM for     wfc (w. buffer):       6.91 MB

     Dynamical RAM for           str. fact:       0.02 MB

     Dynamical RAM for           local pot:       0.00 MB

     Dynamical RAM for          nlocal pot:       0.08 MB

     Dynamical RAM for                qrad:       1.70 MB

     Dynamical RAM for          rho,v,vnew:       0.25 MB

     Dynamical RAM for               rhoin:       0.08 MB

     Dynamical RAM for            rho*nmix:       0.57 MB

     Dynamical RAM for           G-vectors:       0.08 MB

     Dynamical RAM for          h,s,v(r/c):       0.08 MB

     Dynamical RAM for          <psi|beta>:       0.01 MB

     Dynamical RAM for                 psi:       0.09 MB

     Dynamical RAM for                hpsi:       0.09 MB

     Dynamical RAM for                spsi:       0.09 MB

     Dynamical RAM for      wfcinit/wfcrot:       0.10 MB

     Dynamical RAM for           addusdens:       3.38 MB

     Estimated static dynamical RAM per process >       9.29 MB

     Estimated max dynamical RAM per process >      13.25 MB

     Estimated total dynamical RAM >     264.90 MB

     Check: negative core charge=   -0.000043
     Generating pointlists ...
     new r_m :   0.4112 (alat units)  1.9269 (a.u.) for type    1

     The initial density is read from file :
     ./out/Co.save/charge-density


     starting charge      34.0422, renormalised to      34.0000

     negative rho (up, down):  9.063E-05 1.812E-05
     Starting wfcs from file
     Checking if some PAW data can be deallocated... 

     total cpu time spent up to now is        0.6 secs

     Self-consistent Calculation

     iteration #  1     ecut=   110.00 Ry     beta= 0.70
     Davidson diagonalization with overlap

---- Real-time Memory Report at c_bands before calling an iterative solver
            56 MiB given to the printing process from OS
             0 MiB allocation reported by mallinfo(arena+hblkhd)
        240790 MiB available memory on the node where the printing process lives
------------------
     ethr =  1.00E-05,  avg # of iterations =  6.1

     total cpu time spent up to now is        3.6 secs

     total energy              =    -753.42367251 Ry
     estimated scf accuracy    <       0.01716089 Ry

     total magnetization       =     3.28 Bohr mag/cell
     absolute magnetization    =     3.55 Bohr mag/cell

     iteration #  2     ecut=   110.00 Ry     beta= 0.70
     Davidson diagonalization with overlap

---- Real-time Memory Report at c_bands before calling an iterative solver
            77 MiB given to the printing process from OS
             0 MiB allocation reported by mallinfo(arena+hblkhd)
        240577 MiB available memory on the node where the printing process lives
------------------
     ethr =  5.05E-05,  avg # of iterations =  5.8

     total cpu time spent up to now is        6.3 secs

     total energy              =    -753.43659927 Ry
     estimated scf accuracy    <       0.09330565 Ry

     total magnetization       =     3.29 Bohr mag/cell
     absolute magnetization    =     3.61 Bohr mag/cell

     iteration #  3     ecut=   110.00 Ry     beta= 0.70
     Davidson diagonalization with overlap

---- Real-time Memory Report at c_bands before calling an iterative solver
            78 MiB given to the printing process from OS
             0 MiB allocation reported by mallinfo(arena+hblkhd)
        240579 MiB available memory on the node where the printing process lives
------------------
     ethr =  5.05E-05,  avg # of iterations =  4.1

     total cpu time spent up to now is        8.3 secs

     total energy              =    -753.45357833 Ry
     estimated scf accuracy    <       0.00415231 Ry

     total magnetization       =     3.30 Bohr mag/cell
     absolute magnetization    =     3.60 Bohr mag/cell

     iteration #  4     ecut=   110.00 Ry     beta= 0.70
     Davidson diagonalization with overlap

---- Real-time Memory Report at c_bands before calling an iterative solver
            80 MiB given to the printing process from OS
             0 MiB allocation reported by mallinfo(arena+hblkhd)
        240575 MiB available memory on the node where the printing process lives
------------------
     ethr =  1.22E-05,  avg # of iterations =  3.5

     total cpu time spent up to now is       10.2 secs

     total energy              =    -753.45490304 Ry
     estimated scf accuracy    <       0.00005598 Ry

     total magnetization       =     3.30 Bohr mag/cell
     absolute magnetization    =     3.62 Bohr mag/cell

     iteration #  5     ecut=   110.00 Ry     beta= 0.70
     Davidson diagonalization with overlap

---- Real-time Memory Report at c_bands before calling an iterative solver
            80 MiB given to the printing process from OS
             0 MiB allocation reported by mallinfo(arena+hblkhd)
        240566 MiB available memory on the node where the printing process lives
------------------
     ethr =  1.65E-07,  avg # of iterations =  7.5

     total cpu time spent up to now is       13.2 secs

     total energy              =    -753.45503957 Ry
     estimated scf accuracy    <       0.00014187 Ry

     total magnetization       =     3.31 Bohr mag/cell
     absolute magnetization    =     3.62 Bohr mag/cell

     iteration #  6     ecut=   110.00 Ry     beta= 0.70
     Davidson diagonalization with overlap

---- Real-time Memory Report at c_bands before calling an iterative solver
            81 MiB given to the printing process from OS
             0 MiB allocation reported by mallinfo(arena+hblkhd)
        240556 MiB available memory on the node where the printing process lives
------------------
     ethr =  1.65E-07,  avg # of iterations =  4.6

     total cpu time spent up to now is       15.4 secs

     total energy              =    -753.45507614 Ry
     estimated scf accuracy    <       0.00001686 Ry

     total magnetization       =     3.31 Bohr mag/cell
     absolute magnetization    =     3.62 Bohr mag/cell

     iteration #  7     ecut=   110.00 Ry     beta= 0.70
     Davidson diagonalization with overlap

---- Real-time Memory Report at c_bands before calling an iterative solver
            81 MiB given to the printing process from OS
             0 MiB allocation reported by mallinfo(arena+hblkhd)
        240547 MiB available memory on the node where the printing process lives
------------------
     ethr =  4.96E-08,  avg # of iterations =  3.8
 
     Magnetic moment per site  (integrated on atomic sphere of radius R)
     atom   1 (R=0.411)  charge= 15.5890  magn=  1.7257
     atom   2 (R=0.411)  charge= 15.5890  magn=  1.7257

     total cpu time spent up to now is       17.2 secs

     End of self-consistent calculation

 ------ SPIN UP ------------


          k = 0.0000 0.0000 0.0000 (  2803 PWs)   bands (ev):

   -77.2108 -77.1528 -40.6178 -40.3119 -40.3119 -40.2819 -40.2639 -40.2639
     9.8648  13.6736  16.2315  16.2909  16.2909  16.6048  16.6048  16.9686
    16.9686  18.0760  18.0760  18.6280  25.2458

     occupation numbers 
     1.0000   1.0000   1.0000   1.0000   1.0000   1.0000   1.0000   1.0000
     1.0000   1.0000   1.0000   1.0000   1.0000   1.0000   1.0000   1.0000
     1.0000   1.0000   1.0000   1.0000   0.0000

          k = 0.0000 0.0000 0.1026 (  2827 PWs)   bands (ev):

   -77.2070 -77.1567 -40.5956 -40.3087 -40.3087 -40.3047 -40.2671 -40.2671
    10.1425  13.6029  16.1604  16.2275  16.2275  16.5316  16.5316  17.1306
    17.1306  17.6803  18.0588  18.0588  26.7601

     occupation numbers 
     1.0000   1.0000   1.0000   1.0000   1.0000   1.0000   1.0000   1.0000
     1.0000   1.0000   1.0000   1.0000   1.0000   1.0000   1.0000   1.0000
     1.0000   1.0000   1.0000   1.0000   0.0000

          k = 0.0000 0.0000 0.2051 (  2828 PWs)   bands (ev):

   -77.1964 -77.1673 -40.5347 -40.3667 -40.3000 -40.3000 -40.2759 -40.2759
    10.9384  13.1622  15.9961  16.1735  16.1735  16.3682  16.3698  16.3698
    17.4525  17.4525  17.9691  17.9691  29.9697

     occupation numbers 
     1.0000   1.0000   1.0000   1.0000   1.0000   1.0000   1.0000   1.0000
     1.0000   1.0000   1.0000   1.0000   1.0000   1.0000   1.0000   1.0000
     1.0000   1.0000   1.0000   1.0000   0.0000

          k = 0.0000 0.0000-0.3077 (  2834 PWs)   bands (ev):

   -77.1819 -77.1819 -40.4510 -40.4510 -40.2880 -40.2880 -40.2880 -40.2880
    12.0969  12.0969  15.9175  15.9175  16.2256  16.2256  16.2256  16.2256
    17.7609  17.7609  17.7609  17.7609  33.8032

     occupation numbers 
     1.0000   1.0000   1.0000   1.0000   1.0000   1.0000   1.0000   1.0000
     1.0000   1.0000   1.0000   1.0000   1.0000   1.0000   1.0000   1.0000
     1.0000   1.0000   1.0000   1.0000   0.0000

          k = 0.0000 0.0962 0.0000 (  2817 PWs)   bands (ev):

   -77.2075 -77.1512 -40.6105 -40.3284 -40.3173 -40.2848 -40.2809 -40.2667
    10.1093  13.8219  16.0385  16.4070  16.4471  16.5547  16.7079  16.8030
    16.8963  17.2451  18.1062  19.7887  25.2850

     occupation numbers 
     1.0000   1.0000   1.0000   1.0000   1.0000   1.0000   1.0000   1.0000
     1.0000   1.0000   1.0000   1.0000   1.0000   1.0000   1.0000   1.0000
     1.0000   1.0000   1.0000   0.0000   0.0000

          k = 0.0000 0.0962 0.1026 (  2819 PWs)   bands (ev):

   -77.2037 -77.1550 -40.5895 -40.3248 -40.3139 -40.3122 -40.2788 -40.2701
    10.3826  13.7658  16.0375  16.2728  16.3272  16.3698  16.6287  16.9148
    17.0851  17.1612  18.0816  19.0273  26.8688

     occupation numbers 
     1.0000   1.0000   1.0000   1.0000   1.0000   1.0000   1.0000   1.0000
     1.0000   1.0000   1.0000   1.0000   1.0000   1.0000   1.0000   1.0000
     1.0000   1.0000   1.0000   0.0000   0.0000

          k = 0.0000 0.0962 0.2051 (  2818 PWs)   bands (ev):

   -77.1935 -77.1653 -40.5319 -40.3727 -40.3144 -40.3047 -40.2872 -40.2794
    11.1658  13.3533  15.9232  15.9779  16.0934  16.2660  16.4655  16.5216
    17.4261  17.4710  17.9751  18.2694  30.1240

     occupation numbers 
     1.0000   1.0000   1.0000   1.0000   1.0000   1.0000   1.0000   1.0000
     1.0000   1.0000   1.0000   1.0000   1.0000   1.0000   1.0000   1.0000
     1.0000   1.0000   1.0000   1.0000   0.0000

          k = 0.0000 0.0962-0.3077 (  2832 PWs)   bands (ev):

   -77.1794 -77.1794 -40.4528 -40.4528 -40.3006 -40.3006 -40.2920 -40.2920
    12.3058  12.3058  15.7739  15.7739  16.2346  16.2346  16.3194  16.3194
    17.7494  17.7494  17.8530  17.8530  33.9728

     occupation numbers 
     1.0000   1.0000   1.0000   1.0000   1.0000   1.0000   1.0000   1.0000
     1.0000   1.0000   1.0000   1.0000   1.0000   1.0000   1.0000   1.0000
     1.0000   1.0000   1.0000   1.0000   0.0000

          k = 0.0000 0.1925 0.0000 (  2817 PWs)   bands (ev):

   -77.1982 -77.1470 -40.5895 -40.3735 -40.3316 -40.3271 -40.2938 -40.2745
    10.8161  14.1890  15.7657  16.0429  16.3714  16.7181  16.7351  16.7550
    16.9002  16.9970  18.1702  21.3966  25.4238

     occupation numbers 
     1.0000   1.0000   1.0000   1.0000   1.0000   1.0000   1.0000   1.0000
     1.0000   1.0000   1.0000   1.0000   1.0000   1.0000   1.0000   1.0000
     1.0000   1.0000   1.0000   0.0000   0.0000

          k = 0.0000 0.1925 0.1026 (  2810 PWs)   bands (ev):

   -77.1948 -77.1505 -40.5726 -40.3683 -40.3462 -40.3278 -40.2972 -40.2784
    11.0732  14.1777  15.7661  15.8077  16.2496  16.5435  16.6391  16.8809
    17.0631  17.1504  18.1291  20.2686  27.2231

     occupation numbers 
     1.0000   1.0000   1.0000   1.0000   1.0000   1.0000   1.0000   1.0000
     1.0000   1.0000   1.0000   1.0000   1.0000   1.0000   1.0000   1.0000
     1.0000   1.0000   1.0000   0.0000   0.0000

          k = 0.0000 0.1925 0.2051 (  2815 PWs)   bands (ev):

   -77.1854 -77.1598 -40.5262 -40.3973 -40.3513 -40.3173 -40.3104 -40.2888
    11.8065  13.8481  15.4224  15.8664  15.9625  16.4603  16.4923  16.7307
    17.3981  17.5575  17.9876  18.9189  30.5854

     occupation numbers 
     1.0000   1.0000   1.0000   1.0000   1.0000   1.0000   1.0000   1.0000
     1.0000   1.0000   1.0000   1.0000   1.0000   1.0000   1.0000   1.0000
     1.0000   1.0000   1.0000   0.0024   0.0000

          k = 0.0000 0.1925-0.3077 (  2832 PWs)   bands (ev):

   -77.1726 -77.1726 -40.4622 -40.4622 -40.3306 -40.3306 -40.3031 -40.3031
    12.8678  12.8678  15.5425  15.5425  16.1729  16.1729  16.5697  16.5697
    17.7328  17.7328  18.1010  18.1010  34.4363

     occupation numbers 
     1.0000   1.0000   1.0000   1.0000   1.0000   1.0000   1.0000   1.0000
     1.0000   1.0000   1.0000   1.0000   1.0000   1.0000   1.0000   1.0000
     1.0000   1.0000   1.0000   1.0000   0.0000

          k = 0.0000 0.2887 0.0000 (  2814 PWs)   bands (ev):

   -77.1850 -77.1418 -40.5582 -40.4356 -40.3890 -40.3505 -40.3088 -40.2858
    11.8847  14.4842  15.3090  15.5983  16.2692  16.5039  16.6952  17.1928
    17.2112  17.4126  18.2300  23.2026  25.6934

     occupation numbers 
     1.0000   1.0000   1.0000   1.0000   1.0000   1.0000   1.0000   1.0000
     1.0000   1.0000   1.0000   1.0000   1.0000   1.0000   1.0000   1.0000
     1.0000   1.0000   1.0000   0.0000   0.0000

          k = 0.0000 0.2887 0.1026 (  2809 PWs)   bands (ev):

   -77.1821 -77.1447 -40.5505 -40.4258 -40.4033 -40.3462 -40.3123 -40.2901
    12.0982  14.5266  15.1641  15.6515  16.1165  16.5428  16.6948  17.2547
    17.3200  17.3682  18.1744  21.5581  27.8591

     occupation numbers 
     1.0000   1.0000   1.0000   1.0000   1.0000   1.0000   1.0000   1.0000
     1.0000   1.0000   1.0000   1.0000   1.0000   1.0000   1.0000   1.0000
     1.0000   1.0000   1.0000   0.0000   0.0000

          k = 0.0000 0.2887 0.2051 (  2820 PWs)   bands (ev):

   -77.1742 -77.1526 -40.5271 -40.4463 -40.3913 -40.3344 -40.3276 -40.3020
    12.6927  14.2865  15.0856  15.6814  15.9863  16.5325  16.6658  17.1046
    17.5211  17.7175  18.0134  19.6971  31.2238

     occupation numbers 
     1.0000   1.0000   1.0000   1.0000   1.0000   1.0000   1.0000   1.0000
     1.0000   1.0000   1.0000   1.0000   1.0000   1.0000   1.0000   1.0000
     1.0000   1.0000   1.0000   0.0000   0.0000

          k = 0.0000 0.2887-0.3077 (  2828 PWs)   bands (ev):

   -77.1634 -77.1634 -40.4898 -40.4898 -40.3565 -40.3565 -40.3182 -40.3182
    13.5165  13.5165  15.3861  15.3861  16.2324  16.2324  16.8679  16.8679
    17.7759  17.7759  18.4489  18.4489  33.4200

     occupation numbers 
     1.0000   1.0000   1.0000   1.0000   1.0000   1.0000   1.0000   1.0000
     1.0000   1.0000   1.0000   1.0000   1.0000   1.0000   1.0000   1.0000
     1.0000   1.0000   1.0000   1.0000   0.0000

          k = 0.0000 0.3849 0.0000 (  2828 PWs)   bands (ev):

   -77.1708 -77.1375 -40.5215 -40.4983 -40.4499 -40.3690 -40.3292 -40.2974
    13.0500  14.4163  14.7797  15.7068  16.3110  16.3919  16.5092  17.7193
    17.8630  17.8937  18.2704  25.1682  25.7587

     occupation numbers 
     1.0000   1.0000   1.0000   1.0000   1.0000   1.0000   1.0000   1.0000
     1.0000   1.0000   1.0000   1.0000   1.0000   1.0000   1.0000   1.0000
     1.0000   1.0000   1.0000   0.0000   0.0000

          k = 0.0000 0.3849 0.1026 (  2826 PWs)   bands (ev):

   -77.1686 -77.1397 -40.5413 -40.4743 -40.4538 -40.3643 -40.3294 -40.3022
    13.1480  14.4465  14.8154  15.5613  16.3141  16.4042  16.8583  17.7369
    17.7707  17.8299  18.2178  22.8043  27.9481

     occupation numbers 
     1.0000   1.0000   1.0000   1.0000   1.0000   1.0000   1.0000   1.0000
     1.0000   1.0000   1.0000   1.0000   1.0000   1.0000   1.0000   1.0000
     1.0000   1.0000   1.0000   0.0000   0.0000

          k = 0.0000 0.3849 0.2051 (  2815 PWs)   bands (ev):

   -77.1625 -77.1458 -40.5483 -40.5022 -40.4094 -40.3512 -40.3389 -40.3153
    13.4245  14.2642  14.9592  15.4732  16.4193  16.6672  17.1657  17.4504
    17.8434  17.9491  18.1016  20.5881  29.0846

     occupation numbers 
     1.0000   1.0000   1.0000   1.0000   1.0000   1.0000   1.0000   1.0000
     1.0000   1.0000   1.0000   1.0000   1.0000   1.0000   1.0000   1.0000
     1.0000   1.0000   1.0000   0.0000   0.0000

          k = 0.0000 0.3849-0.3077 (  2826 PWs)   bands (ev):

   -77.1542 -77.1542 -40.5331 -40.5331 -40.3663 -40.3663 -40.3333 -40.3333
    13.8315  13.8315  15.2546  15.2546  16.8396  16.8396  17.0470  17.0470
    17.9678  17.9678  18.9323  18.9323  30.2045

     occupation numbers 
     1.0000   1.0000   1.0000   1.0000   1.0000   1.0000   1.0000   1.0000
     1.0000   1.0000   1.0000   1.0000   1.0000   1.0000   1.0000   1.0000
     1.0000   1.0000   0.0000   0.0000   0.0000

          k = 0.0000 0.4811 0.0000 (  2828 PWs)   bands (ev):

   -77.1593 -77.1355 -40.5445 -40.4938 -40.4875 -40.3824 -40.3511 -40.3061
    13.8165  14.2258  14.4637  16.0667  16.1792  16.3773  16.6001  18.1000
    18.2357  18.2916  19.0234  23.9506  27.1956

     occupation numbers 
     1.0000   1.0000   1.0000   1.0000   1.0000   1.0000   1.0000   1.0000
     1.0000   1.0000   1.0000   1.0000   1.0000   1.0000   1.0000   1.0000
     1.0000   1.0000   0.0000   0.0000   0.0000

          k = 0.0000 0.4811 0.1026 (  2822 PWs)   bands (ev):

   -77.1577 -77.1371 -40.5633 -40.5114 -40.4547 -40.3773 -40.3473 -40.3112
    13.7052  14.2198  14.7816  15.4534  16.2930  16.6018  17.2156  18.0303
    18.1325  18.3021  18.8603  23.1474  26.5529

     occupation numbers 
     1.0000   1.0000   1.0000   1.0000   1.0000   1.0000   1.0000   1.0000
     1.0000   1.0000   1.0000   1.0000   1.0000   1.0000   1.0000   1.0000
     1.0000   1.0000   0.9994   0.0000   0.0000

          k = 0.0000 0.4811 0.2051 (  2820 PWs)   bands (ev):

   -77.1533 -77.1415 -40.5779 -40.5441 -40.4062 -40.3633 -40.3482 -40.3252
    13.6710  14.1481  14.9453  15.2730  16.6161  16.8553  17.6120  18.1647
    18.1970  18.2706  18.5263  21.4191  26.7051

     occupation numbers 
     1.0000   1.0000   1.0000   1.0000   1.0000   1.0000   1.0000   1.0000
     1.0000   1.0000   1.0000   1.0000   1.0000   1.0000   1.0000   1.0000
     1.0000   1.0000   1.0000   0.0000   0.0000

          k = 0.0000 0.4811-0.3077 (  2822 PWs)   bands (ev):

   -77.1474 -77.1474 -40.5706 -40.5706 -40.3676 -40.3676 -40.3443 -40.3443
    13.8557  13.8557  15.1298  15.1298  17.0904  17.0904  17.5749  17.5749
    18.2182  18.2182  19.7599  19.7599  27.4834

     occupation numbers 
     1.0000   1.0000   1.0000   1.0000   1.0000   1.0000   1.0000   1.0000
     1.0000   1.0000   1.0000   1.0000   1.0000   1.0000   1.0000   1.0000
     1.0000   1.0000   0.0000   0.0000   0.0000

          k = 0.0000-0.5774 0.0000 (  2822 PWs)   bands (ev):

   -77.1544 -77.1354 -40.5614 -40.5097 -40.4717 -40.3872 -40.3626 -40.3093
    14.0720  14.0879  14.3589  16.1326  16.3177  16.3297  16.6768  18.2377
    18.2979  18.3866  20.1877  22.2265  28.5097

     occupation numbers 
     1.0000   1.0000   1.0000   1.0000   1.0000   1.0000   1.0000   1.0000
     1.0000   1.0000   1.0000   1.0000   1.0000   1.0000   1.0000   1.0000
     1.0000   1.0000   0.0000   0.0000   0.0000

          k = 0.0000-0.5774 0.1026 (  2824 PWs)   bands (ev):

   -77.1531 -77.1367 -40.5764 -40.5265 -40.4458 -40.3820 -40.3565 -40.3145
    13.8054  14.1222  14.8159  15.4253  16.2523  16.6899  17.4194  18.0890
    18.2801  18.3788  19.9719  22.0431  27.6590

     occupation numbers 
     1.0000   1.0000   1.0000   1.0000   1.0000   1.0000   1.0000   1.0000
     1.0000   1.0000   1.0000   1.0000   1.0000   1.0000   1.0000   1.0000
     1.0000   1.0000   0.0000   0.0000   0.0000

          k = 0.0000-0.5774 0.2051 (  2834 PWs)   bands (ev):

   -77.1497 -77.1402 -40.5909 -40.5595 -40.4018 -40.3678 -40.3528 -40.3288
    13.6903  14.1025  14.9714  15.1810  16.5926  17.0002  17.6455  18.2988
    18.3163  18.3575  19.6270  21.4285  26.6392

     occupation numbers 
     1.0000   1.0000   1.0000   1.0000   1.0000   1.0000   1.0000   1.0000
     1.0000   1.0000   1.0000   1.0000   1.0000   1.0000   1.0000   1.0000
     1.0000   1.0000   0.0000   0.0000   0.0000

          k = 0.0000-0.5774-0.3077 (  2840 PWs)   bands (ev):

   -77.1449 -77.1449 -40.5850 -40.5850 -40.3674 -40.3674 -40.3483 -40.3483
    13.8383  13.8383  15.0810  15.0810  17.0934  17.0934  17.8208  17.8208
    18.3281  18.3281  20.4096  20.4096  26.2256

     occupation numbers 
     1.0000   1.0000   1.0000   1.0000   1.0000   1.0000   1.0000   1.0000
     1.0000   1.0000   1.0000   1.0000   1.0000   1.0000   1.0000   1.0000
     1.0000   1.0000   0.0000   0.0000   0.0000

          k = 0.0833 0.1443 0.0000 (  2819 PWs)   bands (ev):

   -77.2012 -77.1483 -40.5963 -40.3564 -40.3342 -40.3061 -40.2908 -40.2741
    10.5858  14.0855  15.8241  16.2933  16.4461  16.6013  16.6441  16.6853
    16.9342  17.0263  18.1429  20.9469  25.3760

     occupation numbers 
     1.0000   1.0000   1.0000   1.0000   1.0000   1.0000   1.0000   1.0000
     1.0000   1.0000   1.0000   1.0000   1.0000   1.0000   1.0000   1.0000
     1.0000   1.0000   1.0000   0.0000   0.0000

          k = 0.0833 0.1443 0.1026 (  2818 PWs)   bands (ev):

   -77.1976 -77.1519 -40.5779 -40.3515 -40.3389 -40.3213 -40.2909 -40.2778
    10.8491  14.0597  15.8517  15.9561  16.2950  16.4978  16.6160  16.7954
    17.0830  17.1425  18.1098  19.9319  27.1024

     occupation numbers 
     1.0000   1.0000   1.0000   1.0000   1.0000   1.0000   1.0000   1.0000
     1.0000   1.0000   1.0000   1.0000   1.0000   1.0000   1.0000   1.0000
     1.0000   1.0000   1.0000   0.0000   0.0000

          k = 0.0833 0.1443 0.2051 (  2808 PWs)   bands (ev):

   -77.1880 -77.1616 -40.5276 -40.3880 -40.3384 -40.3179 -40.2998 -40.2876
    11.6017  13.7029  15.5476  15.9143  15.9742  16.4204  16.4793  16.6487
    17.4281  17.5032  17.9867  18.7307  30.4347

     occupation numbers 
     1.0000   1.0000   1.0000   1.0000   1.0000   1.0000   1.0000   1.0000
     1.0000   1.0000   1.0000   1.0000   1.0000   1.0000   1.0000   1.0000
     1.0000   1.0000   1.0000   1.0000   0.0000

          k = 0.0833 0.1443-0.3077 (  2826 PWs)   bands (ev):

   -77.1748 -77.1748 -40.4582 -40.4582 -40.3216 -40.3216 -40.3001 -40.3001
    12.6949  12.6949  15.6014  15.6014  16.1743  16.1743  16.5038  16.5038
    17.7383  17.7383  18.0236  18.0236  34.2996

     occupation numbers 
     1.0000   1.0000   1.0000   1.0000   1.0000   1.0000   1.0000   1.0000
     1.0000   1.0000   1.0000   1.0000   1.0000   1.0000   1.0000   1.0000
     1.0000   1.0000   1.0000   1.0000   0.0000

          k = 0.0833 0.2406 0.0000 (  2810 PWs)   bands (ev):

   -77.1899 -77.1436 -40.5701 -40.4061 -40.3765 -40.3351 -40.3029 -40.2869
    11.4821  14.4624  15.5494  15.5777  16.3165  16.4543  16.8632  16.8748
    17.0765  17.3590  18.1874  22.5517  25.6020

     occupation numbers 
     1.0000   1.0000   1.0000   1.0000   1.0000   1.0000   1.0000   1.0000
     1.0000   1.0000   1.0000   1.0000   1.0000   1.0000   1.0000   1.0000
     1.0000   1.0000   1.0000   0.0000   0.0000

          k = 0.0833 0.2406 0.1026 (  2809 PWs)   bands (ev):

   -77.1868 -77.1467 -40.5580 -40.3991 -40.3857 -40.3397 -40.3046 -40.2907
    11.7176  14.4959  15.3647  15.6004  16.1962  16.4674  16.6864  17.0012
    17.2714  17.3388  18.1488  21.1148  27.6198

     occupation numbers 
     1.0000   1.0000   1.0000   1.0000   1.0000   1.0000   1.0000   1.0000
     1.0000   1.0000   1.0000   1.0000   1.0000   1.0000   1.0000   1.0000
     1.0000   1.0000   1.0000   0.0000   0.0000

          k = 0.0833 0.2406 0.2051 (  2814 PWs)   bands (ev):

   -77.1783 -77.1552 -40.5242 -40.4256 -40.3749 -40.3384 -40.3143 -40.3011
    12.3826  14.2273  15.1699  15.7091  15.9233  16.3549  16.6419  16.9735
    17.5182  17.6313  18.0257  19.4275  31.0414

     occupation numbers 
     1.0000   1.0000   1.0000   1.0000   1.0000   1.0000   1.0000   1.0000
     1.0000   1.0000   1.0000   1.0000   1.0000   1.0000   1.0000   1.0000
     1.0000   1.0000   1.0000   0.0000   0.0000

          k = 0.0833 0.2406-0.3077 (  2820 PWs)   bands (ev):

   -77.1668 -77.1668 -40.4762 -40.4762 -40.3491 -40.3491 -40.3141 -40.3141
    13.3301  13.3301  15.4438  15.4438  16.0666  16.0666  16.7893  16.7893
    17.7827  17.7827  18.3245  18.3245  34.6890

     occupation numbers 
     1.0000   1.0000   1.0000   1.0000   1.0000   1.0000   1.0000   1.0000
     1.0000   1.0000   1.0000   1.0000   1.0000   1.0000   1.0000   1.0000
     1.0000   1.0000   1.0000   1.0000   0.0000

          k = 0.0833 0.3368 0.0000 (  2810 PWs)   bands (ev):

   -77.1762 -77.1389 -40.5358 -40.4669 -40.4290 -40.3619 -40.3208 -40.3007
    12.6365  14.5864  14.9979  15.4780  16.2617  16.3210  16.6716  17.2798
    17.5898  17.9351  18.2244  24.3992  25.9452

     occupation numbers 
     1.0000   1.0000   1.0000   1.0000   1.0000   1.0000   1.0000   1.0000
     1.0000   1.0000   1.0000   1.0000   1.0000   1.0000   1.0000   1.0000
     1.0000   1.0000   1.0000   0.0000   0.0000

          k = 0.0833 0.3368 0.1026 (  2821 PWs)   bands (ev):

   -77.1737 -77.1414 -40.5391 -40.4544 -40.4345 -40.3617 -40.3215 -40.3041
    12.8000  14.6511  14.9048  15.5272  16.1071  16.4926  16.6441  17.3084
    17.6793  17.7962  18.2331  22.3866  28.3543

     occupation numbers 
     1.0000   1.0000   1.0000   1.0000   1.0000   1.0000   1.0000   1.0000
     1.0000   1.0000   1.0000   1.0000   1.0000   1.0000   1.0000   1.0000
     1.0000   1.0000   1.0000   0.0000   0.0000

          k = 0.0833 0.3368 0.2051 (  2815 PWs)   bands (ev):

   -77.1669 -77.1482 -40.5340 -40.4780 -40.4032 -40.3561 -40.3301 -40.3142
    13.2428  14.4066  15.0160  15.5993  16.0184  16.5064  16.7106  17.3062
    17.7475  17.9131  18.1990  20.2883  30.7210

     occupation numbers 
     1.0000   1.0000   1.0000   1.0000   1.0000   1.0000   1.0000   1.0000
     1.0000   1.0000   1.0000   1.0000   1.0000   1.0000   1.0000   1.0000
     1.0000   1.0000   1.0000   0.0000   0.0000

          k = 0.0833 0.3368-0.3077 (  2828 PWs)   bands (ev):

   -77.1576 -77.1576 -40.5117 -40.5117 -40.3671 -40.3671 -40.3291 -40.3291
    13.8354  13.8354  15.3613  15.3613  16.2434  16.2434  16.9858  16.9858
    17.9869  17.9869  18.7869  18.7869  31.9230

     occupation numbers 
     1.0000   1.0000   1.0000   1.0000   1.0000   1.0000   1.0000   1.0000
     1.0000   1.0000   1.0000   1.0000   1.0000   1.0000   1.0000   1.0000
     1.0000   1.0000   1.0000   1.0000   0.0000

          k = 0.0833 0.4330 0.0000 (  2820 PWs)   bands (ev):

   -77.1631 -77.1360 -40.5209 -40.4995 -40.4748 -40.3831 -40.3430 -40.3125
    13.6521  14.4092  14.6064  15.7081  16.1398  16.4672  16.5158  17.8051
    18.0276  18.2470  18.7422  25.2803  26.4042

     occupation numbers 
     1.0000   1.0000   1.0000   1.0000   1.0000   1.0000   1.0000   1.0000
     1.0000   1.0000   1.0000   1.0000   1.0000   1.0000   1.0000   1.0000
     1.0000   1.0000   1.0000   0.0000   0.0000

          k = 0.0833 0.4330 0.1026 (  2822 PWs)   bands (ev):

   -77.1613 -77.1378 -40.5463 -40.4947 -40.4563 -40.3798 -40.3408 -40.3158
    13.6429  14.4304  14.7621  15.4642  16.2163  16.5443  16.8147  17.7541
    18.0623  18.0887  18.7425  23.4677  27.0873

     occupation numbers 
     1.0000   1.0000   1.0000   1.0000   1.0000   1.0000   1.0000   1.0000
     1.0000   1.0000   1.0000   1.0000   1.0000   1.0000   1.0000   1.0000
     1.0000   1.0000   1.0000   0.0000   0.0000

          k = 0.0833 0.4330 0.2051 (  2819 PWs)   bands (ev):

   -77.1563 -77.1428 -40.5603 -40.5247 -40.4104 -40.3685 -40.3457 -40.3242
    13.7229  14.3005  14.9502  15.4299  16.3230  16.7582  17.2059  17.4980
    17.9311  18.2474  18.8050  21.3113  27.8122

     occupation numbers 
     1.0000   1.0000   1.0000   1.0000   1.0000   1.0000   1.0000   1.0000
     1.0000   1.0000   1.0000   1.0000   1.0000   1.0000   1.0000   1.0000
     1.0000   1.0000   1.0000   0.0000   0.0000

          k = 0.0833 0.4330-0.3077 (  2818 PWs)   bands (ev):

   -77.1495 -77.1495 -40.5514 -40.5514 -40.3757 -40.3757 -40.3397 -40.3397
    13.9672  13.9672  15.2410  15.2410  16.7667  16.7667  17.1632  17.1632
    18.1968  18.1968  19.6358  19.6358  28.8540

     occupation numbers 
     1.0000   1.0000   1.0000   1.0000   1.0000   1.0000   1.0000   1.0000
     1.0000   1.0000   1.0000   1.0000   1.0000   1.0000   1.0000   1.0000
     1.0000   1.0000   0.0000   0.0000   0.0000

          k = 0.0833 0.5292 0.0000 (  2817 PWs)   bands (ev):

   -77.1544 -77.1354 -40.5522 -40.5013 -40.4719 -40.3949 -40.3624 -40.3194
    14.1044  14.2450  14.4109  16.0757  16.0966  16.3272  16.6743  18.1848
    18.2566  18.2609  20.0243  22.9965  28.3171

     occupation numbers 
     1.0000   1.0000   1.0000   1.0000   1.0000   1.0000   1.0000   1.0000
     1.0000   1.0000   1.0000   1.0000   1.0000   1.0000   1.0000   1.0000
     1.0000   1.0000   0.0000   0.0000   0.0000

          k = 0.0833 0.5292 0.1026 (  2827 PWs)   bands (ev):

   -77.1532 -77.1367 -40.5674 -40.5186 -40.4472 -40.3884 -40.3576 -40.3228
    13.8873  14.2556  14.8494  15.4075  16.1458  16.7344  17.0813  18.0336
    18.2085  18.2917  19.9536  22.7255  27.0763

     occupation numbers 
     1.0000   1.0000   1.0000   1.0000   1.0000   1.0000   1.0000   1.0000
     1.0000   1.0000   1.0000   1.0000   1.0000   1.0000   1.0000   1.0000
     1.0000   1.0000   0.0000   0.0000   0.0000

          k = 0.0833 0.5292 0.2051 (  2825 PWs)   bands (ev):

   -77.1497 -77.1401 -40.5820 -40.5514 -40.4093 -40.3701 -40.3590 -40.3300
    13.7954  14.2311  14.9796  15.2900  16.3195  17.0652  17.4834  17.7451
    18.1668  18.3625  19.9868  21.8530  26.3657

     occupation numbers 
     1.0000   1.0000   1.0000   1.0000   1.0000   1.0000   1.0000   1.0000
     1.0000   1.0000   1.0000   1.0000   1.0000   1.0000   1.0000   1.0000
     1.0000   1.0000   0.0000   0.0000   0.0000

          k = 0.0833 0.5292-0.3077 (  2822 PWs)   bands (ev):

   -77.1449 -77.1449 -40.5765 -40.5765 -40.3801 -40.3801 -40.3442 -40.3442
    13.9531  13.9531  15.1547  15.1547  16.8736  16.8736  17.5996  17.5996
    18.2380  18.2380  20.7219  20.7219  26.6426

     occupation numbers 
     1.0000   1.0000   1.0000   1.0000   1.0000   1.0000   1.0000   1.0000
     1.0000   1.0000   1.0000   1.0000   1.0000   1.0000   1.0000   1.0000
     1.0000   1.0000   0.0000   0.0000   0.0000

          k = 0.1667 0.2887 0.0000 (  2808 PWs)   bands (ev):

   -77.1781 -77.1395 -40.5408 -40.4423 -40.4329 -40.3538 -40.3180 -40.3091
    12.4907  14.7683  15.1134  15.2506  16.1868  16.3239  16.7716  17.0329
    17.5764  17.9583  18.1841  24.1396  25.9876

     occupation numbers 
     1.0000   1.0000   1.0000   1.0000   1.0000   1.0000   1.0000   1.0000
     1.0000   1.0000   1.0000   1.0000   1.0000   1.0000   1.0000   1.0000
     1.0000   1.0000   1.0000   0.0000   0.0000

          k = 0.1667 0.2887 0.1026 (  2811 PWs)   bands (ev):

   -77.1755 -77.1421 -40.5392 -40.4408 -40.4273 -40.3621 -40.3145 -40.3131
    12.6765  14.8642  14.9696  15.3045  16.1493  16.3340  16.6527  17.1249
    17.6949  17.7867  18.2458  22.2487  28.3487

     occupation numbers 
     1.0000   1.0000   1.0000   1.0000   1.0000   1.0000   1.0000   1.0000
     1.0000   1.0000   1.0000   1.0000   1.0000   1.0000   1.0000   1.0000
     1.0000   1.0000   1.0000   0.0000   0.0000

          k = 0.1667 0.2887 0.2051 (  2818 PWs)   bands (ev):

   -77.1684 -77.1491 -40.5278 -40.4674 -40.3946 -40.3658 -40.3230 -40.3186
    13.1853  14.5290  15.1259  15.4598  15.9627  16.1966  16.6528  17.2428
    17.7553  17.8970  18.2760  20.2121  31.7223

     occupation numbers 
     1.0000   1.0000   1.0000   1.0000   1.0000   1.0000   1.0000   1.0000
     1.0000   1.0000   1.0000   1.0000   1.0000   1.0000   1.0000   1.0000
     1.0000   1.0000   1.0000   0.0000   0.0000

          k = 0.1667 0.2887-0.3077 (  2820 PWs)   bands (ev):

   -77.1588 -77.1588 -40.5018 -40.5018 -40.3683 -40.3683 -40.3286 -40.3286
    13.8723  13.8723  15.4514  15.4514  15.9102  15.9102  16.9339  16.9339
    18.0372  18.0372  18.7675  18.7675  33.6449

     occupation numbers 
     1.0000   1.0000   1.0000   1.0000   1.0000   1.0000   1.0000   1.0000
     1.0000   1.0000   1.0000   1.0000   1.0000   1.0000   1.0000   1.0000
     1.0000   1.0000   1.0000   1.0000   0.0000

          k = 0.1667 0.3849 0.0000 (  2824 PWs)   bands (ev):

   -77.1653 -77.1363 -40.5059 -40.4902 -40.4680 -40.3826 -40.3388 -40.3304
    13.5957  14.7509  14.7530  15.2239  16.0254  16.4675  16.5722  17.3518
    18.0250  18.1775  18.7746  26.0080  26.3729

     occupation numbers 
     1.0000   1.0000   1.0000   1.0000   1.0000   1.0000   1.0000   1.0000
     1.0000   1.0000   1.0000   1.0000   1.0000   1.0000   1.0000   1.0000
     1.0000   1.0000   1.0000   0.0000   0.0000

          k = 0.1667 0.3849 0.1026 (  2821 PWs)   bands (ev):

   -77.1633 -77.1382 -40.5294 -40.4863 -40.4450 -40.3894 -40.3384 -40.3273
    13.6721  14.6823  14.8534  15.3067  16.0738  16.4566  16.5253  17.3894
    17.9618  18.1141  18.8607  23.5483  28.5254

     occupation numbers 
     1.0000   1.0000   1.0000   1.0000   1.0000   1.0000   1.0000   1.0000
     1.0000   1.0000   1.0000   1.0000   1.0000   1.0000   1.0000   1.0000
     1.0000   1.0000   0.9994   0.0000   0.0000

          k = 0.1667 0.3849 0.2051 (  2822 PWs)   bands (ev):

   -77.1580 -77.1435 -40.5415 -40.5084 -40.4072 -40.3879 -40.3453 -40.3253
    13.8820  14.4792  15.1019  15.5395  15.9877  16.2908  16.6667  17.3661
    17.8638  18.2659  19.0415  21.3335  29.5210

     occupation numbers 
     1.0000   1.0000   1.0000   1.0000   1.0000   1.0000   1.0000   1.0000
     1.0000   1.0000   1.0000   1.0000   1.0000   1.0000   1.0000   1.0000
     1.0000   1.0000   0.0000   0.0000   0.0000

          k = 0.1667 0.3849-0.3077 (  2818 PWs)   bands (ev):

   -77.1508 -77.1508 -40.5324 -40.5324 -40.3877 -40.3877 -40.3378 -40.3378
    14.1770  14.1770  15.4458  15.4458  16.0701  16.0701  16.9471  16.9471
    18.2500  18.2500  19.7334  19.7334  30.6715

     occupation numbers 
     1.0000   1.0000   1.0000   1.0000   1.0000   1.0000   1.0000   1.0000
     1.0000   1.0000   1.0000   1.0000   1.0000   1.0000   1.0000   1.0000
     1.0000   1.0000   0.0000   0.0000   0.0000

          k = 0.1667 0.4811 0.0000 (  2832 PWs)   bands (ev):

   -77.1545 -77.1353 -40.5283 -40.4856 -40.4723 -40.4095 -40.3620 -40.3450
    14.2932  14.5279  14.5488  15.5375  15.9832  16.3531  16.6718  17.7758
    18.1718  18.2441  19.9606  24.6648  28.0315

     occupation numbers 
     1.0000   1.0000   1.0000   1.0000   1.0000   1.0000   1.0000   1.0000
     1.0000   1.0000   1.0000   1.0000   1.0000   1.0000   1.0000   1.0000
     1.0000   1.0000   0.0000   0.0000   0.0000

          k = 0.1667 0.4811 0.1026 (  2829 PWs)   bands (ev):

   -77.1532 -77.1366 -40.5440 -40.5056 -40.4467 -40.4051 -40.3615 -40.3396
    14.1306  14.6089  14.7990  15.3509  16.0329  16.4903  16.7490  17.7616
    17.9753  18.3062  20.0422  24.0899  26.8861

     occupation numbers 
     1.0000   1.0000   1.0000   1.0000   1.0000   1.0000   1.0000   1.0000
     1.0000   1.0000   1.0000   1.0000   1.0000   1.0000   1.0000   1.0000
     1.0000   1.0000   0.0000   0.0000   0.0000

          k = 0.1667 0.4811 0.2051 (  2828 PWs)   bands (ev):

   -77.1497 -77.1401 -40.5600 -40.5344 -40.4244 -40.3902 -40.3612 -40.3321
    14.0873  14.5287  14.9969  15.5444  15.9248  16.6184  16.9766  17.4527
    17.9536  18.3826  20.3499  22.5558  26.9795

     occupation numbers 
     1.0000   1.0000   1.0000   1.0000   1.0000   1.0000   1.0000   1.0000
     1.0000   1.0000   1.0000   1.0000   1.0000   1.0000   1.0000   1.0000
     1.0000   1.0000   0.0000   0.0000   0.0000

          k = 0.1667 0.4811-0.3077 (  2812 PWs)   bands (ev):

   -77.1449 -77.1449 -40.5565 -40.5565 -40.4039 -40.4039 -40.3406 -40.3406
    14.2438  14.2438  15.3417  15.3417  16.3380  16.3380  17.1358  17.1358
    18.2540  18.2540  21.1518  21.1518  27.8572

     occupation numbers 
     1.0000   1.0000   1.0000   1.0000   1.0000   1.0000   1.0000   1.0000
     1.0000   1.0000   1.0000   1.0000   1.0000   1.0000   1.0000   1.0000
     1.0000   1.0000   0.0000   0.0000   0.0000

          k = 0.1667 0.5774 0.0000 (  2828 PWs)   bands (ev):

   -77.1497 -77.1358 -40.5421 -40.4910 -40.4553 -40.4207 -40.3752 -40.3501
    14.4482  14.4532  14.4669  15.7612  16.0068  16.2343  16.7594  18.0645
    18.1695  18.2161  21.2258  22.8227  29.2857

     occupation numbers 
     1.0000   1.0000   1.0000   1.0000   1.0000   1.0000   1.0000   1.0000
     1.0000   1.0000   1.0000   1.0000   1.0000   1.0000   1.0000   1.0000
     1.0000   1.0000   0.0000   0.0000   0.0000

          k = 0.1667 0.5774 0.1026 (  2833 PWs)   bands (ev):

   -77.1488 -77.1367 -40.5543 -40.5093 -40.4489 -40.4013 -40.3756 -40.3449
    14.1528  14.5229  14.9663  15.3316  15.9541  16.6121  16.8417  17.9475
    18.0611  18.2680  21.3208  22.7677  28.1727

     occupation numbers 
     1.0000   1.0000   1.0000   1.0000   1.0000   1.0000   1.0000   1.0000
     1.0000   1.0000   1.0000   1.0000   1.0000   1.0000   1.0000   1.0000
     1.0000   1.0000   0.0000   0.0000   0.0000

          k = 0.1667 0.5774 0.2051 (  2836 PWs)   bands (ev):

   -77.1462 -77.1393 -40.5688 -40.5425 -40.4324 -40.3887 -40.3662 -40.3354
    14.0835  14.5402  15.0350  15.4997  15.8411  16.8207  17.1022  17.5235
    18.0776  18.3075  21.6187  22.5534  26.9073

     occupation numbers 
     1.0000   1.0000   1.0000   1.0000   1.0000   1.0000   1.0000   1.0000
     1.0000   1.0000   1.0000   1.0000   1.0000   1.0000   1.0000   1.0000
     1.0000   1.0000   0.0000   0.0000   0.0000

          k = 0.1667 0.5774-0.3077 (  2818 PWs)   bands (ev):

   -77.1428 -77.1428 -40.5656 -40.5656 -40.4102 -40.4102 -40.3410 -40.3410
    14.2464  14.2464  15.3007  15.3007  16.3781  16.3781  17.3435  17.3435
    18.1907  18.1907  22.1106  22.1106  26.4283

     occupation numbers 
     1.0000   1.0000   1.0000   1.0000   1.0000   1.0000   1.0000   1.0000
     1.0000   1.0000   1.0000   1.0000   1.0000   1.0000   1.0000   1.0000
     1.0000   1.0000   0.0000   0.0000   0.0000

          k = 0.2500 0.4330 0.0000 (  2852 PWs)   bands (ev):

   -77.1545 -77.1353 -40.5075 -40.4861 -40.4725 -40.4110 -40.3640 -40.3618
    14.4302  14.5955  14.9556  14.9977  15.9108  16.3740  16.6809  17.5352
    18.1281  18.2479  19.9730  26.4190  27.2171

     occupation numbers 
     1.0000   1.0000   1.0000   1.0000   1.0000   1.0000   1.0000   1.0000
     1.0000   1.0000   1.0000   1.0000   1.0000   1.0000   1.0000   1.0000
     1.0000   1.0000   0.0000   0.0000   0.0000

          k = 0.2500 0.4330 0.1026 (  2837 PWs)   bands (ev):

   -77.1532 -77.1366 -40.5205 -40.5119 -40.4325 -40.4248 -40.3667 -40.3464
    14.4326  14.5466  15.0091  15.1370  16.0628  16.2255  16.6775  17.5745
    17.9206  18.3134  20.0972  24.8637  27.4994

     occupation numbers 
     1.0000   1.0000   1.0000   1.0000   1.0000   1.0000   1.0000   1.0000
     1.0000   1.0000   1.0000   1.0000   1.0000   1.0000   1.0000   1.0000
     1.0000   1.0000   0.0000   0.0000   0.0000

          k = 0.2500 0.4330 0.2051 (  2818 PWs)   bands (ev):

   -77.1497 -77.1401 -40.5433 -40.5281 -40.4296 -40.4076 -40.3610 -40.3330
    14.4278  14.4913  15.1769  15.5236  15.8950  16.1732  16.7164  17.3622
    17.9211  18.3903  20.4708  22.8357  28.2794

     occupation numbers 
     1.0000   1.0000   1.0000   1.0000   1.0000   1.0000   1.0000   1.0000
     1.0000   1.0000   1.0000   1.0000   1.0000   1.0000   1.0000   1.0000
     1.0000   1.0000   0.0000   0.0000   0.0000

          k = 0.2500 0.4330-0.3077 (  2812 PWs)   bands (ev):

   -77.1449 -77.1449 -40.5442 -40.5442 -40.4175 -40.4175 -40.3395 -40.3395
    14.4479  14.4479  15.4998  15.4998  15.9555  15.9555  16.9304  16.9304
    18.2739  18.2739  21.3133  21.3133  29.3025

     occupation numbers 
     1.0000   1.0000   1.0000   1.0000   1.0000   1.0000   1.0000   1.0000
     1.0000   1.0000   1.0000   1.0000   1.0000   1.0000   1.0000   1.0000
     1.0000   1.0000   0.0000   0.0000   0.0000

          k = 0.2500 0.5292 0.0000 (  2842 PWs)   bands (ev):

   -77.1465 -77.1366 -40.5206 -40.4770 -40.4426 -40.4417 -40.3857 -40.3856
    14.5239  14.7217  14.8161  15.3184  15.9288  16.1669  16.8513  17.8204
    18.0991  18.1828  21.6394  24.2237  26.5619

     occupation numbers 
     1.0000   1.0000   1.0000   1.0000   1.0000   1.0000   1.0000   1.0000
     1.0000   1.0000   1.0000   1.0000   1.0000   1.0000   1.0000   1.0000
     1.0000   1.0000   0.0000   0.0000   0.0000

          k = 0.2500 0.5292 0.1026 (  2837 PWs)   bands (ev):

   -77.1458 -77.1372 -40.5275 -40.5007 -40.4611 -40.4109 -40.3904 -40.3623
    14.4674  14.8463  14.9408  15.2132  15.9552  16.1698  16.8604  17.8282
    17.8958  18.2284  21.8262  24.2366  26.5924

     occupation numbers 
     1.0000   1.0000   1.0000   1.0000   1.0000   1.0000   1.0000   1.0000
     1.0000   1.0000   1.0000   1.0000   1.0000   1.0000   1.0000   1.0000
     1.0000   1.0000   0.0000   0.0000   0.0000

          k = 0.2500 0.5292 0.2051 (  2826 PWs)   bands (ev):

   -77.1440 -77.1391 -40.5440 -40.5292 -40.4596 -40.4186 -40.3607 -40.3405
    14.4835  14.8407  15.1010  15.4034  15.8151  16.1897  16.9117  17.3878
    17.9937  18.2716  22.3200  23.9263  26.5195

     occupation numbers 
     1.0000   1.0000   1.0000   1.0000   1.0000   1.0000   1.0000   1.0000
     1.0000   1.0000   1.0000   1.0000   1.0000   1.0000   1.0000   1.0000
     1.0000   1.0000   0.0000   0.0000   0.0000

          k = 0.2500 0.5292-0.3077 (  2822 PWs)   bands (ev):

   -77.1415 -77.1415 -40.5467 -40.5467 -40.4404 -40.4404 -40.3391 -40.3391
    14.6214  14.6214  15.3951  15.3951  15.9619  15.9619  17.0447  17.0447
    18.1824  18.1824  23.0837  23.0837  27.0657

     occupation numbers 
     1.0000   1.0000   1.0000   1.0000   1.0000   1.0000   1.0000   1.0000
     1.0000   1.0000   1.0000   1.0000   1.0000   1.0000   1.0000   1.0000
     1.0000   1.0000   0.0000   0.0000   0.0000

          k = 0.3333 0.5774 0.0000 (  2850 PWs)   bands (ev):

   -77.1403 -77.1403 -40.5106 -40.4620 -40.4620 -40.4131 -40.4131 -40.4110
    14.5347  14.9194  14.9194  15.1969  15.9984  15.9984  16.9522  17.9703
    17.9703  18.0701  23.3818  24.2277  24.2277

     occupation numbers 
     1.0000   1.0000   1.0000   1.0000   1.0000   1.0000   1.0000   1.0000
     1.0000   1.0000   1.0000   1.0000   1.0000   1.0000   1.0000   1.0000
     1.0000   1.0000   0.0000   0.0000   0.0000

          k = 0.3333 0.5774 0.1026 (  2841 PWs)   bands (ev):

   -77.1403 -77.1403 -40.5040 -40.4913 -40.4913 -40.4177 -40.3837 -40.3837
    14.6299  14.9402  14.9402  15.2157  15.9729  15.9729  16.9250  17.8355
    18.0133  18.0133  23.7816  24.2984  24.2984

     occupation numbers 
     1.0000   1.0000   1.0000   1.0000   1.0000   1.0000   1.0000   1.0000
     1.0000   1.0000   1.0000   1.0000   1.0000   1.0000   1.0000   1.0000
     1.0000   1.0000   0.0000   0.0000   0.0000

          k = 0.3333 0.5774 0.2051 (  2835 PWs)   bands (ev):

   -77.1403 -77.1403 -40.5239 -40.5239 -40.4858 -40.4360 -40.3508 -40.3508
    14.8729  14.9798  14.9798  15.2290  15.9287  15.9287  16.8904  17.3547
    18.0952  18.0952  24.4735  24.4735  24.8055

     occupation numbers 
     1.0000   1.0000   1.0000   1.0000   1.0000   1.0000   1.0000   1.0000
     1.0000   1.0000   1.0000   1.0000   1.0000   1.0000   1.0000   1.0000
     1.0000   1.0000   0.0000   0.0000   0.0000

          k = 0.3333 0.5774-0.3077 (  2808 PWs)   bands (ev):

   -77.1403 -77.1403 -40.5362 -40.5362 -40.4609 -40.4609 -40.3384 -40.3384
    14.9984  14.9984  15.1246  15.1246  15.9100  15.9100  16.9910  16.9910
    18.1344  18.1344  24.5859  24.5859  26.2141

     occupation numbers 
     1.0000   1.0000   1.0000   1.0000   1.0000   1.0000   1.0000   1.0000
     1.0000   1.0000   1.0000   1.0000   1.0000   1.0000   1.0000   1.0000
     1.0000   1.0000   0.0000   0.0000   0.0000

 ------ SPIN DOWN ----------


          k = 0.0000 0.0000 0.0000 (  2803 PWs)   bands (ev):

   -75.0979 -75.0353 -38.5769 -38.2536 -38.2536 -38.2104 -38.2019 -38.2019
     9.8689  14.6390  17.9122  17.9798  17.9798  18.3496  18.3496  18.5726
    18.7972  18.7972  20.0284  20.0284  26.3150

     occupation numbers 
     1.0000   1.0000   1.0000   1.0000   1.0000   1.0000   1.0000   1.0000
     1.0000   1.0000   1.0000   1.0000   1.0000   1.0000   1.0000   1.0000
     1.0000   1.0000   0.0000   0.0000   0.0000

          k = 0.0000 0.0000 0.1026 (  2827 PWs)   bands (ev):

   -75.0937 -75.0395 -38.5528 -38.2501 -38.2501 -38.2353 -38.2054 -38.2054
    10.1481  14.4052  17.8189  17.9141  17.9141  17.9932  18.2657  18.2657
    18.9750  18.9750  20.0119  20.0119  27.6249

     occupation numbers 
     1.0000   1.0000   1.0000   1.0000   1.0000   1.0000   1.0000   1.0000
     1.0000   1.0000   1.0000   1.0000   1.0000   1.0000   1.0000   1.0000
     0.0000   0.0000   0.0000   0.0000   0.0000

          k = 0.0000 0.0000 0.2051 (  2828 PWs)   bands (ev):

   -75.0823 -75.0510 -38.4864 -38.3031 -38.2407 -38.2407 -38.2148 -38.2148
    10.9551  13.5176  17.3623  17.5824  17.8579  17.8579  18.0814  18.0814
    19.3351  19.3351  19.9156  19.9156  30.5963

     occupation numbers 
     1.0000   1.0000   1.0000   1.0000   1.0000   1.0000   1.0000   1.0000
     1.0000   1.0000   1.0000   1.0000   1.0000   1.0000   1.0000   1.0000
     0.0000   0.0000   0.0000   0.0000   0.0000

          k = 0.0000 0.0000-0.3077 (  2834 PWs)   bands (ev):

   -75.0667 -75.0667 -38.3951 -38.3951 -38.2278 -38.2278 -38.2278 -38.2278
    12.1769  12.1769  17.3391  17.3391  17.9179  17.9179  17.9179  17.9179
    19.6828  19.6828  19.6828  19.6828  34.2469

     occupation numbers 
     1.0000   1.0000   1.0000   1.0000   1.0000   1.0000   1.0000   1.0000
     1.0000   1.0000   1.0000   1.0000   1.0000   1.0000   1.0000   1.0000
     0.0000   0.0000   0.0000   0.0000   0.0000

          k = 0.0000 0.0962 0.0000 (  2817 PWs)   bands (ev):

   -75.0942 -75.0336 -38.5689 -38.2715 -38.2594 -38.2205 -38.2136 -38.2048
    10.1145  14.8081  17.6773  17.9647  18.1079  18.1575  18.2819  18.4633
    18.7122  18.7216  20.0646  20.8593  26.3307

     occupation numbers 
     1.0000   1.0000   1.0000   1.0000   1.0000   1.0000   1.0000   1.0000
     1.0000   1.0000   1.0000   1.0000   1.0000   1.0000   1.0000   1.0000
     1.0000   1.0000   0.0000   0.0000   0.0000

          k = 0.0000 0.0962 0.1026 (  2819 PWs)   bands (ev):

   -75.0902 -75.0377 -38.5461 -38.2675 -38.2557 -38.2459 -38.2157 -38.2085
    10.3899  14.5873  17.5400  17.6753  17.9597  18.0256  18.2934  18.3716
    18.9194  18.9336  20.0390  20.5198  27.7072

     occupation numbers 
     1.0000   1.0000   1.0000   1.0000   1.0000   1.0000   1.0000   1.0000
     1.0000   1.0000   1.0000   1.0000   1.0000   1.0000   1.0000   1.0000
     0.0020   0.0000   0.0000   0.0000   0.0000

          k = 0.0000 0.0962 0.2051 (  2818 PWs)   bands (ev):

   -75.0791 -75.0488 -38.4835 -38.3105 -38.2563 -38.2458 -38.2262 -38.2185
    11.1859  13.7156  17.1407  17.5724  17.7480  17.9605  18.1031  18.1856
    19.3024  19.3374  19.9222  20.1106  30.7342

     occupation numbers 
     1.0000   1.0000   1.0000   1.0000   1.0000   1.0000   1.0000   1.0000
     1.0000   1.0000   1.0000   1.0000   1.0000   1.0000   1.0000   1.0000
     0.0000   0.0000   0.0000   0.0000   0.0000

          k = 0.0000 0.0962-0.3077 (  2832 PWs)   bands (ev):

   -75.0640 -75.0640 -38.3974 -38.3974 -38.2413 -38.2413 -38.2321 -38.2321
    12.3911  12.3911  17.2450  17.2450  17.8790  17.8790  18.0208  18.0208
    19.6682  19.6682  19.7463  19.7463  34.4099

     occupation numbers 
     1.0000   1.0000   1.0000   1.0000   1.0000   1.0000   1.0000   1.0000
     1.0000   1.0000   1.0000   1.0000   1.0000   1.0000   1.0000   1.0000
     0.0000   0.0000   0.0000   0.0000   0.0000

          k = 0.0000 0.1925 0.0000 (  2817 PWs)   bands (ev):

   -75.0842 -75.0292 -38.5459 -38.3208 -38.2749 -38.2708 -38.2233 -38.2133
    10.8291  15.2430  17.1295  17.3221  18.0441  18.4717  18.4924  18.5042
    18.5465  18.7831  20.1403  22.3247  26.3955

     occupation numbers 
     1.0000   1.0000   1.0000   1.0000   1.0000   1.0000   1.0000   1.0000
     1.0000   1.0000   1.0000   1.0000   1.0000   1.0000   1.0000   1.0000
     1.0000   1.0000   0.0000   0.0000   0.0000

          k = 0.0000 0.1925 0.1026 (  2810 PWs)   bands (ev):

   -75.0805 -75.0328 -38.5276 -38.3150 -38.2885 -38.2708 -38.2302 -38.2174
    11.0912  15.0651  16.8762  17.3634  17.9260  18.2291  18.2781  18.6433
    18.8791  18.9280  20.0946  21.5393  27.9851

     occupation numbers 
     1.0000   1.0000   1.0000   1.0000   1.0000   1.0000   1.0000   1.0000
     1.0000   1.0000   1.0000   1.0000   1.0000   1.0000   1.0000   1.0000
     0.9043   0.0001   0.0000   0.0000   0.0000

          k = 0.0000 0.1925 0.2051 (  2815 PWs)   bands (ev):

   -75.0705 -75.0430 -38.4776 -38.3405 -38.2959 -38.2595 -38.2483 -38.2287
    11.8475  14.2467  16.7532  17.4531  17.5534  18.0399  18.2150  18.4747
    19.2620  19.3907  19.9348  20.5848  31.1504

     occupation numbers 
     1.0000   1.0000   1.0000   1.0000   1.0000   1.0000   1.0000   1.0000
     1.0000   1.0000   1.0000   1.0000   1.0000   1.0000   1.0000   1.0000
     0.0000   0.0000   0.0000   0.0000   0.0000

          k = 0.0000 0.1925-0.3077 (  2832 PWs)   bands (ev):

   -75.0567 -75.0567 -38.4090 -38.4090 -38.2724 -38.2724 -38.2441 -38.2441
    12.9891  12.9891  17.0456  17.0456  17.7571  17.7571  18.2968  18.2968
    19.6443  19.6443  19.9253  19.9253  34.8589

     occupation numbers 
     1.0000   1.0000   1.0000   1.0000   1.0000   1.0000   1.0000   1.0000
     1.0000   1.0000   1.0000   1.0000   1.0000   1.0000   1.0000   1.0000
     0.0000   0.0000   0.0000   0.0000   0.0000

          k = 0.0000 0.2887 0.0000 (  2814 PWs)   bands (ev):

   -75.0700 -75.0235 -38.5115 -38.3887 -38.3383 -38.2955 -38.2395 -38.2254
    11.9353  15.6706  16.4563  17.0051  17.8782  18.2560  18.3133  18.9457
    19.0061  19.2451  20.2101  24.0239  26.5345

     occupation numbers 
     1.0000   1.0000   1.0000   1.0000   1.0000   1.0000   1.0000   1.0000
     1.0000   1.0000   1.0000   1.0000   1.0000   1.0000   1.0000   0.0000
     0.0000   0.0000   0.0000   0.0000   0.0000

          k = 0.0000 0.2887 0.1026 (  2809 PWs)   bands (ev):

   -75.0669 -75.0266 -38.5040 -38.3772 -38.3523 -38.2908 -38.2447 -38.2301
    12.1669  15.5610  16.3341  17.0681  17.7367  18.2424  18.2927  19.0503
[...]
    20.1970  20.2396  21.3967  23.9334  28.8292

     occupation numbers 
     1.0000   1.0000   1.0000   1.0000   1.0000   1.0000   1.0000   1.0000
     1.0000   1.0000   1.0000   1.0000   1.0000   1.0000   1.0000   0.0000
     0.0000   0.0000   0.0000   0.0000   0.0000

          k = 0.0833 0.5292 0.1026 (  2827 PWs)   bands (ev):

   -75.0357 -75.0180 -38.5312 -38.4783 -38.3921 -38.3362 -38.2940 -38.2647
    14.8365  15.4527  16.0051  16.5536  17.8003  18.3036  18.3495  19.9689
    20.1360  20.2358  21.2577  23.5875  27.8040

     occupation numbers 
     1.0000   1.0000   1.0000   1.0000   1.0000   1.0000   1.0000   1.0000
     1.0000   1.0000   1.0000   1.0000   1.0000   1.0000   1.0000   0.0000
     0.0000   0.0000   0.0000   0.0000   0.0000

          k = 0.0833 0.5292 0.2051 (  2825 PWs)   bands (ev):

   -75.0320 -75.0217 -38.5461 -38.5131 -38.3532 -38.3142 -38.2995 -38.2700
    14.8094  15.2919  16.3097  16.6268  17.8497  18.6239  18.8260  19.5014
    20.0872  20.3215  21.0386  22.6379  27.2754

     occupation numbers 
     1.0000   1.0000   1.0000   1.0000   1.0000   1.0000   1.0000   1.0000
     1.0000   1.0000   1.0000   1.0000   1.0000   1.0000   1.0000   0.0000
     0.0000   0.0000   0.0000   0.0000   0.0000

          k = 0.0833 0.5292-0.3077 (  2822 PWs)   bands (ev):

   -75.0269 -75.0269 -38.5400 -38.5400 -38.3230 -38.3230 -38.2849 -38.2849
    14.9872  14.9872  16.5743  16.5743  18.3594  18.3594  19.1450  19.1450
    20.1713  20.1713  21.5744  21.5744  27.5343

     occupation numbers 
     1.0000   1.0000   1.0000   1.0000   1.0000   1.0000   1.0000   1.0000
     1.0000   1.0000   1.0000   1.0000   1.0000   1.0000   0.0000   0.0000
     0.0000   0.0000   0.0000   0.0000   0.0000

          k = 0.1667 0.2887 0.0000 (  2808 PWs)   bands (ev):

   -75.0626 -75.0210 -38.4924 -38.3957 -38.3862 -38.2992 -38.2507 -38.2495
    12.5659  15.9705  16.2818  16.6643  17.8540  17.9155  18.4403  18.8150
    19.3980  19.7623  20.1558  24.9270  26.7582

     occupation numbers 
     1.0000   1.0000   1.0000   1.0000   1.0000   1.0000   1.0000   1.0000
     1.0000   1.0000   1.0000   1.0000   1.0000   1.0000   1.0000   1.0000
     0.0000   0.0000   0.0000   0.0000   0.0000

          k = 0.1667 0.2887 0.1026 (  2811 PWs)   bands (ev):

   -75.0598 -75.0238 -38.4922 -38.3941 -38.3780 -38.3065 -38.2551 -38.2480
    12.7784  15.8911  16.1944  16.7314  17.7609  17.9411  18.3315  18.9087
    19.5270  19.6338  20.1674  23.2740  28.9553

     occupation numbers 
     1.0000   1.0000   1.0000   1.0000   1.0000   1.0000   1.0000   1.0000
     1.0000   1.0000   1.0000   1.0000   1.0000   1.0000   1.0000   0.0386
     0.0000   0.0000   0.0000   0.0000   0.0000

          k = 0.1667 0.2887 0.2051 (  2818 PWs)   bands (ev):

   -75.0522 -75.0314 -38.4822 -38.4209 -38.3402 -38.3098 -38.2657 -38.2554
    13.3808  15.2001  16.4542  16.9028  17.4951  17.7733  18.3876  18.9956
    19.6261  19.7557  20.1225  21.5450  32.2136

     occupation numbers 
     1.0000   1.0000   1.0000   1.0000   1.0000   1.0000   1.0000   1.0000
     1.0000   1.0000   1.0000   1.0000   1.0000   1.0000   1.0000   0.0000
     0.0000   0.0000   0.0000   0.0000   0.0000

          k = 0.1667 0.2887-0.3077 (  2820 PWs)   bands (ev):

   -75.0418 -75.0418 -38.4560 -38.4560 -38.3111 -38.3111 -38.2702 -38.2702
    14.2585  14.2585  16.8368  16.8368  17.4543  17.4543  18.6972  18.6972
    19.9475  19.9475  20.3548  20.3548  34.0728

     occupation numbers 
     1.0000   1.0000   1.0000   1.0000   1.0000   1.0000   1.0000   1.0000
     1.0000   1.0000   1.0000   1.0000   1.0000   1.0000   1.0000   1.0000
     0.0000   0.0000   0.0000   0.0000   0.0000

          k = 0.1667 0.3849 0.0000 (  2824 PWs)   bands (ev):

   -75.0488 -75.0176 -38.4542 -38.4485 -38.4240 -38.3305 -38.2739 -38.2719
    13.8269  15.9789  16.0424  16.4747  17.6476  18.0521  18.1994  19.1662
    19.9118  20.1481  20.5002  26.7087  27.0020

     occupation numbers 
     1.0000   1.0000   1.0000   1.0000   1.0000   1.0000   1.0000   1.0000
     1.0000   1.0000   1.0000   1.0000   1.0000   1.0000   1.0000   0.0000
     0.0000   0.0000   0.0000   0.0000   0.0000

          k = 0.1667 0.3849 0.1026 (  2821 PWs)   bands (ev):

   -75.0467 -75.0197 -38.4850 -38.4433 -38.3941 -38.3365 -38.2806 -38.2634
    13.9735  15.8417  16.1466  16.5790  17.6213  18.0192  18.1558  19.2082
    19.8810  20.0150  20.6062  24.3778  29.1481

     occupation numbers 
     1.0000   1.0000   1.0000   1.0000   1.0000   1.0000   1.0000   1.0000
     1.0000   1.0000   1.0000   1.0000   1.0000   1.0000   1.0000   0.0000
     0.0000   0.0000   0.0000   0.0000   0.0000

          k = 0.1667 0.3849 0.2051 (  2822 PWs)   bands (ev):

   -75.0410 -75.0254 -38.4995 -38.4661 -38.3527 -38.3335 -38.2890 -38.2621
    14.3748  15.4626  16.4324  16.7974  17.4815  17.7364  18.3489  19.1744
    19.7355  20.2006  20.6889  22.3752  30.1289

     occupation numbers 
     1.0000   1.0000   1.0000   1.0000   1.0000   1.0000   1.0000   1.0000
     1.0000   1.0000   1.0000   1.0000   1.0000   1.0000   1.0000   0.0000
     0.0000   0.0000   0.0000   0.0000   0.0000

          k = 0.1667 0.3849-0.3077 (  2818 PWs)   bands (ev):

   -75.0332 -75.0332 -38.4908 -38.4908 -38.3329 -38.3329 -38.2777 -38.2777
    14.9228  14.9228  16.7798  16.7798  17.4581  17.4581  18.7185  18.7185
    20.1942  20.1942  21.0420  21.0420  31.2371

     occupation numbers 
     1.0000   1.0000   1.0000   1.0000   1.0000   1.0000   1.0000   1.0000
     1.0000   1.0000   1.0000   1.0000   1.0000   1.0000   1.0000   1.0000
     0.0000   0.0000   0.0000   0.0000   0.0000

          k = 0.1667 0.4811 0.0000 (  2832 PWs)   bands (ev):

   -75.0372 -75.0166 -38.4901 -38.4431 -38.4174 -38.3598 -38.2972 -38.2896
    14.9320  15.8023  15.8164  16.5312  17.5874  17.9287  18.2910  19.6334
    20.1413  20.1731  21.4247  25.4205  28.6257

     occupation numbers 
     1.0000   1.0000   1.0000   1.0000   1.0000   1.0000   1.0000   1.0000
     1.0000   1.0000   1.0000   1.0000   1.0000   1.0000   1.0000   0.0000
     0.0000   0.0000   0.0000   0.0000   0.0000

          k = 0.1667 0.4811 0.1026 (  2829 PWs)   bands (ev):

   -75.0358 -75.0179 -38.5050 -38.4635 -38.3936 -38.3529 -38.3034 -38.2786
    14.9426  15.7604  15.9853  16.5629  17.6022  17.9087  18.3590  19.6246
    19.9039  20.2485  21.4750  24.7898  27.6531

     occupation numbers 
     1.0000   1.0000   1.0000   1.0000   1.0000   1.0000   1.0000   1.0000
     1.0000   1.0000   1.0000   1.0000   1.0000   1.0000   1.0000   0.0000
     0.0000   0.0000   0.0000   0.0000   0.0000

          k = 0.1667 0.4811 0.2051 (  2828 PWs)   bands (ev):

   -75.0320 -75.0217 -38.5215 -38.4943 -38.3728 -38.3350 -38.3040 -38.2693
    15.0383  15.5586  16.3218  16.8364  17.4313  17.8889  18.5794  19.2965
    19.8452  20.3455  21.6247  23.3351  27.7909

     occupation numbers 
     1.0000   1.0000   1.0000   1.0000   1.0000   1.0000   1.0000   1.0000
     1.0000   1.0000   1.0000   1.0000   1.0000   1.0000   1.0000   0.0000
     0.0000   0.0000   0.0000   0.0000   0.0000

          k = 0.1667 0.4811-0.3077 (  2812 PWs)   bands (ev):

   -75.0269 -75.0269 -38.5178 -38.5178 -38.3513 -38.3513 -38.2792 -38.2792
    15.2624  15.2624  16.7357  16.7357  17.6200  17.6200  18.8596  18.8596
    20.1857  20.1857  22.1536  22.1536  28.5992

     occupation numbers 
     1.0000   1.0000   1.0000   1.0000   1.0000   1.0000   1.0000   1.0000
     1.0000   1.0000   1.0000   1.0000   1.0000   1.0000   0.9996   0.9996
     0.0000   0.0000   0.0000   0.0000   0.0000

          k = 0.1667 0.5774 0.0000 (  2828 PWs)   bands (ev):

   -75.0321 -75.0171 -38.5051 -38.4489 -38.3988 -38.3719 -38.3116 -38.2952
    15.3941  15.6766  15.7451  16.5993  17.6361  17.7584  18.3978  19.9624
    20.1385  20.1486  22.3385  23.8491  29.7111

     occupation numbers 
     1.0000   1.0000   1.0000   1.0000   1.0000   1.0000   1.0000   1.0000
     1.0000   1.0000   1.0000   1.0000   1.0000   1.0000   1.0000   0.0000
     0.0000   0.0000   0.0000   0.0000   0.0000

          k = 0.1667 0.5774 0.1026 (  2833 PWs)   bands (ev):

   -75.0311 -75.0181 -38.5170 -38.4679 -38.3968 -38.3472 -38.3171 -38.2854
    15.2306  15.7227  16.1326  16.4121  17.5582  17.9448  18.4752  19.8750
    19.9606  20.2103  22.3658  23.7468  28.7807

     occupation numbers 
     1.0000   1.0000   1.0000   1.0000   1.0000   1.0000   1.0000   1.0000
     1.0000   1.0000   1.0000   1.0000   1.0000   1.0000   1.0000   0.0000
     0.0000   0.0000   0.0000   0.0000   0.0000

          k = 0.1667 0.5774 0.2051 (  2836 PWs)   bands (ev):

   -75.0283 -75.0208 -38.5316 -38.5030 -38.3817 -38.3344 -38.3072 -38.2731
    15.1842  15.6199  16.3887  16.7494  17.3409  18.0663  18.7296  19.3685
    19.9869  20.2565  22.4906  23.4099  27.7012

     occupation numbers 
     1.0000   1.0000   1.0000   1.0000   1.0000   1.0000   1.0000   1.0000
     1.0000   1.0000   1.0000   1.0000   1.0000   1.0000   1.0000   0.0000
     0.0000   0.0000   0.0000   0.0000   0.0000

          k = 0.1667 0.5774-0.3077 (  2818 PWs)   bands (ev):

   -75.0246 -75.0246 -38.5279 -38.5279 -38.3584 -38.3584 -38.2792 -38.2792
    15.3421  15.3421  16.7247  16.7247  17.6740  17.6740  19.0272  19.0272
    20.1197  20.1198  22.8886  22.8886  27.3299

     occupation numbers 
     1.0000   1.0000   1.0000   1.0000   1.0000   1.0000   1.0000   1.0000
     1.0000   1.0000   1.0000   1.0000   1.0000   1.0000   0.0000   0.0000
     0.0000   0.0000   0.0000   0.0000   0.0000

          k = 0.2500 0.4330 0.0000 (  2852 PWs)   bands (ev):

   -75.0372 -75.0165 -38.4674 -38.4436 -38.4176 -38.3616 -38.3104 -38.2970
    14.9450  15.8792  16.1665  16.1983  17.4910  17.9572  18.2958  19.3809
    20.0912  20.1751  21.4668  26.9885  27.8363

     occupation numbers 
     1.0000   1.0000   1.0000   1.0000   1.0000   1.0000   1.0000   1.0000
     1.0000   1.0000   1.0000   1.0000   1.0000   1.0000   1.0000   0.0000
     0.0000   0.0000   0.0000   0.0000   0.0000

          k = 0.2500 0.4330 0.1026 (  2837 PWs)   bands (ev):

   -75.0358 -75.0179 -38.4772 -38.4716 -38.3782 -38.3749 -38.3131 -38.2824
    15.0219  15.7972  16.2351  16.3856  17.5365  17.7767  18.3010  19.4228
    19.8442  20.2565  21.5703  25.5229  28.1242

     occupation numbers 
     1.0000   1.0000   1.0000   1.0000   1.0000   1.0000   1.0000   1.0000
     1.0000   1.0000   1.0000   1.0000   1.0000   1.0000   1.0000   0.0000
     0.0000   0.0000   0.0000   0.0000   0.0000

          k = 0.2500 0.4330 0.2051 (  2818 PWs)   bands (ev):

   -75.0320 -75.0217 -38.5022 -38.4877 -38.3801 -38.3543 -38.3034 -38.2693
    15.2182  15.6564  16.4588  16.7488  17.3859  17.5125  18.3859  19.1954
    19.8028  20.3545  21.8064  23.6543  28.9040

     occupation numbers 
     1.0000   1.0000   1.0000   1.0000   1.0000   1.0000   1.0000   1.0000
     1.0000   1.0000   1.0000   1.0000   1.0000   1.0000   1.0000   0.0000
     0.0000   0.0000   0.0000   0.0000   0.0000

          k = 0.2500 0.4330-0.3077 (  2812 PWs)   bands (ev):

   -75.0269 -75.0269 -38.5039 -38.5039 -38.3670 -38.3670 -38.2776 -38.2776
    15.4555  15.4555  16.8044  16.8044  17.2813  17.2813  18.6880  18.6880
    20.2099  20.2099  22.3724  22.3724  29.9142

     occupation numbers 
     1.0000   1.0000   1.0000   1.0000   1.0000   1.0000   1.0000   1.0000
     1.0000   1.0000   1.0000   1.0000   1.0000   1.0000   1.0000   1.0000
     0.0000   0.0000   0.0000   0.0000   0.0000

          k = 0.2500 0.5292 0.0000 (  2842 PWs)   bands (ev):

   -75.0286 -75.0179 -38.4815 -38.4337 -38.3951 -38.3850 -38.3338 -38.3229
    15.6607  15.8486  16.0062  16.2877  17.4921  17.7064  18.4986  19.6974
    20.0578  20.1079  22.7637  25.0347  27.1456

     occupation numbers 
     1.0000   1.0000   1.0000   1.0000   1.0000   1.0000   1.0000   1.0000
     1.0000   1.0000   1.0000   1.0000   1.0000   1.0000   1.0000   0.0000
     0.0000   0.0000   0.0000   0.0000   0.0000

          k = 0.2500 0.5292 0.1026 (  2837 PWs)   bands (ev):

   -75.0278 -75.0186 -38.4877 -38.4576 -38.4139 -38.3562 -38.3360 -38.3005
    15.6103  15.9782  16.0909  16.3504  17.4689  17.6080  18.5097  19.7162
    19.8083  20.1636  22.9255  25.0054  27.2056

     occupation numbers 
     1.0000   1.0000   1.0000   1.0000   1.0000   1.0000   1.0000   1.0000
     1.0000   1.0000   1.0000   1.0000   1.0000   1.0000   1.0000   0.0000
     0.0000   0.0000   0.0000   0.0000   0.0000

          k = 0.2500 0.5292 0.2051 (  2826 PWs)   bands (ev):

   -75.0259 -75.0206 -38.5039 -38.4880 -38.4132 -38.3686 -38.3002 -38.2775
    15.6413  15.9364  16.3713  16.6969  17.2157  17.4706  18.5810  19.2297
    19.8958  20.2146  23.3075  24.6302  27.2769

     occupation numbers 
     1.0000   1.0000   1.0000   1.0000   1.0000   1.0000   1.0000   1.0000
     1.0000   1.0000   1.0000   1.0000   1.0000   1.0000   1.0000   0.0000
     0.0000   0.0000   0.0000   0.0000   0.0000

          k = 0.2500 0.5292-0.3077 (  2822 PWs)   bands (ev):

   -75.0232 -75.0232 -38.5066 -38.5066 -38.3927 -38.3927 -38.2763 -38.2763
    15.7741  15.7741  16.7683  16.7683  17.1848  17.1848  18.7911  18.7911
    20.1085  20.1085  23.8976  23.8976  27.8245

     occupation numbers 
     1.0000   1.0000   1.0000   1.0000   1.0000   1.0000   1.0000   1.0000
     1.0000   1.0000   1.0000   1.0000   1.0000   1.0000   1.0000   1.0000
     0.0000   0.0000   0.0000   0.0000   0.0000

          k = 0.3333 0.5774 0.0000 (  2850 PWs)   bands (ev):

   -75.0219 -75.0219 -38.4704 -38.4175 -38.4175 -38.3614 -38.3527 -38.3527
    15.8846  16.0111  16.0111  16.2065  17.5316  17.5316  18.6087  19.8705
    19.8705  20.0246  24.2178  25.0332  25.0332

     occupation numbers 
     1.0000   1.0000   1.0000   1.0000   1.0000   1.0000   1.0000   1.0000
     1.0000   1.0000   1.0000   1.0000   1.0000   1.0000   1.0000   0.0000
     0.0000   0.0000   0.0000   0.0000   0.0000

          k = 0.3333 0.5774 0.1026 (  2841 PWs)   bands (ev):

   -75.0219 -75.0219 -38.4632 -38.4466 -38.4466 -38.3687 -38.3235 -38.3235
    15.9599  16.0834  16.0834  16.2380  17.4465  17.4465  18.5877  19.7485
    19.9206  19.9206  24.6335  25.0793  25.0793

     occupation numbers 
     1.0000   1.0000   1.0000   1.0000   1.0000   1.0000   1.0000   1.0000
     1.0000   1.0000   1.0000   1.0000   1.0000   1.0000   1.0000   0.0000
     0.0000   0.0000   0.0000   0.0000   0.0000

          k = 0.3333 0.5774 0.2051 (  2835 PWs)   bands (ev):

   -75.0219 -75.0219 -38.4811 -38.4811 -38.4433 -38.3888 -38.2886 -38.2886
    16.1363  16.2547  16.2547  16.2954  17.2574  17.2574  18.5858  19.1983
    20.0126  20.0126  25.1933  25.1933  25.6447

     occupation numbers 
     1.0000   1.0000   1.0000   1.0000   1.0000   1.0000   1.0000   1.0000
     1.0000   1.0000   1.0000   1.0000   1.0000   1.0000   1.0000   0.0000
     0.0000   0.0000   0.0000   0.0000   0.0000

          k = 0.3333 0.5774-0.3077 (  2808 PWs)   bands (ev):

   -75.0219 -75.0219 -38.4944 -38.4944 -38.4161 -38.4161 -38.2752 -38.2752
    16.2806  16.2806  16.3653  16.3653  17.1415  17.1415  18.7583  18.7583
    20.0550  20.0550  25.2654  25.2654  26.9785

     occupation numbers 
     1.0000   1.0000   1.0000   1.0000   1.0000   1.0000   1.0000   1.0000
     1.0000   1.0000   1.0000   1.0000   1.0000   1.0000   1.0000   1.0000
     0.0000   0.0000   0.0000   0.0000   0.0000

     the Fermi energy is    18.8917 ev

!    total energy              =    -753.45508112 Ry
     total all-electron energy =     -5573.811772 Ry
     estimated scf accuracy    <       0.00000058 Ry
     smearing contrib. (-TS)   =      -0.00002145 Ry
     internal energy E=F+TS    =    -753.45505967 Ry

     The total energy is F=E-TS. E is the sum of the following terms:
     one-electron contribution =    -280.62067850 Ry
     hartree contribution      =     164.23726876 Ry
     xc contribution           =     -61.41767729 Ry
     ewald contribution        =    -400.47855510 Ry
     one-center paw contrib.   =    -175.17541754 Ry
      -> PAW hartree energy AE =     222.09066394 Ry
      -> PAW hartree energy PS =    -221.03477153 Ry
      -> PAW xc energy AE      =    -117.67628392 Ry
      -> PAW xc energy PS      =      29.03268273 Ry
      -> total E_H with PAW    =     165.29316117 Ry
      -> total E_XC with PAW   =    -150.06127847 Ry

     total magnetization       =     3.31 Bohr mag/cell
     absolute magnetization    =     3.62 Bohr mag/cell

     convergence has been achieved in   7 iterations

     Writing all to output data dir ./out/Co.save/
 
     init_run     :      0.37s CPU      0.50s WALL (       1 calls)
     electrons    :     15.63s CPU     16.66s WALL (       1 calls)

     Called by init_run:
     wfcinit      :      0.23s CPU      0.32s WALL (       1 calls)
     potinit      :      0.10s CPU      0.13s WALL (       1 calls)
     hinit0       :      0.03s CPU      0.04s WALL (       1 calls)

     Called by electrons:
     c_bands      :     13.53s CPU     14.30s WALL (       7 calls)
     sum_band     :      1.36s CPU      1.44s WALL (       7 calls)
     v_of_rho     :      0.03s CPU      0.03s WALL (       8 calls)
     v_h          :      0.00s CPU      0.00s WALL (       8 calls)
     v_xc         :      0.02s CPU      0.02s WALL (       8 calls)
     newd         :      0.03s CPU      0.04s WALL (       8 calls)
     PAW_pot      :      0.77s CPU      0.95s WALL (       8 calls)
     mix_rho      :      0.00s CPU      0.00s WALL (       7 calls)

     Called by c_bands:
     init_us_2    :      0.08s CPU      0.09s WALL (    2128 calls)
     init_us_2:cp :      0.08s CPU      0.09s WALL (    2128 calls)
     cegterg      :     12.98s CPU     13.60s WALL (    1064 calls)

     Called by sum_band:
     sum_band:wei :      0.01s CPU      0.01s WALL (       7 calls)
     sum_band:loo :      1.29s CPU      1.36s WALL (       7 calls)
     sum_band:buf :      0.01s CPU      0.01s WALL (    1064 calls)
     sum_band:ini :      0.05s CPU      0.05s WALL (    1064 calls)
     sum_band:cal :      0.11s CPU      0.10s WALL (    1064 calls)
     sum_band:bec :      0.00s CPU      0.01s WALL (    1064 calls)
     addusdens    :      0.05s CPU      0.06s WALL (       7 calls)
                                        0.00s GPU  (       7 calls)
     addusd:skk   :      0.00s CPU      0.00s WALL (       7 calls)
                                        0.00s GPU  (       7 calls)

     Called by *egterg:
     cdiaghg      :      3.57s CPU      3.66s WALL (    6294 calls)
     cegterg:over :      0.47s CPU      0.44s WALL (    5382 calls)
     cegterg:upda :      0.05s CPU      0.11s WALL (    5382 calls)
     cegterg:last :      0.17s CPU      0.19s WALL (    3412 calls)
     h_psi        :      8.13s CPU      8.61s WALL (    6446 calls)
     s_psi        :      0.18s CPU      0.15s WALL (    6446 calls)
     g_psi        :      0.02s CPU      0.03s WALL (    5382 calls)

     Called by h_psi:
     h_psi:calbec :      0.42s CPU      0.39s WALL (    6446 calls)
     vloc_psi     :      7.56s CPU      7.99s WALL (    6446 calls)
     add_vuspsi   :      0.12s CPU      0.18s WALL (    6446 calls)

     General routines
     calbec       :      0.52s CPU      0.48s WALL (    7510 calls)
     fft          :      0.01s CPU      0.01s WALL (     194 calls)
     ffts         :      0.00s CPU      0.00s WALL (      30 calls)
     fftw         :      8.09s CPU      8.47s WALL (  183344 calls)
     interpolate  :      0.00s CPU      0.00s WALL (      16 calls)
 
     Parallel routines

     PAW routines
     PAW_pot      :      0.77s CPU      0.95s WALL (       8 calls)
     PAW_symme    :      0.01s CPU      0.01s WALL (      14 calls)
 
     PWSCF        :     16.33s CPU     18.20s WALL

 
   This run was terminated on:   8:50: 9  22Mar2024            

=------------------------------------------------------------------------------=
   JOB DONE.
=------------------------------------------------------------------------------=
