
     Program PWSCF v.7.2 starts on 22Mar2024 at  7:18:36 

     This program is part of the open-source Quantum ESPRESSO suite
     for quantum simulation of materials; please cite
         "P. Giannozzi et al., J. Phys.:Condens. Matter 21 395502 (2009);
         "P. Giannozzi et al., J. Phys.:Condens. Matter 29 465901 (2017);
         "P. Giannozzi et al., J. Chem. Phys. 152 154105 (2020);
          URL http://www.quantum-espresso.org", 
     in publications or presentations arising from this work. More details at
     http://www.quantum-espresso.org/quote

     Parallel version (MPI), running on    20 processors

     MPI processes distributed on     1 nodes
     352076 MiB available memory on the printing compute node when the environment starts
 
     Waiting for input...
     Reading input from standard input

     Current dimensions of program PWSCF are:
     Max number of different atomic species (ntypx) = 10
     Max number of k-points (npk) = 120000
     Max angular momentum in pseudopotentials (lmaxx) =  4
     file Co.pbe-spn-kjpaw_psl.0.3.1.UPF: wavefunction(s)  3P 3D renormalized
 
     R & G space division:  proc/nbgrp/npool/nimage =      20
     Subspace diagonalization in iterative solution of the eigenvalue problem:
     a serial algorithm will be used

 
     Parallelization info
     --------------------
     sticks:   dense  smooth     PW     G-vecs:    dense   smooth      PW
     Min          34      33      9                 1198     1159     185
     Max          35      34     10                 1205     1166     192
     Sum         685     673    199                24027    23259    3791
 
     Using Slab Decomposition
 


     bravais-lattice index     =            4
     lattice parameter (alat)  =       4.7338  a.u.
     unit-cell volume          =     149.0745 (a.u.)^3
     number of atoms/cell      =            2
     number of atomic types    =            1
     number of electrons       =        34.00
     number of Kohn-Sham states=           21
     kinetic-energy cutoff     =     110.0000  Ry
     charge density cutoff     =     450.0000  Ry
     scf convergence threshold =      1.0E-06
     mixing beta               =       0.7000
     number of iterations used =            8  plain     mixing
     Exchange-correlation= SLA  PW   PBX  PBC
                           (   1   4   3   4   0   0   0)

     celldm(1)=   4.733764  celldm(2)=   0.000000  celldm(3)=   1.622754
     celldm(4)=   0.000000  celldm(5)=   0.000000  celldm(6)=   0.000000

     crystal axes: (cart. coord. in units of alat)
               a(1) = (   1.000000   0.000000   0.000000 )  
               a(2) = (  -0.500000   0.866025   0.000000 )  
               a(3) = (   0.000000   0.000000   1.622754 )  

     reciprocal axes: (cart. coord. in units 2 pi/alat)
               b(1) = (  1.000000  0.577350  0.000000 )  
               b(2) = (  0.000000  1.154701  0.000000 )  
               b(3) = (  0.000000  0.000000  0.616236 )  


     PseudoPot. # 1 for Co read from file:
     /truba/home/amuhaymin/ZnS/pseudo/QE/Co.pbe-spn-kjpaw_psl.0.3.1.UPF
     MD5 check sum: b0a1ad65bf214e88c1f3d33b20c7d919
     Pseudo is Projector augmented-wave + core cor, Zval = 17.0
     Generated using &quot;atomic&quot; code by A. Dal Corso  v.6.2.2
     Shape of augmentation charge: PSQ
     Using radial grid of 1193 points,  6 beta functions with: 
                l(1) =   0
                l(2) =   0
                l(3) =   1
                l(4) =   1
                l(5) =   2
                l(6) =   2
     Q(r) pseudized with 0 coefficients 


     atomic species   valence    mass     pseudopotential
        Co            17.00    58.93300     Co( 1.00)

     Starting magnetic structure 
     atomic species   magnetization
        Co           0.294

     24 Sym. Ops., with inversion, found (12 have fractional translation)


                                    s                        frac. trans.

      isym =  1     identity                                     

 cryst.   s( 1) = (     1          0          0      )
                  (     0          1          0      )
                  (     0          0          1      )

 cart.    s( 1) = (  1.0000000  0.0000000  0.0000000 )
                  (  0.0000000  1.0000000  0.0000000 )
                  (  0.0000000  0.0000000  1.0000000 )


      isym =  2     180 deg rotation - cart. axis [0,0,1]        

 cryst.   s( 2) = (    -1          0          0      )    f =(  0.0000000 )
                  (     0         -1          0      )       (  0.0000000 )
                  (     0          0          1      )       (  0.5000000 )

 cart.    s( 2) = ( -1.0000000  0.0000000  0.0000000 )    f =(  0.0000000 )
                  (  0.0000000 -1.0000000  0.0000000 )       (  0.0000000 )
                  (  0.0000000  0.0000000  1.0000000 )       (  0.8113772 )


      isym =  3     180 deg rotation - cart. axis [0,1,0]        

 cryst.   s( 3) = (    -1          0          0      )    f =(  0.0000000 )
                  (     1          1          0      )       (  0.0000000 )
                  (     0          0         -1      )       ( -0.5000000 )

 cart.    s( 3) = ( -1.0000000  0.0000000  0.0000000 )    f =(  0.0000000 )
                  (  0.0000000  1.0000000  0.0000000 )       (  0.0000000 )
                  (  0.0000000  0.0000000 -1.0000000 )       ( -0.8113772 )


      isym =  4     180 deg rotation - cart. axis [1,0,0]        

 cryst.   s( 4) = (     1          0          0      )
                  (    -1         -1          0      )
                  (     0          0         -1      )

 cart.    s( 4) = (  1.0000000  0.0000000  0.0000000 )
                  (  0.0000000 -1.0000000  0.0000000 )
                  (  0.0000000  0.0000000 -1.0000000 )


      isym =  5      60 deg rotation - cryst. axis [0,0,1]       

 cryst.   s( 5) = (     1          1          0      )    f =(  0.0000000 )
                  (    -1          0          0      )       ( -0.0000000 )
                  (     0          0          1      )       (  0.5000000 )

 cart.    s( 5) = (  0.5000000 -0.8660254  0.0000000 )    f =(  0.0000000 )
                  (  0.8660254  0.5000000  0.0000000 )       ( -0.0000000 )
                  (  0.0000000  0.0000000  1.0000000 )       (  0.8113772 )


      isym =  6      60 deg rotation - cryst. axis [0,0,-1]      

 cryst.   s( 6) = (     0         -1          0      )    f =(  0.0000000 )
                  (     1          1          0      )       ( -0.0000000 )
                  (     0          0          1      )       (  0.5000000 )

 cart.    s( 6) = (  0.5000000  0.8660254  0.0000000 )    f =(  0.0000000 )
                  ( -0.8660254  0.5000000  0.0000000 )       ( -0.0000000 )
                  (  0.0000000  0.0000000  1.0000000 )       (  0.8113772 )


      isym =  7     120 deg rotation - cryst. axis [0,0,1]       

 cryst.   s( 7) = (     0          1          0      )
                  (    -1         -1          0      )
                  (     0          0          1      )

 cart.    s( 7) = ( -0.5000000 -0.8660254  0.0000000 )
                  (  0.8660254 -0.5000000  0.0000000 )
                  (  0.0000000  0.0000000  1.0000000 )


      isym =  8     120 deg rotation - cryst. axis [0,0,-1]      

 cryst.   s( 8) = (    -1         -1          0      )
                  (     1          0          0      )
                  (     0          0          1      )

 cart.    s( 8) = ( -0.5000000  0.8660254  0.0000000 )
                  ( -0.8660254 -0.5000000  0.0000000 )
                  (  0.0000000  0.0000000  1.0000000 )


      isym =  9     180 deg rotation - cryst. axis [1,-1,0]      

 cryst.   s( 9) = (     0         -1          0      )    f =(  0.0000000 )
                  (    -1          0          0      )       (  0.0000000 )
                  (     0          0         -1      )       ( -0.5000000 )

 cart.    s( 9) = (  0.5000000 -0.8660254  0.0000000 )    f =(  0.0000000 )
                  ( -0.8660254 -0.5000000  0.0000000 )       (  0.0000000 )
                  (  0.0000000  0.0000000 -1.0000000 )       ( -0.8113772 )


      isym = 10     180 deg rotation - cryst. axis [2,1,0]       

 cryst.   s(10) = (     1          1          0      )    f =(  0.0000000 )
                  (     0         -1          0      )       ( -0.0000000 )
                  (     0          0         -1      )       ( -0.5000000 )

 cart.    s(10) = (  0.5000000  0.8660254  0.0000000 )    f =(  0.0000000 )
                  (  0.8660254 -0.5000000  0.0000000 )       ( -0.0000000 )
                  (  0.0000000  0.0000000 -1.0000000 )       ( -0.8113772 )


      isym = 11     180 deg rotation - cryst. axis [0,1,0]       

 cryst.   s(11) = (    -1         -1          0      )
                  (     0          1          0      )
                  (     0          0         -1      )

 cart.    s(11) = ( -0.5000000 -0.8660254  0.0000000 )
                  ( -0.8660254  0.5000000  0.0000000 )
                  (  0.0000000  0.0000000 -1.0000000 )


      isym = 12     180 deg rotation - cryst. axis [1,1,0]       

 cryst.   s(12) = (     0          1          0      )
                  (     1          0          0      )
                  (     0          0         -1      )

 cart.    s(12) = ( -0.5000000  0.8660254  0.0000000 )
                  (  0.8660254  0.5000000  0.0000000 )
                  (  0.0000000  0.0000000 -1.0000000 )


      isym = 13     inversion                                    

 cryst.   s(13) = (    -1          0          0      )
                  (     0         -1          0      )
                  (     0          0         -1      )

 cart.    s(13) = ( -1.0000000  0.0000000  0.0000000 )
                  (  0.0000000 -1.0000000  0.0000000 )
                  (  0.0000000  0.0000000 -1.0000000 )


      isym = 14     inv. 180 deg rotation - cart. axis [0,0,1]   

 cryst.   s(14) = (     1          0          0      )    f =(  0.0000000 )
                  (     0          1          0      )       (  0.0000000 )
                  (     0          0         -1      )       ( -0.5000000 )

 cart.    s(14) = (  1.0000000  0.0000000  0.0000000 )    f =(  0.0000000 )
                  (  0.0000000  1.0000000  0.0000000 )       (  0.0000000 )
                  (  0.0000000  0.0000000 -1.0000000 )       ( -0.8113772 )


      isym = 15     inv. 180 deg rotation - cart. axis [0,1,0]   

 cryst.   s(15) = (     1          0          0      )    f =(  0.0000000 )
                  (    -1         -1          0      )       (  0.0000000 )
                  (     0          0          1      )       (  0.5000000 )

 cart.    s(15) = (  1.0000000  0.0000000  0.0000000 )    f =(  0.0000000 )
                  (  0.0000000 -1.0000000  0.0000000 )       (  0.0000000 )
                  (  0.0000000  0.0000000  1.0000000 )       (  0.8113772 )


      isym = 16     inv. 180 deg rotation - cart. axis [1,0,0]   

 cryst.   s(16) = (    -1          0          0      )
                  (     1          1          0      )
                  (     0          0          1      )

 cart.    s(16) = ( -1.0000000  0.0000000  0.0000000 )
                  (  0.0000000  1.0000000  0.0000000 )
                  (  0.0000000  0.0000000  1.0000000 )


      isym = 17     inv.  60 deg rotation - cryst. axis [0,0,1]  

 cryst.   s(17) = (    -1         -1          0      )    f =(  0.0000000 )
                  (     1          0          0      )       (  0.0000000 )
                  (     0          0         -1      )       ( -0.5000000 )

 cart.    s(17) = ( -0.5000000  0.8660254  0.0000000 )    f =(  0.0000000 )
                  ( -0.8660254 -0.5000000  0.0000000 )       (  0.0000000 )
                  (  0.0000000  0.0000000 -1.0000000 )       ( -0.8113772 )


      isym = 18     inv.  60 deg rotation - cryst. axis [0,0,-1] 

 cryst.   s(18) = (     0          1          0      )    f =(  0.0000000 )
                  (    -1         -1          0      )       ( -0.0000000 )
                  (     0          0         -1      )       ( -0.5000000 )

 cart.    s(18) = ( -0.5000000 -0.8660254  0.0000000 )    f =(  0.0000000 )
                  (  0.8660254 -0.5000000  0.0000000 )       ( -0.0000000 )
                  (  0.0000000  0.0000000 -1.0000000 )       ( -0.8113772 )


      isym = 19     inv. 120 deg rotation - cryst. axis [0,0,1]  

 cryst.   s(19) = (     0         -1          0      )
                  (     1          1          0      )
                  (     0          0         -1      )

 cart.    s(19) = (  0.5000000  0.8660254  0.0000000 )
                  ( -0.8660254  0.5000000  0.0000000 )
                  (  0.0000000  0.0000000 -1.0000000 )


      isym = 20     inv. 120 deg rotation - cryst. axis [0,0,-1] 

 cryst.   s(20) = (     1          1          0      )
                  (    -1          0          0      )
                  (     0          0         -1      )

 cart.    s(20) = (  0.5000000 -0.8660254  0.0000000 )
                  (  0.8660254  0.5000000  0.0000000 )
                  (  0.0000000  0.0000000 -1.0000000 )


      isym = 21     inv. 180 deg rotation - cryst. axis [1,-1,0] 

 cryst.   s(21) = (     0          1          0      )    f =(  0.0000000 )
                  (     1          0          0      )       ( -0.0000000 )
                  (     0          0          1      )       (  0.5000000 )

 cart.    s(21) = ( -0.5000000  0.8660254  0.0000000 )    f =(  0.0000000 )
                  (  0.8660254  0.5000000  0.0000000 )       ( -0.0000000 )
                  (  0.0000000  0.0000000  1.0000000 )       (  0.8113772 )


      isym = 22     inv. 180 deg rotation - cryst. axis [2,1,0]  

 cryst.   s(22) = (    -1         -1          0      )    f =(  0.0000000 )
                  (     0          1          0      )       ( -0.0000000 )
                  (     0          0          1      )       (  0.5000000 )

 cart.    s(22) = ( -0.5000000 -0.8660254  0.0000000 )    f =(  0.0000000 )
                  ( -0.8660254  0.5000000  0.0000000 )       ( -0.0000000 )
                  (  0.0000000  0.0000000  1.0000000 )       (  0.8113772 )


      isym = 23     inv. 180 deg rotation - cryst. axis [0,1,0]  

 cryst.   s(23) = (     1          1          0      )
                  (     0         -1          0      )
                  (     0          0          1      )

 cart.    s(23) = (  0.5000000  0.8660254  0.0000000 )
                  (  0.8660254 -0.5000000  0.0000000 )
                  (  0.0000000  0.0000000  1.0000000 )


      isym = 24     inv. 180 deg rotation - cryst. axis [1,1,0]  

 cryst.   s(24) = (     0         -1          0      )
                  (    -1          0          0      )
                  (     0          0          1      )

 cart.    s(24) = (  0.5000000 -0.8660254  0.0000000 )
                  ( -0.8660254 -0.5000000  0.0000000 )
                  (  0.0000000  0.0000000  1.0000000 )


     point group D_6h(6/mmm)
     there are 12 classes
     the character table:

       E     2C6   2C3   C2    3C2'  3C2'' i     2S3   2S6   s_h   3s_d  3s_v 
A_1g   1.00  1.00  1.00  1.00  1.00  1.00  1.00  1.00  1.00  1.00  1.00  1.00
A_2g   1.00  1.00  1.00  1.00 -1.00 -1.00  1.00  1.00  1.00  1.00 -1.00 -1.00
B_1g   1.00 -1.00  1.00 -1.00  1.00 -1.00  1.00 -1.00  1.00 -1.00  1.00 -1.00
B_2g   1.00 -1.00  1.00 -1.00 -1.00  1.00  1.00 -1.00  1.00 -1.00 -1.00  1.00
E_1g   2.00  1.00 -1.00 -2.00  0.00  0.00  2.00  1.00 -1.00 -2.00  0.00  0.00
E_2g   2.00 -1.00 -1.00  2.00  0.00  0.00  2.00 -1.00 -1.00  2.00  0.00  0.00
A_1u   1.00  1.00  1.00  1.00  1.00  1.00 -1.00 -1.00 -1.00 -1.00 -1.00 -1.00
A_2u   1.00  1.00  1.00  1.00 -1.00 -1.00 -1.00 -1.00 -1.00 -1.00  1.00  1.00
B_1u   1.00 -1.00  1.00 -1.00  1.00 -1.00 -1.00  1.00 -1.00  1.00 -1.00  1.00
B_2u   1.00 -1.00  1.00 -1.00 -1.00  1.00 -1.00  1.00 -1.00  1.00  1.00 -1.00
E_1u   2.00  1.00 -1.00 -2.00  0.00  0.00 -2.00 -1.00  1.00  2.00  0.00  0.00
E_2u   2.00 -1.00 -1.00  2.00  0.00  0.00 -2.00  1.00  1.00 -2.00  0.00  0.00

     the symmetry operations in each class and the name of the first element:

     E        1
          identity                                               
     2C6      5    6
           60 deg rotation - cryst. axis [0,0,1]                 
     2C3      7    8
          120 deg rotation - cryst. axis [0,0,1]                 
     C2       2
          180 deg rotation - cart. axis [0,0,1]                  
     3C2'     4   12   11
          180 deg rotation - cart. axis [1,0,0]                  
     3C2''    3    9   10
          180 deg rotation - cart. axis [0,1,0]                  
     i       13
          inversion                                              
     2S3     17   18
          inv.  60 deg rotation - cryst. axis [0,0,1]            
     2S6     19   20
          inv. 120 deg rotation - cryst. axis [0,0,1]            
     s_h     14
          inv. 180 deg rotation - cart. axis [0,0,1]             
     3s_d    16   24   23
          inv. 180 deg rotation - cart. axis [1,0,0]             
     3s_v    15   21   22
          inv. 180 deg rotation - cart. axis [0,1,0]             

   Cartesian axes

     site n.     atom                  positions (alat units)
         1           Co  tau(   1) = (  -0.0000000   0.5773503   0.4056886  )
         2           Co  tau(   2) = (   0.5000000   0.2886751   1.2170659  )

   Crystallographic axes

     site n.     atom                  positions (cryst. coord.)
         1           Co  tau(   1) = (  0.3333333  0.6666667  0.2500000  )
         2           Co  tau(   2) = (  0.6666667  0.3333333  0.7500000  )

     number of k points=    76  Gaussian smearing, width (Ry)=  0.0010
                       cart. coord. in units 2pi/alat
        k(    1) = (   0.0000000   0.0000000   0.0000000), wk =   0.0011574
        k(    2) = (   0.0000000   0.0000000   0.1027060), wk =   0.0023148
        k(    3) = (   0.0000000   0.0000000   0.2054121), wk =   0.0023148
        k(    4) = (   0.0000000   0.0000000  -0.3081181), wk =   0.0011574
        k(    5) = (   0.0000000   0.0962250   0.0000000), wk =   0.0069444
        k(    6) = (   0.0000000   0.0962250   0.1027060), wk =   0.0138889
        k(    7) = (   0.0000000   0.0962250   0.2054121), wk =   0.0138889
        k(    8) = (   0.0000000   0.0962250  -0.3081181), wk =   0.0069444
        k(    9) = (   0.0000000   0.1924501   0.0000000), wk =   0.0069444
        k(   10) = (   0.0000000   0.1924501   0.1027060), wk =   0.0138889
        k(   11) = (   0.0000000   0.1924501   0.2054121), wk =   0.0138889
        k(   12) = (   0.0000000   0.1924501  -0.3081181), wk =   0.0069444
        k(   13) = (   0.0000000   0.2886751   0.0000000), wk =   0.0069444
        k(   14) = (   0.0000000   0.2886751   0.1027060), wk =   0.0138889
        k(   15) = (   0.0000000   0.2886751   0.2054121), wk =   0.0138889
        k(   16) = (   0.0000000   0.2886751  -0.3081181), wk =   0.0069444
        k(   17) = (   0.0000000   0.3849002   0.0000000), wk =   0.0069444
        k(   18) = (   0.0000000   0.3849002   0.1027060), wk =   0.0138889
        k(   19) = (   0.0000000   0.3849002   0.2054121), wk =   0.0138889
        k(   20) = (   0.0000000   0.3849002  -0.3081181), wk =   0.0069444
        k(   21) = (   0.0000000   0.4811252   0.0000000), wk =   0.0069444
        k(   22) = (   0.0000000   0.4811252   0.1027060), wk =   0.0138889
        k(   23) = (   0.0000000   0.4811252   0.2054121), wk =   0.0138889
        k(   24) = (   0.0000000   0.4811252  -0.3081181), wk =   0.0069444
        k(   25) = (   0.0000000  -0.5773503   0.0000000), wk =   0.0034722
        k(   26) = (   0.0000000  -0.5773503   0.1027060), wk =   0.0069444
        k(   27) = (   0.0000000  -0.5773503   0.2054121), wk =   0.0069444
        k(   28) = (   0.0000000  -0.5773503  -0.3081181), wk =   0.0034722
        k(   29) = (   0.0833333   0.1443376   0.0000000), wk =   0.0069444
        k(   30) = (   0.0833333   0.1443376   0.1027060), wk =   0.0138889
        k(   31) = (   0.0833333   0.1443376   0.2054121), wk =   0.0138889
        k(   32) = (   0.0833333   0.1443376  -0.3081181), wk =   0.0069444
        k(   33) = (   0.0833333   0.2405626   0.0000000), wk =   0.0138889
        k(   34) = (   0.0833333   0.2405626   0.1027060), wk =   0.0277778
        k(   35) = (   0.0833333   0.2405626   0.2054121), wk =   0.0277778
        k(   36) = (   0.0833333   0.2405626  -0.3081181), wk =   0.0138889
        k(   37) = (   0.0833333   0.3367877   0.0000000), wk =   0.0138889
        k(   38) = (   0.0833333   0.3367877   0.1027060), wk =   0.0277778
        k(   39) = (   0.0833333   0.3367877   0.2054121), wk =   0.0277778
        k(   40) = (   0.0833333   0.3367877  -0.3081181), wk =   0.0138889
        k(   41) = (   0.0833333   0.4330127   0.0000000), wk =   0.0138889
        k(   42) = (   0.0833333   0.4330127   0.1027060), wk =   0.0277778
        k(   43) = (   0.0833333   0.4330127   0.2054121), wk =   0.0277778
        k(   44) = (   0.0833333   0.4330127  -0.3081181), wk =   0.0138889
        k(   45) = (   0.0833333   0.5292377   0.0000000), wk =   0.0138889
        k(   46) = (   0.0833333   0.5292377   0.1027060), wk =   0.0277778
        k(   47) = (   0.0833333   0.5292377   0.2054121), wk =   0.0277778
        k(   48) = (   0.0833333   0.5292377  -0.3081181), wk =   0.0138889
        k(   49) = (   0.1666667   0.2886751   0.0000000), wk =   0.0069444
        k(   50) = (   0.1666667   0.2886751   0.1027060), wk =   0.0138889
        k(   51) = (   0.1666667   0.2886751   0.2054121), wk =   0.0138889
        k(   52) = (   0.1666667   0.2886751  -0.3081181), wk =   0.0069444
        k(   53) = (   0.1666667   0.3849002   0.0000000), wk =   0.0138889
        k(   54) = (   0.1666667   0.3849002   0.1027060), wk =   0.0277778
        k(   55) = (   0.1666667   0.3849002   0.2054121), wk =   0.0277778
        k(   56) = (   0.1666667   0.3849002  -0.3081181), wk =   0.0138889
        k(   57) = (   0.1666667   0.4811252   0.0000000), wk =   0.0138889
        k(   58) = (   0.1666667   0.4811252   0.1027060), wk =   0.0277778
        k(   59) = (   0.1666667   0.4811252   0.2054121), wk =   0.0277778
        k(   60) = (   0.1666667   0.4811252  -0.3081181), wk =   0.0138889
        k(   61) = (   0.1666667   0.5773503   0.0000000), wk =   0.0069444
        k(   62) = (   0.1666667   0.5773503   0.1027060), wk =   0.0138889
        k(   63) = (   0.1666667   0.5773503   0.2054121), wk =   0.0138889
        k(   64) = (   0.1666667   0.5773503  -0.3081181), wk =   0.0069444
        k(   65) = (   0.2500000   0.4330127   0.0000000), wk =   0.0069444
        k(   66) = (   0.2500000   0.4330127   0.1027060), wk =   0.0138889
        k(   67) = (   0.2500000   0.4330127   0.2054121), wk =   0.0138889
        k(   68) = (   0.2500000   0.4330127  -0.3081181), wk =   0.0069444
        k(   69) = (   0.2500000   0.5292377   0.0000000), wk =   0.0138889
        k(   70) = (   0.2500000   0.5292377   0.1027060), wk =   0.0277778
        k(   71) = (   0.2500000   0.5292377   0.2054121), wk =   0.0277778
        k(   72) = (   0.2500000   0.5292377  -0.3081181), wk =   0.0138889
        k(   73) = (   0.3333333   0.5773503   0.0000000), wk =   0.0023148
        k(   74) = (   0.3333333   0.5773503   0.1027060), wk =   0.0046296
        k(   75) = (   0.3333333   0.5773503   0.2054121), wk =   0.0046296
        k(   76) = (   0.3333333   0.5773503  -0.3081181), wk =   0.0023148

                       cryst. coord.
        k(    1) = (   0.0000000   0.0000000   0.0000000), wk =   0.0011574
        k(    2) = (   0.0000000   0.0000000   0.1666667), wk =   0.0023148
        k(    3) = (   0.0000000   0.0000000   0.3333333), wk =   0.0023148
        k(    4) = (   0.0000000   0.0000000  -0.5000000), wk =   0.0011574
        k(    5) = (   0.0000000   0.0833333   0.0000000), wk =   0.0069444
        k(    6) = (   0.0000000   0.0833333   0.1666667), wk =   0.0138889
        k(    7) = (   0.0000000   0.0833333   0.3333333), wk =   0.0138889
        k(    8) = (   0.0000000   0.0833333  -0.5000000), wk =   0.0069444
        k(    9) = (   0.0000000   0.1666667   0.0000000), wk =   0.0069444
        k(   10) = (   0.0000000   0.1666667   0.1666667), wk =   0.0138889
        k(   11) = (   0.0000000   0.1666667   0.3333333), wk =   0.0138889
        k(   12) = (   0.0000000   0.1666667  -0.5000000), wk =   0.0069444
        k(   13) = (   0.0000000   0.2500000   0.0000000), wk =   0.0069444
        k(   14) = (   0.0000000   0.2500000   0.1666667), wk =   0.0138889
        k(   15) = (   0.0000000   0.2500000   0.3333333), wk =   0.0138889
        k(   16) = (   0.0000000   0.2500000  -0.5000000), wk =   0.0069444
        k(   17) = (   0.0000000   0.3333333   0.0000000), wk =   0.0069444
        k(   18) = (   0.0000000   0.3333333   0.1666667), wk =   0.0138889
        k(   19) = (   0.0000000   0.3333333   0.3333333), wk =   0.0138889
        k(   20) = (   0.0000000   0.3333333  -0.5000000), wk =   0.0069444
        k(   21) = (   0.0000000   0.4166667   0.0000000), wk =   0.0069444
        k(   22) = (   0.0000000   0.4166667   0.1666667), wk =   0.0138889
        k(   23) = (   0.0000000   0.4166667   0.3333333), wk =   0.0138889
        k(   24) = (   0.0000000   0.4166667  -0.5000000), wk =   0.0069444
        k(   25) = (   0.0000000  -0.5000000   0.0000000), wk =   0.0034722
        k(   26) = (   0.0000000  -0.5000000   0.1666667), wk =   0.0069444
        k(   27) = (   0.0000000  -0.5000000   0.3333333), wk =   0.0069444
        k(   28) = (   0.0000000  -0.5000000  -0.5000000), wk =   0.0034722
        k(   29) = (   0.0833333   0.0833333   0.0000000), wk =   0.0069444
        k(   30) = (   0.0833333   0.0833333   0.1666667), wk =   0.0138889
        k(   31) = (   0.0833333   0.0833333   0.3333333), wk =   0.0138889
        k(   32) = (   0.0833333   0.0833333  -0.5000000), wk =   0.0069444
        k(   33) = (   0.0833333   0.1666667   0.0000000), wk =   0.0138889
        k(   34) = (   0.0833333   0.1666667   0.1666667), wk =   0.0277778
        k(   35) = (   0.0833333   0.1666667   0.3333333), wk =   0.0277778
        k(   36) = (   0.0833333   0.1666667  -0.5000000), wk =   0.0138889
        k(   37) = (   0.0833333   0.2500000   0.0000000), wk =   0.0138889
        k(   38) = (   0.0833333   0.2500000   0.1666667), wk =   0.0277778
        k(   39) = (   0.0833333   0.2500000   0.3333333), wk =   0.0277778
        k(   40) = (   0.0833333   0.2500000  -0.5000000), wk =   0.0138889
        k(   41) = (   0.0833333   0.3333333   0.0000000), wk =   0.0138889
        k(   42) = (   0.0833333   0.3333333   0.1666667), wk =   0.0277778
        k(   43) = (   0.0833333   0.3333333   0.3333333), wk =   0.0277778
        k(   44) = (   0.0833333   0.3333333  -0.5000000), wk =   0.0138889
        k(   45) = (   0.0833333   0.4166667   0.0000000), wk =   0.0138889
        k(   46) = (   0.0833333   0.4166667   0.1666667), wk =   0.0277778
        k(   47) = (   0.0833333   0.4166667   0.3333333), wk =   0.0277778
        k(   48) = (   0.0833333   0.4166667  -0.5000000), wk =   0.0138889
        k(   49) = (   0.1666667   0.1666667   0.0000000), wk =   0.0069444
        k(   50) = (   0.1666667   0.1666667   0.1666667), wk =   0.0138889
        k(   51) = (   0.1666667   0.1666667   0.3333333), wk =   0.0138889
        k(   52) = (   0.1666667   0.1666667  -0.5000000), wk =   0.0069444
        k(   53) = (   0.1666667   0.2500000   0.0000000), wk =   0.0138889
        k(   54) = (   0.1666667   0.2500000   0.1666667), wk =   0.0277778
        k(   55) = (   0.1666667   0.2500000   0.3333333), wk =   0.0277778
        k(   56) = (   0.1666667   0.2500000  -0.5000000), wk =   0.0138889
        k(   57) = (   0.1666667   0.3333333   0.0000000), wk =   0.0138889
        k(   58) = (   0.1666667   0.3333333   0.1666667), wk =   0.0277778
        k(   59) = (   0.1666667   0.3333333   0.3333333), wk =   0.0277778
        k(   60) = (   0.1666667   0.3333333  -0.5000000), wk =   0.0138889
        k(   61) = (   0.1666667   0.4166667   0.0000000), wk =   0.0069444
        k(   62) = (   0.1666667   0.4166667   0.1666667), wk =   0.0138889
        k(   63) = (   0.1666667   0.4166667   0.3333333), wk =   0.0138889
        k(   64) = (   0.1666667   0.4166667  -0.5000000), wk =   0.0069444
        k(   65) = (   0.2500000   0.2500000   0.0000000), wk =   0.0069444
        k(   66) = (   0.2500000   0.2500000   0.1666667), wk =   0.0138889
        k(   67) = (   0.2500000   0.2500000   0.3333333), wk =   0.0138889
        k(   68) = (   0.2500000   0.2500000  -0.5000000), wk =   0.0069444
        k(   69) = (   0.2500000   0.3333333   0.0000000), wk =   0.0138889
        k(   70) = (   0.2500000   0.3333333   0.1666667), wk =   0.0277778
        k(   71) = (   0.2500000   0.3333333   0.3333333), wk =   0.0277778
        k(   72) = (   0.2500000   0.3333333  -0.5000000), wk =   0.0138889
        k(   73) = (   0.3333333   0.3333333   0.0000000), wk =   0.0023148
        k(   74) = (   0.3333333   0.3333333   0.1666667), wk =   0.0046296
        k(   75) = (   0.3333333   0.3333333   0.3333333), wk =   0.0046296
        k(   76) = (   0.3333333   0.3333333  -0.5000000), wk =   0.0023148

     Dense  grid:    24027 G-vectors     FFT dimensions: (  32,  32,  54)

     Smooth grid:    23259 G-vectors     FFT dimensions: (  32,  32,  54)

     Dynamical RAM for                 wfc:       0.05 MB

     Dynamical RAM for     wfc (w. buffer):       7.11 MB

     Dynamical RAM for           str. fact:       0.02 MB

     Dynamical RAM for           local pot:       0.00 MB

     Dynamical RAM for          nlocal pot:       0.08 MB

     Dynamical RAM for                qrad:       1.70 MB

     Dynamical RAM for          rho,v,vnew:       0.25 MB

     Dynamical RAM for               rhoin:       0.08 MB

     Dynamical RAM for            rho*nmix:       0.59 MB

     Dynamical RAM for           G-vectors:       0.08 MB

     Dynamical RAM for          h,s,v(r/c):       0.08 MB

     Dynamical RAM for          <psi|beta>:       0.01 MB

     Dynamical RAM for                 psi:       0.09 MB

     Dynamical RAM for                hpsi:       0.09 MB

     Dynamical RAM for                spsi:       0.09 MB

     Dynamical RAM for      wfcinit/wfcrot:       0.10 MB

     Dynamical RAM for           addusdens:       3.47 MB

     Estimated static dynamical RAM per process >       9.50 MB

     Estimated max dynamical RAM per process >      13.56 MB

     Estimated total dynamical RAM >     271.18 MB

     Check: negative core charge=   -0.000042
     Generating pointlists ...
     new r_m :   0.4108 (alat units)  1.9445 (a.u.) for type    1

     The initial density is read from file :
     ./out/Co.save/charge-density


     starting charge      34.0419, renormalised to      34.0000
     Starting wfcs from file
     Checking if some PAW data can be deallocated... 

     total cpu time spent up to now is        0.6 secs

     Self-consistent Calculation

     iteration #  1     ecut=   110.00 Ry     beta= 0.70
     Davidson diagonalization with overlap

---- Real-time Memory Report at c_bands before calling an iterative solver
            57 MiB given to the printing process from OS
             0 MiB allocation reported by mallinfo(arena+hblkhd)
        351496 MiB available memory on the node where the printing process lives
------------------
     ethr =  1.00E-05,  avg # of iterations =  3.3

     total cpu time spent up to now is        2.5 secs

     total energy              =    -753.45111163 Ry
     estimated scf accuracy    <       0.00237562 Ry

     total magnetization       =     3.35 Bohr mag/cell
     absolute magnetization    =     3.67 Bohr mag/cell

     iteration #  2     ecut=   110.00 Ry     beta= 0.70
     Davidson diagonalization with overlap

---- Real-time Memory Report at c_bands before calling an iterative solver
            78 MiB given to the printing process from OS
             0 MiB allocation reported by mallinfo(arena+hblkhd)
        351277 MiB available memory on the node where the printing process lives
------------------
     ethr =  6.99E-06,  avg # of iterations =  5.1

     total cpu time spent up to now is        4.8 secs

     total energy              =    -753.45245028 Ry
     estimated scf accuracy    <       0.01035023 Ry

     total magnetization       =     3.36 Bohr mag/cell
     absolute magnetization    =     3.69 Bohr mag/cell

     iteration #  3     ecut=   110.00 Ry     beta= 0.70
     Davidson diagonalization with overlap

---- Real-time Memory Report at c_bands before calling an iterative solver
            80 MiB given to the printing process from OS
             0 MiB allocation reported by mallinfo(arena+hblkhd)
        351264 MiB available memory on the node where the printing process lives
------------------
     ethr =  6.99E-06,  avg # of iterations =  4.0

     total cpu time spent up to now is        6.6 secs

     total energy              =    -753.45464009 Ry
     estimated scf accuracy    <       0.00019597 Ry

     total magnetization       =     3.36 Bohr mag/cell
     absolute magnetization    =     3.69 Bohr mag/cell

     iteration #  4     ecut=   110.00 Ry     beta= 0.70
     Davidson diagonalization with overlap

---- Real-time Memory Report at c_bands before calling an iterative solver
            81 MiB given to the printing process from OS
             0 MiB allocation reported by mallinfo(arena+hblkhd)
        351251 MiB available memory on the node where the printing process lives
------------------
     ethr =  5.76E-07,  avg # of iterations =  3.5

     total cpu time spent up to now is        8.3 secs

     total energy              =    -753.45474795 Ry
     estimated scf accuracy    <       0.00000321 Ry

     total magnetization       =     3.36 Bohr mag/cell
     absolute magnetization    =     3.69 Bohr mag/cell

     iteration #  5     ecut=   110.00 Ry     beta= 0.70
     Davidson diagonalization with overlap

---- Real-time Memory Report at c_bands before calling an iterative solver
            81 MiB given to the printing process from OS
             0 MiB allocation reported by mallinfo(arena+hblkhd)
        351243 MiB available memory on the node where the printing process lives
------------------
     ethr =  9.43E-09,  avg # of iterations =  8.9

     total cpu time spent up to now is       11.4 secs

     total energy              =    -753.45475915 Ry
     estimated scf accuracy    <       0.00000731 Ry

     total magnetization       =     3.36 Bohr mag/cell
     absolute magnetization    =     3.69 Bohr mag/cell

     iteration #  6     ecut=   110.00 Ry     beta= 0.70
     Davidson diagonalization with overlap

---- Real-time Memory Report at c_bands before calling an iterative solver
            83 MiB given to the printing process from OS
             0 MiB allocation reported by mallinfo(arena+hblkhd)
        351235 MiB available memory on the node where the printing process lives
------------------
     ethr =  9.43E-09,  avg # of iterations =  4.0
 
     Magnetic moment per site  (integrated on atomic sphere of radius R)
     atom   1 (R=0.411)  charge= 15.6064  magn=  1.7562
     atom   2 (R=0.411)  charge= 15.6064  magn=  1.7562

     total cpu time spent up to now is       13.3 secs

     End of self-consistent calculation

 ------ SPIN UP ------------


          k = 0.0000 0.0000 0.0000 (  2875 PWs)   bands (ev):

   -77.8447 -77.7934 -41.2381 -40.9596 -40.9596 -40.9341 -40.9156 -40.9156
     9.3906  13.1664  15.6358  15.6840  15.6840  15.9845  15.9845  16.3199
    16.3199  17.3842  17.3842  18.0209  24.3689

     occupation numbers 
     1.0000   1.0000   1.0000   1.0000   1.0000   1.0000   1.0000   1.0000
     1.0000   1.0000   1.0000   1.0000   1.0000   1.0000   1.0000   1.0000
     1.0000   1.0000   1.0000   1.0000   0.0000

          k = 0.0000 0.0000 0.1027 (  2887 PWs)   bands (ev):

   -77.8413 -77.7968 -41.2180 -40.9567 -40.9567 -40.9547 -40.9186 -40.9186
     9.6629  13.0936  15.5678  15.6216  15.6216  15.9137  15.9137  16.4770
    16.4770  17.0713  17.3679  17.3679  25.8826

     occupation numbers 
     1.0000   1.0000   1.0000   1.0000   1.0000   1.0000   1.0000   1.0000
     1.0000   1.0000   1.0000   1.0000   1.0000   1.0000   1.0000   1.0000
     1.0000   1.0000   1.0000   1.0000   0.0000

          k = 0.0000 0.0000 0.2054 (  2894 PWs)   bands (ev):

   -77.8319 -77.8062 -41.1628 -41.0109 -40.9486 -40.9486 -40.9266 -40.9266
    10.4445  12.6478  15.4105  15.5685  15.5685  15.7576  15.7576  15.7748
    16.7869  16.7869  17.2822  17.2822  29.0689

     occupation numbers 
     1.0000   1.0000   1.0000   1.0000   1.0000   1.0000   1.0000   1.0000
     1.0000   1.0000   1.0000   1.0000   1.0000   1.0000   1.0000   1.0000
     1.0000   1.0000   1.0000   1.0000   0.0000

          k = 0.0000 0.0000-0.3081 (  2894 PWs)   bands (ev):

   -77.8191 -77.8191 -41.0871 -41.0871 -40.9376 -40.9376 -40.9376 -40.9376
    11.5868  11.5868  15.3357  15.3357  15.6185  15.6185  15.6185  15.6185
    17.0829  17.0829  17.0829  17.0829  32.8716

     occupation numbers 
     1.0000   1.0000   1.0000   1.0000   1.0000   1.0000   1.0000   1.0000
     1.0000   1.0000   1.0000   1.0000   1.0000   1.0000   1.0000   1.0000
     1.0000   1.0000   1.0000   1.0000   0.0000

          k = 0.0000 0.0962 0.0000 (  2869 PWs)   bands (ev):

   -77.8418 -77.7920 -41.2315 -40.9743 -40.9644 -40.9368 -40.9309 -40.9181
     9.6296  13.3098  15.4458  15.7950  15.8390  15.9375  16.0829  16.1670
    16.2511  16.6111  17.4130  19.1112  24.4102

     occupation numbers 
     1.0000   1.0000   1.0000   1.0000   1.0000   1.0000   1.0000   1.0000
     1.0000   1.0000   1.0000   1.0000   1.0000   1.0000   1.0000   1.0000
     1.0000   1.0000   1.0000   0.0000   0.0000

          k = 0.0000 0.0962 0.1027 (  2889 PWs)   bands (ev):

   -77.8385 -77.7953 -41.2125 -40.9710 -40.9613 -40.9612 -40.9293 -40.9212
     9.8978  13.2515  15.4443  15.6701  15.7163  15.7621  16.0063  16.2917
    16.4344  16.5160  17.3896  18.3347  25.9927

     occupation numbers 
     1.0000   1.0000   1.0000   1.0000   1.0000   1.0000   1.0000   1.0000
     1.0000   1.0000   1.0000   1.0000   1.0000   1.0000   1.0000   1.0000
     1.0000   1.0000   1.0000   0.0000   0.0000

          k = 0.0000 0.0962 0.2054 (  2888 PWs)   bands (ev):

   -77.8294 -77.8045 -41.1604 -41.0162 -40.9616 -40.9528 -40.9368 -40.9297
    10.6672  12.8340  15.3378  15.3915  15.4936  15.6565  15.8489  15.9104
    16.7624  16.8060  17.2880  17.5756  29.2226

     occupation numbers 
     1.0000   1.0000   1.0000   1.0000   1.0000   1.0000   1.0000   1.0000
     1.0000   1.0000   1.0000   1.0000   1.0000   1.0000   1.0000   1.0000
     1.0000   1.0000   1.0000   1.0000   0.0000

          k = 0.0000 0.0962-0.3081 (  2882 PWs)   bands (ev):

   -77.8169 -77.8169 -41.0887 -41.0887 -40.9490 -40.9490 -40.9413 -40.9413
    11.7914  11.7914  15.1951  15.1951  15.6306  15.6306  15.7079  15.7079
    17.0722  17.0722  17.1723  17.1723  33.0391

     occupation numbers 
     1.0000   1.0000   1.0000   1.0000   1.0000   1.0000   1.0000   1.0000
     1.0000   1.0000   1.0000   1.0000   1.0000   1.0000   1.0000   1.0000
     1.0000   1.0000   1.0000   1.0000   0.0000

          k = 0.0000 0.1925 0.0000 (  2886 PWs)   bands (ev):

   -77.8336 -77.7884 -41.2126 -41.0147 -40.9772 -40.9723 -40.9450 -40.9252
    10.3213  13.6650  15.1846  15.4531  15.7643  16.0813  16.1085  16.1340
    16.2650  16.3588  17.4740  20.6735  24.5552

     occupation numbers 
     1.0000   1.0000   1.0000   1.0000   1.0000   1.0000   1.0000   1.0000
     1.0000   1.0000   1.0000   1.0000   1.0000   1.0000   1.0000   1.0000
     1.0000   1.0000   1.0000   0.0000   0.0000

          k = 0.0000 0.1925 0.1027 (  2892 PWs)   bands (ev):

   -77.8306 -77.7914 -41.1973 -41.0100 -40.9905 -40.9738 -40.9472 -40.9287
    10.5741  13.6511  15.1875  15.2239  15.6474  15.9193  16.0232  16.2465
    16.4179  16.5038  17.4351  19.5423  26.3505

     occupation numbers 
     1.0000   1.0000   1.0000   1.0000   1.0000   1.0000   1.0000   1.0000
     1.0000   1.0000   1.0000   1.0000   1.0000   1.0000   1.0000   1.0000
     1.0000   1.0000   1.0000   0.0000   0.0000

          k = 0.0000 0.1925 0.2054 (  2902 PWs)   bands (ev):

   -77.8223 -77.7997 -41.1551 -41.0377 -40.9947 -40.9643 -40.9582 -40.9382
    11.2960  13.3170  14.8567  15.2780  15.3752  15.8507  15.8710  16.1019
    16.7377  16.8918  17.3005  18.2081  29.6820

     occupation numbers 
     1.0000   1.0000   1.0000   1.0000   1.0000   1.0000   1.0000   1.0000
     1.0000   1.0000   1.0000   1.0000   1.0000   1.0000   1.0000   1.0000
     1.0000   1.0000   1.0000   1.0000   0.0000

          k = 0.0000 0.1925-0.3081 (  2896 PWs)   bands (ev):

   -77.8110 -77.8110 -41.0970 -41.0970 -40.9761 -40.9761 -40.9513 -40.9513
    12.3435  12.3435  14.9716  14.9716  15.5740  15.5740  15.9462  15.9462
    17.0574  17.0574  17.4133  17.4133  33.4961

     occupation numbers 
     1.0000   1.0000   1.0000   1.0000   1.0000   1.0000   1.0000   1.0000
     1.0000   1.0000   1.0000   1.0000   1.0000   1.0000   1.0000   1.0000
     1.0000   1.0000   1.0000   1.0000   0.0000

          k = 0.0000 0.2887 0.0000 (  2894 PWs)   bands (ev):

   -77.8220 -77.7838 -41.1844 -41.0704 -41.0280 -40.9943 -40.9587 -40.9353
    11.3703  13.9526  14.7488  15.0246  15.6682  15.8769  16.0689  16.5523
    16.5630  16.7552  17.5314  22.4376  24.8373

     occupation numbers 
     1.0000   1.0000   1.0000   1.0000   1.0000   1.0000   1.0000   1.0000
     1.0000   1.0000   1.0000   1.0000   1.0000   1.0000   1.0000   1.0000
     1.0000   1.0000   1.0000   0.0000   0.0000

          k = 0.0000 0.2887 0.1027 (  2902 PWs)   bands (ev):

   -77.8195 -77.7864 -41.1772 -41.0616 -41.0414 -40.9904 -40.9614 -40.9393
    11.5817  13.9920  14.6090  15.0742  15.5212  15.9146  16.0728  16.6044
    16.6705  16.7118  17.4788  20.8011  26.9917

     occupation numbers 
     1.0000   1.0000   1.0000   1.0000   1.0000   1.0000   1.0000   1.0000
     1.0000   1.0000   1.0000   1.0000   1.0000   1.0000   1.0000   1.0000
     1.0000   1.0000   1.0000   0.0000   0.0000

          k = 0.0000 0.2887 0.2054 (  2902 PWs)   bands (ev):

   -77.8125 -77.7934 -41.1555 -41.0810 -41.0309 -40.9796 -40.9745 -40.9501
    12.1710  13.7502  14.5333  15.1024  15.3971  15.9196  16.0338  16.4582
    16.8577  17.0479  17.3262  18.9692  30.3194

     occupation numbers 
     1.0000   1.0000   1.0000   1.0000   1.0000   1.0000   1.0000   1.0000
     1.0000   1.0000   1.0000   1.0000   1.0000   1.0000   1.0000   1.0000
     1.0000   1.0000   1.0000   0.0000   0.0000

          k = 0.0000 0.2887-0.3081 (  2912 PWs)   bands (ev):

   -77.8030 -77.8030 -41.1211 -41.1211 -41.0000 -41.0000 -40.9649 -40.9649
    12.9879  12.9879  14.8213  14.8213  15.6318  15.6318  16.2293  16.2293
    17.1004  17.1004  17.7522  17.7522  32.4512

     occupation numbers 
     1.0000   1.0000   1.0000   1.0000   1.0000   1.0000   1.0000   1.0000
     1.0000   1.0000   1.0000   1.0000   1.0000   1.0000   1.0000   1.0000
     1.0000   1.0000   1.0000   1.0000   0.0000

          k = 0.0000 0.3849 0.0000 (  2896 PWs)   bands (ev):

   -77.8096 -77.7801 -41.1513 -41.1265 -41.0826 -41.0110 -40.9773 -40.9458
    12.5224  13.8906  14.2404  15.1291  15.6926  15.7864  15.8925  17.0472
    17.1846  17.2231  17.5704  24.3639  24.9320

     occupation numbers 
     1.0000   1.0000   1.0000   1.0000   1.0000   1.0000   1.0000   1.0000
     1.0000   1.0000   1.0000   1.0000   1.0000   1.0000   1.0000   1.0000
     1.0000   1.0000   1.0000   0.0000   0.0000

          k = 0.0000 0.3849 0.1027 (  2897 PWs)   bands (ev):

   -77.8077 -77.7821 -41.1678 -41.1054 -41.0873 -41.0067 -40.9771 -40.9501
    12.6235  13.9195  14.2724  14.9879  15.7118  15.7821  16.2309  17.0642
    17.0950  17.1604  17.5212  22.0299  27.0695

     occupation numbers 
     1.0000   1.0000   1.0000   1.0000   1.0000   1.0000   1.0000   1.0000
     1.0000   1.0000   1.0000   1.0000   1.0000   1.0000   1.0000   1.0000
     1.0000   1.0000   1.0000   0.0000   0.0000

          k = 0.0000 0.3849 0.2054 (  2909 PWs)   bands (ev):

   -77.8023 -77.7875 -41.1736 -41.1309 -41.0481 -40.9948 -40.9852 -40.9621
    12.9047  13.7378  14.4113  14.9050  15.8123  16.0344  16.5322  16.7868
    17.1657  17.2716  17.4117  19.8512  28.1585

     occupation numbers 
     1.0000   1.0000   1.0000   1.0000   1.0000   1.0000   1.0000   1.0000
     1.0000   1.0000   1.0000   1.0000   1.0000   1.0000   1.0000   1.0000
     1.0000   1.0000   1.0000   0.0000   0.0000

          k = 0.0000 0.3849-0.3081 (  2914 PWs)   bands (ev):

   -77.7949 -77.7949 -41.1594 -41.1594 -41.0095 -41.0095 -40.9784 -40.9784
    13.3110  13.3110  14.6962  14.6962  16.2172  16.2172  16.3992  16.3992
    17.2845  17.2845  18.2295  18.2295  29.2658

     occupation numbers 
     1.0000   1.0000   1.0000   1.0000   1.0000   1.0000   1.0000   1.0000
     1.0000   1.0000   1.0000   1.0000   1.0000   1.0000   1.0000   1.0000
     1.0000   1.0000   0.9999   0.9999   0.0000

          k = 0.0000 0.4811 0.0000 (  2920 PWs)   bands (ev):

   -77.7995 -77.7785 -41.1678 -41.1221 -41.1208 -41.0230 -40.9972 -40.9536
    13.2911  13.7072  13.9373  15.4767  15.5666  15.7675  15.9857  17.4092
    17.5398  17.5909  18.3158  23.1429  26.3563

     occupation numbers 
     1.0000   1.0000   1.0000   1.0000   1.0000   1.0000   1.0000   1.0000
     1.0000   1.0000   1.0000   1.0000   1.0000   1.0000   1.0000   1.0000
     1.0000   1.0000   0.0000   0.0000   0.0000

          k = 0.0000 0.4811 0.1027 (  2907 PWs)   bands (ev):

   -77.7981 -77.7799 -41.1859 -41.1385 -41.0900 -41.0184 -40.9934 -40.9583
    13.1887  13.7040  14.2379  14.8835  15.6759  15.9874  16.5791  17.3411
    17.4408  17.6027  18.1619  22.3750  25.6617

     occupation numbers 
     1.0000   1.0000   1.0000   1.0000   1.0000   1.0000   1.0000   1.0000
     1.0000   1.0000   1.0000   1.0000   1.0000   1.0000   1.0000   1.0000
     1.0000   1.0000   1.0000   0.0000   0.0000

          k = 0.0000 0.4811 0.2054 (  2910 PWs)   bands (ev):

   -77.7942 -77.7837 -41.1994 -41.1684 -41.0459 -41.0057 -40.9938 -40.9710
    13.1614  13.6301  14.3971  14.7139  15.9858  16.2312  16.9405  17.4715
    17.5070  17.5729  17.8692  20.6864  25.7955

     occupation numbers 
     1.0000   1.0000   1.0000   1.0000   1.0000   1.0000   1.0000   1.0000
     1.0000   1.0000   1.0000   1.0000   1.0000   1.0000   1.0000   1.0000
     1.0000   1.0000   1.0000   0.0000   0.0000

          k = 0.0000 0.4811-0.3081 (  2898 PWs)   bands (ev):

   -77.7890 -77.7890 -41.1927 -41.1927 -41.0110 -41.0110 -40.9884 -40.9884
    13.3434  13.3434  14.5773  14.5773  16.4406  16.4406  16.9227  16.9227
    17.5228  17.5228  19.0619  19.0619  26.5698

     occupation numbers 
     1.0000   1.0000   1.0000   1.0000   1.0000   1.0000   1.0000   1.0000
     1.0000   1.0000   1.0000   1.0000   1.0000   1.0000   1.0000   1.0000
     1.0000   1.0000   0.0000   0.0000   0.0000

          k = 0.0000-0.5774 0.0000 (  2918 PWs)   bands (ev):

   -77.7952 -77.7784 -41.1830 -41.1364 -41.1065 -41.0274 -41.0076 -40.9565
    13.5580  13.5636  13.8368  15.5221  15.7203  15.7224  16.0591  17.5400
    17.5972  17.6834  19.4618  21.4316  27.6501

     occupation numbers 
     1.0000   1.0000   1.0000   1.0000   1.0000   1.0000   1.0000   1.0000
     1.0000   1.0000   1.0000   1.0000   1.0000   1.0000   1.0000   1.0000
     1.0000   1.0000   0.0000   0.0000   0.0000

          k = 0.0000-0.5774 0.1027 (  2914 PWs)   bands (ev):

   -77.7941 -77.7795 -41.1973 -41.1519 -41.0824 -41.0227 -41.0017 -40.9612
    13.2930  13.6113  14.2719  14.8555  15.6370  16.0718  16.7758  17.3970
    17.5810  17.6759  19.2643  21.2628  26.7773

     occupation numbers 
     1.0000   1.0000   1.0000   1.0000   1.0000   1.0000   1.0000   1.0000
     1.0000   1.0000   1.0000   1.0000   1.0000   1.0000   1.0000   1.0000
     1.0000   1.0000   0.0000   0.0000   0.0000

          k = 0.0000-0.5774 0.2054 (  2902 PWs)   bands (ev):

   -77.7910 -77.7826 -41.2108 -41.1822 -41.0421 -41.0097 -40.9980 -40.9742
    13.1845  13.5878  14.4221  14.6260  15.9635  16.3703  16.9726  17.5991
    17.6212  17.6554  18.9680  20.6886  25.7713

     occupation numbers 
     1.0000   1.0000   1.0000   1.0000   1.0000   1.0000   1.0000   1.0000
     1.0000   1.0000   1.0000   1.0000   1.0000   1.0000   1.0000   1.0000
     1.0000   1.0000   0.0000   0.0000   0.0000

          k = 0.0000-0.5774-0.3081 (  2912 PWs)   bands (ev):

   -77.7868 -77.7868 -41.2055 -41.2055 -41.0109 -41.0109 -40.9920 -40.9920
    13.3289  13.3289  14.5308  14.5308  16.4436  16.4436  17.1559  17.1559
    17.6272  17.6272  19.7199  19.7199  25.3164

     occupation numbers 
     1.0000   1.0000   1.0000   1.0000   1.0000   1.0000   1.0000   1.0000
     1.0000   1.0000   1.0000   1.0000   1.0000   1.0000   1.0000   1.0000
     1.0000   1.0000   0.0000   0.0000   0.0000

          k = 0.0833 0.1443 0.0000 (  2880 PWs)   bands (ev):

   -77.8362 -77.7895 -41.2187 -40.9994 -40.9794 -40.9536 -40.9423 -40.9248
    10.0958  13.5648  15.2404  15.6931  15.8343  15.9877  16.0216  16.0514
    16.2992  16.3842  17.4481  20.2354  24.5053

     occupation numbers 
     1.0000   1.0000   1.0000   1.0000   1.0000   1.0000   1.0000   1.0000
     1.0000   1.0000   1.0000   1.0000   1.0000   1.0000   1.0000   1.0000
     1.0000   1.0000   1.0000   0.0000   0.0000

          k = 0.0833 0.1443 0.1027 (  2876 PWs)   bands (ev):

   -77.8331 -77.7926 -41.2021 -40.9950 -40.9840 -40.9684 -40.9410 -40.9281
    10.3544  13.5365  15.2661  15.3695  15.6904  15.8787  16.0008  16.1646
    16.4381  16.4934  17.4168  19.2145  26.2287

     occupation numbers 
     1.0000   1.0000   1.0000   1.0000   1.0000   1.0000   1.0000   1.0000
     1.0000   1.0000   1.0000   1.0000   1.0000   1.0000   1.0000   1.0000
     1.0000   1.0000   1.0000   0.0000   0.0000

          k = 0.0833 0.1443 0.2054 (  2896 PWs)   bands (ev):

   -77.8246 -77.8012 -41.1564 -41.0295 -40.9831 -40.9648 -40.9485 -40.9371
    11.0947  13.1749  14.9769  15.3240  15.3863  15.8055  15.8665  16.0234
    16.7658  16.8389  17.2997  18.0248  29.5319

     occupation numbers 
     1.0000   1.0000   1.0000   1.0000   1.0000   1.0000   1.0000   1.0000
     1.0000   1.0000   1.0000   1.0000   1.0000   1.0000   1.0000   1.0000
     1.0000   1.0000   1.0000   1.0000   0.0000

          k = 0.0833 0.1443-0.3081 (  2896 PWs)   bands (ev):

   -77.8129 -77.8129 -41.0935 -41.0935 -40.9679 -40.9679 -40.9485 -40.9485
    12.1732  12.1732  15.0283  15.0283  15.5748  15.5748  15.8836  15.8836
    17.0625  17.0625  17.3380  17.3380  33.3616

     occupation numbers 
     1.0000   1.0000   1.0000   1.0000   1.0000   1.0000   1.0000   1.0000
     1.0000   1.0000   1.0000   1.0000   1.0000   1.0000   1.0000   1.0000
     1.0000   1.0000   1.0000   1.0000   0.0000

          k = 0.0833 0.2406 0.0000 (  2892 PWs)   bands (ev):

   -77.8264 -77.7854 -41.1951 -41.0439 -41.0170 -40.9802 -40.9533 -40.9363
    10.9742  13.9296  14.9780  15.0070  15.7122  15.8321  16.2370  16.2376
    16.4347  16.7050  17.4910  21.8007  24.7394

     occupation numbers 
     1.0000   1.0000   1.0000   1.0000   1.0000   1.0000   1.0000   1.0000
     1.0000   1.0000   1.0000   1.0000   1.0000   1.0000   1.0000   1.0000
     1.0000   1.0000   1.0000   0.0000   0.0000

          k = 0.0833 0.2406 0.1027 (  2891 PWs)   bands (ev):

   -77.8236 -77.7882 -41.1841 -41.0377 -41.0257 -40.9848 -40.9540 -40.9398
    11.2064  13.9599  14.8019  15.0261  15.5946  15.8534  16.0573  16.3633
    16.6197  16.6853  17.4547  20.3670  26.7493

     occupation numbers 
     1.0000   1.0000   1.0000   1.0000   1.0000   1.0000   1.0000   1.0000
     1.0000   1.0000   1.0000   1.0000   1.0000   1.0000   1.0000   1.0000
     1.0000   1.0000   1.0000   0.0000   0.0000

          k = 0.0833 0.2406 0.2054 (  2901 PWs)   bands (ev):

   -77.8161 -77.7957 -41.1532 -41.0627 -41.0160 -40.9835 -40.9618 -40.9493
    11.8630  13.6880  14.6144  15.1281  15.3372  15.7496  16.0125  16.3330
    16.8547  16.9641  17.3383  18.7044  30.1356

     occupation numbers 
     1.0000   1.0000   1.0000   1.0000   1.0000   1.0000   1.0000   1.0000
     1.0000   1.0000   1.0000   1.0000   1.0000   1.0000   1.0000   1.0000
     1.0000   1.0000   1.0000   0.0000   0.0000

          k = 0.0833 0.2406-0.3081 (  2916 PWs)   bands (ev):

   -77.8059 -77.8059 -41.1092 -41.1092 -40.9931 -40.9931 -40.9612 -40.9612
    12.7999  12.7999  14.8763  14.8763  15.4732  15.4732  16.1551  16.1551
    17.1067  17.1067  17.6306  17.6306  33.7328

     occupation numbers 
     1.0000   1.0000   1.0000   1.0000   1.0000   1.0000   1.0000   1.0000
     1.0000   1.0000   1.0000   1.0000   1.0000   1.0000   1.0000   1.0000
     1.0000   1.0000   1.0000   1.0000   0.0000

          k = 0.0833 0.3368 0.0000 (  2904 PWs)   bands (ev):

   -77.8143 -77.7813 -41.1643 -41.0984 -41.0640 -41.0044 -40.9697 -40.9487
    12.1104  14.0526  14.4498  14.9096  15.6487  15.7181  16.0439  16.6343
    16.9245  17.2562  17.5269  23.6088  25.0994

     occupation numbers 
     1.0000   1.0000   1.0000   1.0000   1.0000   1.0000   1.0000   1.0000
     1.0000   1.0000   1.0000   1.0000   1.0000   1.0000   1.0000   1.0000
     1.0000   1.0000   1.0000   0.0000   0.0000

          k = 0.0833 0.3368 0.1027 (  2897 PWs)   bands (ev):

   -77.8121 -77.7836 -41.1666 -41.0873 -41.0696 -41.0045 -40.9696 -40.9520
    12.2741  14.1143  14.3595  14.9555  15.5106  15.8709  16.0217  16.6591
    17.0102  17.1216  17.5371  21.6143  27.4891

     occupation numbers 
     1.0000   1.0000   1.0000   1.0000   1.0000   1.0000   1.0000   1.0000
     1.0000   1.0000   1.0000   1.0000   1.0000   1.0000   1.0000   1.0000
     1.0000   1.0000   1.0000   0.0000   0.0000

          k = 0.0833 0.3368 0.2054 (  2903 PWs)   bands (ev):

   -77.8061 -77.7896 -41.1612 -41.1093 -41.0420 -40.9996 -40.9764 -40.9613
    12.7171  13.8720  14.4660  15.0243  15.4278  15.8917  16.0799  16.6504
    17.0754  17.2344  17.5072  19.5512  29.7866

     occupation numbers 
     1.0000   1.0000   1.0000   1.0000   1.0000   1.0000   1.0000   1.0000
     1.0000   1.0000   1.0000   1.0000   1.0000   1.0000   1.0000   1.0000
     1.0000   1.0000   1.0000   0.0000   0.0000

          k = 0.0833 0.3368-0.3081 (  2910 PWs)   bands (ev):

   -77.7978 -77.7978 -41.1404 -41.1404 -41.0098 -41.0098 -40.9747 -40.9747
    13.3075  13.3075  14.7974  14.7974  15.6425  15.6425  16.3419  16.3419
    17.3031  17.3031  18.0837  18.0837  30.9677

     occupation numbers 
     1.0000   1.0000   1.0000   1.0000   1.0000   1.0000   1.0000   1.0000
     1.0000   1.0000   1.0000   1.0000   1.0000   1.0000   1.0000   1.0000
     1.0000   1.0000   1.0000   1.0000   0.0000

          k = 0.0833 0.4330 0.0000 (  2907 PWs)   bands (ev):

   -77.8029 -77.7788 -41.1467 -41.1315 -41.1051 -41.0236 -40.9898 -40.9594
    13.1199  13.8840  14.0740  15.1302  15.5319  15.8505  15.9050  17.1334
    17.3419  17.5488  18.0354  24.4602  25.5766

     occupation numbers 
     1.0000   1.0000   1.0000   1.0000   1.0000   1.0000   1.0000   1.0000
     1.0000   1.0000   1.0000   1.0000   1.0000   1.0000   1.0000   1.0000
     1.0000   1.0000   1.0000   0.0000   0.0000

          k = 0.0833 0.4330 0.1027 (  2904 PWs)   bands (ev):

   -77.8012 -77.7804 -41.1712 -41.1237 -41.0907 -41.0207 -40.9873 -40.9625
    13.1178  13.9054  14.2191  14.8946  15.6085  15.9269  16.1898  17.0832
    17.3745  17.4004  18.0351  22.6886  26.1927

     occupation numbers 
     1.0000   1.0000   1.0000   1.0000   1.0000   1.0000   1.0000   1.0000
     1.0000   1.0000   1.0000   1.0000   1.0000   1.0000   1.0000   1.0000
     1.0000   1.0000   1.0000   0.0000   0.0000

          k = 0.0833 0.4330 0.2054 (  2902 PWs)   bands (ev):

   -77.7969 -77.7848 -41.1839 -41.1511 -41.0493 -41.0107 -40.9906 -40.9705
    13.2051  13.7749  14.4020  14.8636  15.7142  16.1295  16.5682  16.8328
    17.2520  17.5524  18.1019  20.5685  26.8973

     occupation numbers 
     1.0000   1.0000   1.0000   1.0000   1.0000   1.0000   1.0000   1.0000
     1.0000   1.0000   1.0000   1.0000   1.0000   1.0000   1.0000   1.0000
     1.0000   1.0000   1.0000   0.0000   0.0000

          k = 0.0833 0.4330-0.3081 (  2900 PWs)   bands (ev):

   -77.7908 -77.7908 -41.1756 -41.1756 -41.0178 -41.0178 -40.9846 -40.9846
    13.4480  13.4480  14.6833  14.6833  16.1415  16.1415  16.5169  16.5169
    17.5039  17.5039  18.9232  18.9232  27.9302

     occupation numbers 
     1.0000   1.0000   1.0000   1.0000   1.0000   1.0000   1.0000   1.0000
     1.0000   1.0000   1.0000   1.0000   1.0000   1.0000   1.0000   1.0000
     1.0000   1.0000   0.0000   0.0000   0.0000

          k = 0.0833 0.5292 0.0000 (  2912 PWs)   bands (ev):

   -77.7952 -77.7784 -41.1748 -41.1289 -41.1067 -41.0342 -41.0074 -40.9656
    13.5787  13.7230  13.8864  15.4853  15.4891  15.7191  16.0568  17.4925
    17.5583  17.5646  19.2932  22.1927  27.4582

     occupation numbers 
     1.0000   1.0000   1.0000   1.0000   1.0000   1.0000   1.0000   1.0000
     1.0000   1.0000   1.0000   1.0000   1.0000   1.0000   1.0000   1.0000
     1.0000   1.0000   0.0000   0.0000   0.0000

          k = 0.0833 0.5292 0.1027 (  2907 PWs)   bands (ev):

   -77.7941 -77.7795 -41.1893 -41.1449 -41.0835 -41.0284 -41.0026 -40.9687
    13.3711  13.7390  14.3027  14.8386  15.5382  16.1122  16.4489  17.3450
    17.5159  17.5941  19.2316  21.9414  26.1901

     occupation numbers 
     1.0000   1.0000   1.0000   1.0000   1.0000   1.0000   1.0000   1.0000
     1.0000   1.0000   1.0000   1.0000   1.0000   1.0000   1.0000   1.0000
     1.0000   1.0000   0.0000   0.0000   0.0000

          k = 0.0833 0.5292 0.2054 (  2909 PWs)   bands (ev):

   -77.7910 -77.7826 -41.2030 -41.1750 -41.0485 -41.0122 -41.0028 -40.9758
    13.2853  13.7111  14.4297  14.7301  15.7073  16.4272  16.8245  17.0770
    17.4764  17.6628  19.2832  21.1088  25.4608

     occupation numbers 
     1.0000   1.0000   1.0000   1.0000   1.0000   1.0000   1.0000   1.0000
     1.0000   1.0000   1.0000   1.0000   1.0000   1.0000   1.0000   1.0000
     1.0000   1.0000   0.0000   0.0000   0.0000

          k = 0.0833 0.5292-0.3081 (  2902 PWs)   bands (ev):

   -77.7868 -77.7868 -41.1980 -41.1980 -41.0217 -41.0217 -40.9889 -40.9889
    13.4392  13.4392  14.6011  14.6011  16.2384  16.2384  16.9405  16.9405
    17.5438  17.5438  20.0085  20.0085  25.7344

     occupation numbers 
     1.0000   1.0000   1.0000   1.0000   1.0000   1.0000   1.0000   1.0000
     1.0000   1.0000   1.0000   1.0000   1.0000   1.0000   1.0000   1.0000
     1.0000   1.0000   0.0000   0.0000   0.0000

          k = 0.1667 0.2887 0.0000 (  2902 PWs)   bands (ev):

   -77.8160 -77.7818 -41.1688 -41.0764 -41.0676 -40.9969 -40.9671 -40.9562
    11.9649  14.2252  14.5606  14.6929  15.5782  15.7198  16.1380  16.3999
    16.9122  17.2780  17.4888  23.3536  25.1337

     occupation numbers 
     1.0000   1.0000   1.0000   1.0000   1.0000   1.0000   1.0000   1.0000
     1.0000   1.0000   1.0000   1.0000   1.0000   1.0000   1.0000   1.0000
     1.0000   1.0000   1.0000   0.0000   0.0000

          k = 0.1667 0.2887 0.1027 (  2904 PWs)   bands (ev):

   -77.8137 -77.7841 -41.1670 -41.0750 -41.0631 -41.0050 -40.9631 -40.9600
    12.1496  14.3178  14.4208  14.7440  15.5461  15.7298  16.0232  16.4842
    17.0252  17.1119  17.5501  21.4770  27.4782

     occupation numbers 
     1.0000   1.0000   1.0000   1.0000   1.0000   1.0000   1.0000   1.0000
     1.0000   1.0000   1.0000   1.0000   1.0000   1.0000   1.0000   1.0000
     1.0000   1.0000   1.0000   0.0000   0.0000

          k = 0.1667 0.2887 0.2054 (  2904 PWs)   bands (ev):

   -77.8075 -77.7904 -41.1560 -41.0999 -41.0341 -41.0084 -40.9690 -40.9660
    12.6560  13.9888  14.5696  14.8915  15.3729  15.5986  16.0226  16.5900
    17.0834  17.2178  17.5816  19.4743  30.8109

     occupation numbers 
     1.0000   1.0000   1.0000   1.0000   1.0000   1.0000   1.0000   1.0000
     1.0000   1.0000   1.0000   1.0000   1.0000   1.0000   1.0000   1.0000
     1.0000   1.0000   1.0000   0.0000   0.0000

          k = 0.1667 0.2887-0.3081 (  2912 PWs)   bands (ev):

   -77.7989 -77.7989 -41.1317 -41.1317 -41.0107 -41.0107 -40.9744 -40.9744
    13.3390  13.3390  14.8820  14.8820  15.3245  15.3245  16.2926  16.2926
    17.3512  17.3512  18.0638  18.0638  32.6898

     occupation numbers 
     1.0000   1.0000   1.0000   1.0000   1.0000   1.0000   1.0000   1.0000
     1.0000   1.0000   1.0000   1.0000   1.0000   1.0000   1.0000   1.0000
     1.0000   1.0000   1.0000   1.0000   0.0000

          k = 0.1667 0.3849 0.0000 (  2910 PWs)   bands (ev):

   -77.8048 -77.7791 -41.1373 -41.1192 -41.0992 -41.0228 -40.9860 -40.9754
    13.0549  14.2122  14.2136  14.6661  15.4248  15.8583  15.9487  16.7036
    17.3404  17.4833  18.0631  25.1852  25.5364

     occupation numbers 
     1.0000   1.0000   1.0000   1.0000   1.0000   1.0000   1.0000   1.0000
     1.0000   1.0000   1.0000   1.0000   1.0000   1.0000   1.0000   1.0000
     1.0000   1.0000   1.0000   0.0000   0.0000

          k = 0.1667 0.3849 0.1027 (  2906 PWs)   bands (ev):

   -77.8030 -77.7808 -41.1571 -41.1160 -41.0798 -41.0295 -40.9836 -40.9740
    13.1347  14.1452  14.3104  14.7446  15.4752  15.8431  15.9064  16.7375
    17.2780  17.4253  18.1458  22.7584  27.6317

     occupation numbers 
     1.0000   1.0000   1.0000   1.0000   1.0000   1.0000   1.0000   1.0000
     1.0000   1.0000   1.0000   1.0000   1.0000   1.0000   1.0000   1.0000
     1.0000   1.0000   1.0000   0.0000   0.0000

          k = 0.1667 0.3849 0.2054 (  2896 PWs)   bands (ev):

   -77.7983 -77.7855 -41.1675 -41.1365 -41.0459 -41.0283 -40.9893 -40.9723
    13.3505  13.9466  14.5485  14.9672  15.3975  15.6853  16.0404  16.7080
    17.1880  17.5697  18.3248  20.5806  28.5961

     occupation numbers 
     1.0000   1.0000   1.0000   1.0000   1.0000   1.0000   1.0000   1.0000
     1.0000   1.0000   1.0000   1.0000   1.0000   1.0000   1.0000   1.0000
     1.0000   1.0000   0.0000   0.0000   0.0000

          k = 0.1667 0.3849-0.3081 (  2894 PWs)   bands (ev):

   -77.7919 -77.7919 -41.1588 -41.1588 -41.0281 -41.0281 -40.9830 -40.9830
    13.6476  13.6476  14.8780  14.8780  15.4768  15.4768  16.3065  16.3065
    17.5547  17.5547  19.0095  19.0095  29.7358

     occupation numbers 
     1.0000   1.0000   1.0000   1.0000   1.0000   1.0000   1.0000   1.0000
     1.0000   1.0000   1.0000   1.0000   1.0000   1.0000   1.0000   1.0000
     1.0000   1.0000   0.0000   0.0000   0.0000

          k = 0.1667 0.4811 0.0000 (  2915 PWs)   bands (ev):

   -77.7953 -77.7783 -41.1534 -41.1149 -41.1070 -41.0471 -41.0071 -40.9885
    13.7514  13.9980  14.0181  14.9658  15.3841  15.7412  16.0543  17.1067
    17.4785  17.5500  19.2195  23.8387  27.1734

     occupation numbers 
     1.0000   1.0000   1.0000   1.0000   1.0000   1.0000   1.0000   1.0000
     1.0000   1.0000   1.0000   1.0000   1.0000   1.0000   1.0000   1.0000
     1.0000   1.0000   0.0000   0.0000   0.0000

          k = 0.1667 0.4811 0.1027 (  2912 PWs)   bands (ev):

   -77.7941 -77.7795 -41.1685 -41.1336 -41.0824 -41.0437 -41.0049 -40.9848
    13.6029  14.0775  14.2510  14.7854  15.4342  15.8769  16.1255  17.0915
    17.2918  17.6091  19.3011  23.2940  25.9967

     occupation numbers 
     1.0000   1.0000   1.0000   1.0000   1.0000   1.0000   1.0000   1.0000
     1.0000   1.0000   1.0000   1.0000   1.0000   1.0000   1.0000   1.0000
     1.0000   1.0000   0.0000   0.0000   0.0000

          k = 0.1667 0.4811 0.2054 (  2910 PWs)   bands (ev):

   -77.7910 -77.7826 -41.1834 -41.1599 -41.0614 -41.0305 -41.0041 -40.9784
    13.5651  13.9951  14.4466  14.9729  15.3331  16.0022  16.3417  16.7910
    17.2743  17.6817  19.6099  21.7928  26.0762

     occupation numbers 
     1.0000   1.0000   1.0000   1.0000   1.0000   1.0000   1.0000   1.0000
     1.0000   1.0000   1.0000   1.0000   1.0000   1.0000   1.0000   1.0000
     1.0000   1.0000   0.0000   0.0000   0.0000

          k = 0.1667 0.4811-0.3081 (  2902 PWs)   bands (ev):

   -77.7868 -77.7868 -41.1802 -41.1802 -41.0426 -41.0426 -40.9859 -40.9859
    13.7184  13.7184  14.7794  14.7794  15.7321  15.7321  16.4908  16.4908
    17.5595  17.5595  20.4071  20.4071  26.9487

     occupation numbers 
     1.0000   1.0000   1.0000   1.0000   1.0000   1.0000   1.0000   1.0000
     1.0000   1.0000   1.0000   1.0000   1.0000   1.0000   1.0000   1.0000
     1.0000   1.0000   0.0000   0.0000   0.0000

          k = 0.1667 0.5774 0.0000 (  2920 PWs)   bands (ev):

   -77.7911 -77.7788 -41.1658 -41.1196 -41.0916 -41.0572 -41.0191 -40.9931
    13.9234  13.9247  13.9263  15.1813  15.4052  15.6298  16.1382  17.3804
    17.4764  17.5244  20.4751  22.0059  28.3901

     occupation numbers 
     1.0000   1.0000   1.0000   1.0000   1.0000   1.0000   1.0000   1.0000
     1.0000   1.0000   1.0000   1.0000   1.0000   1.0000   1.0000   1.0000
     1.0000   1.0000   0.0000   0.0000   0.0000

          k = 0.1667 0.5774 0.1027 (  2920 PWs)   bands (ev):

   -77.7903 -77.7796 -41.1775 -41.1367 -41.0845 -41.0404 -41.0180 -40.9893
    13.6303  13.9955  14.4132  14.7650  15.3580  15.9964  16.2143  17.2642
    17.3769  17.5740  20.5737  21.9604  27.2891

     occupation numbers 
     1.0000   1.0000   1.0000   1.0000   1.0000   1.0000   1.0000   1.0000
     1.0000   1.0000   1.0000   1.0000   1.0000   1.0000   1.0000   1.0000
     1.0000   1.0000   0.0000   0.0000   0.0000

          k = 0.1667 0.5774 0.2054 (  2910 PWs)   bands (ev):

   -77.7880 -77.7818 -41.1911 -41.1672 -41.0686 -41.0289 -41.0091 -40.9813
    13.5646  14.0087  14.4823  14.9299  15.2520  16.1978  16.4612  16.8593
    17.3921  17.6112  20.8785  21.7741  26.0103

     occupation numbers 
     1.0000   1.0000   1.0000   1.0000   1.0000   1.0000   1.0000   1.0000
     1.0000   1.0000   1.0000   1.0000   1.0000   1.0000   1.0000   1.0000
     1.0000   1.0000   0.0000   0.0000   0.0000

          k = 0.1667 0.5774-0.3081 (  2922 PWs)   bands (ev):

   -77.7849 -77.7849 -41.1883 -41.1883 -41.0482 -41.0482 -40.9864 -40.9864
    13.7225  13.7225  14.7402  14.7402  15.7694  15.7694  16.6915  16.6915
    17.4995  17.4995  21.3622  21.3622  25.5267

     occupation numbers 
     1.0000   1.0000   1.0000   1.0000   1.0000   1.0000   1.0000   1.0000
     1.0000   1.0000   1.0000   1.0000   1.0000   1.0000   1.0000   1.0000
     1.0000   1.0000   0.0000   0.0000   0.0000

          k = 0.2500 0.4330 0.0000 (  2916 PWs)   bands (ev):

   -77.7953 -77.7783 -41.1348 -41.1155 -41.1072 -41.0482 -41.0070 -41.0056
    13.8787  14.0624  14.4054  14.4515  15.3165  15.7602  16.0626  16.8787
    17.4373  17.5542  19.2276  25.5764  26.3479

     occupation numbers 
     1.0000   1.0000   1.0000   1.0000   1.0000   1.0000   1.0000   1.0000
     1.0000   1.0000   1.0000   1.0000   1.0000   1.0000   1.0000   1.0000
     1.0000   1.0000   0.0000   0.0000   0.0000

          k = 0.2500 0.4330 0.1027 (  2910 PWs)   bands (ev):

   -77.7942 -77.7794 -41.1483 -41.1389 -41.0692 -41.0614 -41.0082 -40.9921
    13.8839  14.0151  14.4624  14.5801  15.4646  15.6196  16.0574  16.9143
    17.2397  17.6162  19.3493  24.0577  26.6260

     occupation numbers 
     1.0000   1.0000   1.0000   1.0000   1.0000   1.0000   1.0000   1.0000
     1.0000   1.0000   1.0000   1.0000   1.0000   1.0000   1.0000   1.0000
     1.0000   1.0000   0.0000   0.0000   0.0000

          k = 0.2500 0.4330 0.2054 (  2907 PWs)   bands (ev):

   -77.7911 -77.7825 -41.1688 -41.1542 -41.0657 -41.0459 -41.0038 -40.9795
    13.8876  13.9607  14.6215  14.9522  15.3055  15.5752  16.0912  16.7052
    17.2432  17.6889  19.7200  22.0596  27.3963

     occupation numbers 
     1.0000   1.0000   1.0000   1.0000   1.0000   1.0000   1.0000   1.0000
     1.0000   1.0000   1.0000   1.0000   1.0000   1.0000   1.0000   1.0000
     1.0000   1.0000   0.0000   0.0000   0.0000

          k = 0.2500 0.4330-0.3081 (  2892 PWs)   bands (ev):

   -77.7868 -77.7868 -41.1693 -41.1693 -41.0545 -41.0545 -40.9851 -40.9851
    13.9146  13.9146  14.9294  14.9294  15.3675  15.3675  16.2930  16.2930
    17.5784  17.5784  20.5565  20.5565  28.4073

     occupation numbers 
     1.0000   1.0000   1.0000   1.0000   1.0000   1.0000   1.0000   1.0000
     1.0000   1.0000   1.0000   1.0000   1.0000   1.0000   1.0000   1.0000
     1.0000   1.0000   0.0000   0.0000   0.0000

          k = 0.2500 0.5292 0.0000 (  2916 PWs)   bands (ev):

   -77.7882 -77.7795 -41.1467 -41.1073 -41.0802 -41.0758 -41.0286 -41.0249
    13.9934  14.1724  14.2726  14.7558  15.3338  15.5635  16.2258  17.1499
    17.4103  17.4938  20.8662  23.3932  25.7024

     occupation numbers 
     1.0000   1.0000   1.0000   1.0000   1.0000   1.0000   1.0000   1.0000
     1.0000   1.0000   1.0000   1.0000   1.0000   1.0000   1.0000   1.0000
     1.0000   1.0000   0.0000   0.0000   0.0000

          k = 0.2500 0.5292 0.1027 (  2917 PWs)   bands (ev):

   -77.7876 -77.7800 -41.1534 -41.1296 -41.0943 -41.0495 -41.0302 -41.0062
    13.9358  14.2976  14.3915  14.6535  15.3614  15.5691  16.2332  17.1540
    17.2185  17.5367  21.0498  23.4150  25.7406

     occupation numbers 
     1.0000   1.0000   1.0000   1.0000   1.0000   1.0000   1.0000   1.0000
     1.0000   1.0000   1.0000   1.0000   1.0000   1.0000   1.0000   1.0000
     1.0000   1.0000   0.0000   0.0000   0.0000

          k = 0.2500 0.5292 0.2054 (  2917 PWs)   bands (ev):

   -77.7860 -77.7816 -41.1691 -41.1556 -41.0925 -41.0551 -41.0043 -40.9863
    13.9507  14.2934  14.5483  14.8339  15.2316  15.5917  16.2798  16.7305
    17.3125  17.5768  21.5396  23.1314  25.6529

     occupation numbers 
     1.0000   1.0000   1.0000   1.0000   1.0000   1.0000   1.0000   1.0000
     1.0000   1.0000   1.0000   1.0000   1.0000   1.0000   1.0000   1.0000
     1.0000   1.0000   0.0000   0.0000   0.0000

          k = 0.2500 0.5292-0.3081 (  2910 PWs)   bands (ev):

   -77.7838 -77.7838 -41.1717 -41.1717 -41.0749 -41.0749 -40.9849 -40.9849
    14.0834  14.0834  14.8293  14.8293  15.3733  15.3733  16.4045  16.4045
    17.4914  17.4914  22.3006  22.3006  26.1865

     occupation numbers 
     1.0000   1.0000   1.0000   1.0000   1.0000   1.0000   1.0000   1.0000
     1.0000   1.0000   1.0000   1.0000   1.0000   1.0000   1.0000   1.0000
     1.0000   1.0000   0.0000   0.0000   0.0000

          k = 0.3333 0.5774 0.0000 (  2910 PWs)   bands (ev):

   -77.7828 -77.7828 -41.1378 -41.0938 -41.0938 -41.0534 -41.0534 -41.0477
    14.0033  14.3658  14.3658  14.6437  15.4018  15.4018  16.3221  17.2927
    17.2927  17.3831  22.6007  23.3872  23.3872

     occupation numbers 
     1.0000   1.0000   1.0000   1.0000   1.0000   1.0000   1.0000   1.0000
     1.0000   1.0000   1.0000   1.0000   1.0000   1.0000   1.0000   1.0000
     1.0000   1.0000   0.0000   0.0000   0.0000

          k = 0.3333 0.5774 0.1027 (  2922 PWs)   bands (ev):

   -77.7828 -77.7828 -41.1319 -41.1215 -41.1215 -41.0537 -41.0257 -41.0257
    14.0949  14.3860  14.3860  14.6619  15.3791  15.3791  16.2956  17.1591
    17.3327  17.3327  22.9905  23.4628  23.4628

     occupation numbers 
     1.0000   1.0000   1.0000   1.0000   1.0000   1.0000   1.0000   1.0000
     1.0000   1.0000   1.0000   1.0000   1.0000   1.0000   1.0000   1.0000
     1.0000   1.0000   0.0000   0.0000   0.0000

          k = 0.3333 0.5774 0.2054 (  2916 PWs)   bands (ev):

   -77.7828 -77.7828 -41.1513 -41.1513 -41.1154 -41.0703 -40.9956 -40.9956
    14.3294  14.4243  14.4243  14.6747  15.3401  15.3401  16.2606  16.6996
    17.4090  17.4090  23.6513  23.6513  23.9930

     occupation numbers 
     1.0000   1.0000   1.0000   1.0000   1.0000   1.0000   1.0000   1.0000
     1.0000   1.0000   1.0000   1.0000   1.0000   1.0000   1.0000   1.0000
     1.0000   1.0000   0.0000   0.0000   0.0000

          k = 0.3333 0.5774-0.3081 (  2910 PWs)   bands (ev):

   -77.7828 -77.7828 -41.1625 -41.1625 -41.0929 -41.0929 -40.9843 -40.9843
    14.4423  14.4423  14.5731  14.5731  15.3239  15.3239  16.3537  16.3537
    17.4455  17.4455  23.7739  23.7739  25.3786

     occupation numbers 
     1.0000   1.0000   1.0000   1.0000   1.0000   1.0000   1.0000   1.0000
     1.0000   1.0000   1.0000   1.0000   1.0000   1.0000   1.0000   1.0000
     1.0000   1.0000   0.0000   0.0000   0.0000

 ------ SPIN DOWN ----------


          k = 0.0000 0.0000 0.0000 (  2875 PWs)   bands (ev):

   -75.6978 -75.6423 -39.1567 -38.8717 -38.8717 -38.8243 -38.8243 -38.8240
     9.3902  14.1431  17.3395  17.3952  17.3952  17.7512  17.7512  17.9605
    18.1855  18.1855  19.3741  19.3741  25.4420

     occupation numbers 
     1.0000   1.0000   1.0000   1.0000   1.0000   1.0000   1.0000   1.0000
     1.0000   1.0000   1.0000   1.0000   1.0000   1.0000   1.0000   1.0000
     1.0000   1.0000   0.0000   0.0000   0.0000

          k = 0.0000 0.0000 0.1027 (  2887 PWs)   bands (ev):

   -75.6941 -75.6461 -39.1347 -38.8685 -38.8685 -38.8467 -38.8274 -38.8274
     9.6639  13.8994  17.2495  17.3318  17.3318  17.3946  17.6704  17.6704
    18.3569  18.3569  19.3578  19.3578  26.7438

     occupation numbers 
     1.0000   1.0000   1.0000   1.0000   1.0000   1.0000   1.0000   1.0000
     1.0000   1.0000   1.0000   1.0000   1.0000   1.0000   1.0000   1.0000
     0.0000   0.0000   0.0000   0.0000   0.0000

          k = 0.0000 0.0000 0.2054 (  2894 PWs)   bands (ev):

   -75.6839 -75.6562 -39.0745 -38.9082 -38.8598 -38.8598 -38.8361 -38.8361
    10.4561  12.9948  16.7952  17.0207  17.2774  17.2774  17.4928  17.4928
    18.7041  18.7041  19.2643  19.2643  29.6888

     occupation numbers 
     1.0000   1.0000   1.0000   1.0000   1.0000   1.0000   1.0000   1.0000
     1.0000   1.0000   1.0000   1.0000   1.0000   1.0000   1.0000   1.0000
     0.0000   0.0000   0.0000   0.0000   0.0000

          k = 0.0000 0.0000-0.3081 (  2894 PWs)   bands (ev):

   -75.6701 -75.6701 -38.9916 -38.9916 -38.8480 -38.8480 -38.8480 -38.8480
    11.6600  11.6600  16.7828  16.7828  17.3352  17.3352  17.3352  17.3352
    19.0395  19.0395  19.0395  19.0395  33.3100

     occupation numbers 
     1.0000   1.0000   1.0000   1.0000   1.0000   1.0000   1.0000   1.0000
     1.0000   1.0000   1.0000   1.0000   1.0000   1.0000   1.0000   1.0000
     0.0000   0.0000   0.0000   0.0000   0.0000

          k = 0.0000 0.0962 0.0000 (  2869 PWs)   bands (ev):

   -75.6946 -75.6408 -39.1494 -38.8878 -38.8769 -38.8410 -38.8270 -38.8269
     9.6303  14.3079  17.1074  17.3757  17.5181  17.5720  17.6868  17.8603
    18.1040  18.1132  19.4088  20.1790  25.4591

     occupation numbers 
     1.0000   1.0000   1.0000   1.0000   1.0000   1.0000   1.0000   1.0000
     1.0000   1.0000   1.0000   1.0000   1.0000   1.0000   1.0000   1.0000
     1.0000   1.0000   0.0000   0.0000   0.0000

          k = 0.0000 0.0962 0.1027 (  2889 PWs)   bands (ev):

   -75.6910 -75.6445 -39.1287 -38.8841 -38.8736 -38.8589 -38.8341 -38.8303
     9.9004  14.0770  16.9629  17.1053  17.3818  17.4389  17.6967  17.7721
    18.3035  18.3176  19.3838  19.8457  26.8271

     occupation numbers 
     1.0000   1.0000   1.0000   1.0000   1.0000   1.0000   1.0000   1.0000
     1.0000   1.0000   1.0000   1.0000   1.0000   1.0000   1.0000   1.0000
     0.0001   0.0000   0.0000   0.0000   0.0000

          k = 0.0000 0.0962 0.2054 (  2888 PWs)   bands (ev):

   -75.6812 -75.6543 -39.0719 -38.9156 -38.8738 -38.8644 -38.8456 -38.8394
    10.6822  13.1885  16.5853  17.0112  17.1721  17.3761  17.5132  17.5929
    18.6727  18.7066  19.2706  19.4505  29.8261

     occupation numbers 
     1.0000   1.0000   1.0000   1.0000   1.0000   1.0000   1.0000   1.0000
     1.0000   1.0000   1.0000   1.0000   1.0000   1.0000   1.0000   1.0000
     0.0000   0.0000   0.0000   0.0000   0.0000

          k = 0.0000 0.0962-0.3081 (  2882 PWs)   bands (ev):

   -75.6678 -75.6678 -38.9939 -38.9939 -38.8598 -38.8598 -38.8519 -38.8519
    11.8701  11.8701  16.6931  16.6931  17.2980  17.2980  17.4341  17.4341
    19.0254  19.0254  19.1002  19.1002  33.4708

     occupation numbers 
     1.0000   1.0000   1.0000   1.0000   1.0000   1.0000   1.0000   1.0000
     1.0000   1.0000   1.0000   1.0000   1.0000   1.0000   1.0000   1.0000
     0.0000   0.0000   0.0000   0.0000   0.0000

          k = 0.0000 0.1925 0.0000 (  2886 PWs)   bands (ev):

   -75.6858 -75.6369 -39.1286 -38.9321 -38.8909 -38.8863 -38.8359 -38.8346
    10.3296  14.7325  16.5732  16.7639  17.4594  17.8674  17.8942  17.9044
    17.9463  18.1668  19.4816  21.6035  25.5282

     occupation numbers 
     1.0000   1.0000   1.0000   1.0000   1.0000   1.0000   1.0000   1.0000
     1.0000   1.0000   1.0000   1.0000   1.0000   1.0000   1.0000   1.0000
     1.0000   1.0000   0.0000   0.0000   0.0000

          k = 0.0000 0.1925 0.1027 (  2892 PWs)   bands (ev):

   -75.6825 -75.6402 -39.1122 -38.9265 -38.9007 -38.8871 -38.8438 -38.8384
    10.5873  14.5443  16.3281  16.8032  17.3502  17.6371  17.6825  18.0334
    18.2628  18.3132  19.4372  20.8293  27.1076

     occupation numbers 
     1.0000   1.0000   1.0000   1.0000   1.0000   1.0000   1.0000   1.0000
     1.0000   1.0000   1.0000   1.0000   1.0000   1.0000   1.0000   1.0000
     0.6473   0.0000   0.0000   0.0000   0.0000

          k = 0.0000 0.1925 0.2054 (  2902 PWs)   bands (ev):

   -75.6736 -75.6492 -39.0671 -38.9452 -38.9088 -38.8768 -38.8630 -38.8487
    11.3317  13.7108  16.2166  16.8904  16.9910  17.4533  17.6211  17.8705
    18.6332  18.7579  19.2825  19.9044  30.2403

     occupation numbers 
     1.0000   1.0000   1.0000   1.0000   1.0000   1.0000   1.0000   1.0000
     1.0000   1.0000   1.0000   1.0000   1.0000   1.0000   1.0000   1.0000
     0.0000   0.0000   0.0000   0.0000   0.0000

          k = 0.0000 0.1925-0.3081 (  2896 PWs)   bands (ev):

   -75.6614 -75.6614 -39.0057 -39.0057 -38.8866 -38.8866 -38.8628 -38.8628
    12.4590  12.4590  16.5018  16.5018  17.1814  17.1814  17.6994  17.6994
    19.0020  19.0020  19.2712  19.2712  33.9134

     occupation numbers 
     1.0000   1.0000   1.0000   1.0000   1.0000   1.0000   1.0000   1.0000
     1.0000   1.0000   1.0000   1.0000   1.0000   1.0000   1.0000   1.0000
     0.0000   0.0000   0.0000   0.0000   0.0000

          k = 0.0000 0.2887 0.0000 (  2894 PWs)   bands (ev):

   -75.6733 -75.6320 -39.0976 -38.9931 -38.9471 -38.9095 -38.8508 -38.8455
    11.4154  15.1550  15.9286  16.4543  17.2998  17.6661  17.7236  18.3280
    18.3801  18.6095  19.5490  23.2607  25.6764

     occupation numbers 
     1.0000   1.0000   1.0000   1.0000   1.0000   1.0000   1.0000   1.0000
     1.0000   1.0000   1.0000   1.0000   1.0000   1.0000   1.0000   0.0000
     0.0000   0.0000   0.0000   0.0000   0.0000

          k = 0.0000 0.2887 0.1027 (  2902 PWs)   bands (ev):

   -75.6705 -75.6348 -39.0914 -38.9819 -38.9592 -38.9052 -38.8562 -38.8498
    11.6446  15.0362  15.8105  16.5150  17.1672  17.6504  17.7003  18.4235
    18.4959  18.5725  19.4862  21.9175  27.6377

     occupation numbers 
     1.0000   1.0000   1.0000   1.0000   1.0000   1.0000   1.0000   1.0000
     1.0000   1.0000   1.0000   1.0000   1.0000   1.0000   1.0000   0.0000
     0.0000   0.0000   0.0000   0.0000   0.0000

          k = 0.0000 0.2887 0.2054 (  2902 PWs)   bands (ev):

   -75.6630 -75.6424 -39.0712 -38.9982 -38.9447 -38.8935 -38.8749 -38.8615
    12.3002  14.3276  15.9353  16.5992  16.9461  17.4364  17.8176  18.2678
    18.7487  18.8942  19.3047  20.4615  30.8266

     occupation numbers 
     1.0000   1.0000   1.0000   1.0000   1.0000   1.0000   1.0000   1.0000
     1.0000   1.0000   1.0000   1.0000   1.0000   1.0000   1.0000   0.4450
     0.0000   0.0000   0.0000   0.0000   0.0000

[...]
    19.5219  19.5788  20.6758  23.1342  27.9697

     occupation numbers 
     1.0000   1.0000   1.0000   1.0000   1.0000   1.0000   1.0000   1.0000
     1.0000   1.0000   1.0000   1.0000   1.0000   1.0000   1.0000   0.0000
     0.0000   0.0000   0.0000   0.0000   0.0000

          k = 0.0833 0.5292 0.1027 (  2907 PWs)   bands (ev):

   -75.6431 -75.6273 -39.1205 -39.0729 -38.9906 -38.9457 -38.9017 -38.8802
    14.3288  14.9553  15.4880  16.0064  17.2281  17.7043  17.7510  19.3140
    19.4683  19.5605  20.5434  22.8056  26.9183

     occupation numbers 
     1.0000   1.0000   1.0000   1.0000   1.0000   1.0000   1.0000   1.0000
     1.0000   1.0000   1.0000   1.0000   1.0000   1.0000   1.0000   0.0000
     0.0000   0.0000   0.0000   0.0000   0.0000

          k = 0.0833 0.5292 0.2054 (  2909 PWs)   bands (ev):

   -75.6398 -75.6307 -39.1337 -39.1039 -38.9573 -38.9240 -38.9095 -38.8830
    14.3170  14.7912  15.7848  16.0900  17.2707  18.0136  18.2021  18.8633
    19.4204  19.6457  20.3347  21.8901  26.3761

     occupation numbers 
     1.0000   1.0000   1.0000   1.0000   1.0000   1.0000   1.0000   1.0000
     1.0000   1.0000   1.0000   1.0000   1.0000   1.0000   1.0000   0.0000
     0.0000   0.0000   0.0000   0.0000   0.0000

          k = 0.0833 0.5292-0.3081 (  2902 PWs)   bands (ev):

   -75.6352 -75.6352 -39.1281 -39.1281 -38.9312 -38.9312 -38.8963 -38.8963
    14.4945  14.4945  16.0444  16.0444  17.7561  17.7561  18.5143  18.5143
    19.5018  19.5018  20.8571  20.8571  26.6302

     occupation numbers 
     1.0000   1.0000   1.0000   1.0000   1.0000   1.0000   1.0000   1.0000
     1.0000   1.0000   1.0000   1.0000   1.0000   1.0000   0.0000   0.0000
     0.0000   0.0000   0.0000   0.0000   0.0000

          k = 0.1667 0.2887 0.0000 (  2902 PWs)   bands (ev):

   -75.6667 -75.6299 -39.0804 -38.9994 -38.9905 -38.9125 -38.8683 -38.8599
    12.0347  15.4445  15.7621  16.1292  17.2829  17.3338  17.8431  18.2045
    18.7558  19.1039  19.4982  24.1423  25.9008

     occupation numbers 
     1.0000   1.0000   1.0000   1.0000   1.0000   1.0000   1.0000   1.0000
     1.0000   1.0000   1.0000   1.0000   1.0000   1.0000   1.0000   1.0000
     0.0000   0.0000   0.0000   0.0000   0.0000

          k = 0.1667 0.2887 0.1027 (  2904 PWs)   bands (ev):

   -75.6643 -75.6324 -39.0811 -38.9971 -38.9823 -38.9184 -38.8723 -38.8598
    12.2459  15.3583  15.6760  16.1938  17.1918  17.3606  17.7370  18.2940
    18.8807  18.9849  19.5050  22.5109  28.0787

     occupation numbers 
     1.0000   1.0000   1.0000   1.0000   1.0000   1.0000   1.0000   1.0000
     1.0000   1.0000   1.0000   1.0000   1.0000   1.0000   1.0000   0.0021
     0.0000   0.0000   0.0000   0.0000   0.0000

          k = 0.1667 0.2887 0.2054 (  2904 PWs)   bands (ev):

   -75.6575 -75.6391 -39.0735 -39.0202 -38.9466 -38.9207 -38.8820 -38.8685
    12.8458  14.6661  15.9239  16.3583  16.9340  17.1998  17.7911  18.3745
    18.9831  19.1012  19.4571  20.8280  31.2951

     occupation numbers 
     1.0000   1.0000   1.0000   1.0000   1.0000   1.0000   1.0000   1.0000
     1.0000   1.0000   1.0000   1.0000   1.0000   1.0000   1.0000   0.0000
     0.0000   0.0000   0.0000   0.0000   0.0000

          k = 0.1667 0.2887-0.3081 (  2912 PWs)   bands (ev):

   -75.6483 -75.6483 -39.0509 -39.0509 -38.9203 -38.9203 -38.8846 -38.8846
    13.7226  13.7226  16.2936  16.2936  16.8932  16.8932  18.0887  18.0887
    19.2871  19.2871  19.6809  19.6809  33.1119

     occupation numbers 
     1.0000   1.0000   1.0000   1.0000   1.0000   1.0000   1.0000   1.0000
     1.0000   1.0000   1.0000   1.0000   1.0000   1.0000   1.0000   1.0000
     0.0000   0.0000   0.0000   0.0000   0.0000

          k = 0.1667 0.3849 0.0000 (  2910 PWs)   bands (ev):

   -75.6546 -75.6269 -39.0467 -39.0458 -39.0246 -38.9407 -38.8892 -38.8804
    13.2808  15.4745  15.5225  15.9382  17.0845  17.4654  17.6124  18.5404
    19.2489  19.4917  19.8095  25.8862  26.1581

     occupation numbers 
     1.0000   1.0000   1.0000   1.0000   1.0000   1.0000   1.0000   1.0000
     1.0000   1.0000   1.0000   1.0000   1.0000   1.0000   1.0000   0.0000
     0.0000   0.0000   0.0000   0.0000   0.0000

          k = 0.1667 0.3849 0.1027 (  2906 PWs)   bands (ev):

   -75.6527 -75.6288 -39.0770 -39.0413 -38.9946 -38.9455 -38.8947 -38.8742
    13.4303  15.3352  15.6236  16.0388  17.0562  17.4368  17.5667  18.5810
    19.2313  19.3486  19.9146  23.5902  28.2507

     occupation numbers 
     1.0000   1.0000   1.0000   1.0000   1.0000   1.0000   1.0000   1.0000
     1.0000   1.0000   1.0000   1.0000   1.0000   1.0000   1.0000   0.0000
     0.0000   0.0000   0.0000   0.0000   0.0000

          k = 0.1667 0.3849 0.2054 (  2896 PWs)   bands (ev):

   -75.6477 -75.6338 -39.0906 -39.0614 -38.9576 -38.9414 -38.9022 -38.8741
    13.8402  14.9501  15.9004  16.2478  16.9185  17.1616  17.7537  18.5502
    19.0884  19.5280  19.9941  21.6335  29.2000

     occupation numbers 
     1.0000   1.0000   1.0000   1.0000   1.0000   1.0000   1.0000   1.0000
     1.0000   1.0000   1.0000   1.0000   1.0000   1.0000   1.0000   0.0000
     0.0000   0.0000   0.0000   0.0000   0.0000

          k = 0.1667 0.3849-0.3081 (  2894 PWs)   bands (ev):

   -75.6408 -75.6408 -39.0831 -39.0831 -38.9408 -38.9408 -38.8897 -38.8897
    14.4000  14.4000  16.2339  16.2339  16.8922  16.8922  18.1116  18.1116
    19.5250  19.5250  20.3372  20.3372  30.2972

     occupation numbers 
     1.0000   1.0000   1.0000   1.0000   1.0000   1.0000   1.0000   1.0000
     1.0000   1.0000   1.0000   1.0000   1.0000   1.0000   1.0000   1.0000
     0.0000   0.0000   0.0000   0.0000   0.0000

          k = 0.1667 0.4811 0.0000 (  2915 PWs)   bands (ev):

   -75.6444 -75.6261 -39.0841 -39.0416 -39.0125 -38.9673 -38.9034 -38.9034
    14.3883  15.3072  15.3080  15.9780  17.0260  17.3532  17.6964  18.9865
    19.4857  19.5004  20.6981  24.5922  27.7669

     occupation numbers 
     1.0000   1.0000   1.0000   1.0000   1.0000   1.0000   1.0000   1.0000
     1.0000   1.0000   1.0000   1.0000   1.0000   1.0000   1.0000   0.0000
     0.0000   0.0000   0.0000   0.0000   0.0000

          k = 0.1667 0.4811 0.1027 (  2912 PWs)   bands (ev):

   -75.6431 -75.6273 -39.0968 -39.0594 -38.9935 -38.9593 -38.9140 -38.8891
    14.4123  15.2534  15.4702  16.0190  17.0372  17.3288  17.7612  18.9790
    19.2555  19.5737  20.7479  23.9899  26.7649

     occupation numbers 
     1.0000   1.0000   1.0000   1.0000   1.0000   1.0000   1.0000   1.0000
     1.0000   1.0000   1.0000   1.0000   1.0000   1.0000   1.0000   0.0000
     0.0000   0.0000   0.0000   0.0000   0.0000

          k = 0.1667 0.4811 0.2054 (  2910 PWs)   bands (ev):

   -75.6398 -75.6306 -39.1112 -39.0869 -38.9769 -38.9422 -38.9140 -38.8807
    14.5261  15.0498  15.7945  16.2867  16.8715  17.2999  17.9725  18.6688
    19.1919  19.6684  20.8955  22.5710  26.8891

     occupation numbers 
     1.0000   1.0000   1.0000   1.0000   1.0000   1.0000   1.0000   1.0000
     1.0000   1.0000   1.0000   1.0000   1.0000   1.0000   1.0000   0.0000
     0.0000   0.0000   0.0000   0.0000   0.0000

          k = 0.1667 0.4811-0.3081 (  2902 PWs)   bands (ev):

   -75.6352 -75.6352 -39.1079 -39.1079 -38.9579 -38.9579 -38.8901 -38.8901
    14.7569  14.7569  16.1954  16.1954  17.0414  17.0414  18.2449  18.2449
    19.5173  19.5173  21.4139  21.4139  27.6896

     occupation numbers 
     1.0000   1.0000   1.0000   1.0000   1.0000   1.0000   1.0000   1.0000
     1.0000   1.0000   1.0000   1.0000   1.0000   1.0000   0.9874   0.9874
     0.0000   0.0000   0.0000   0.0000   0.0000

          k = 0.1667 0.5774 0.0000 (  2920 PWs)   bands (ev):

   -75.6399 -75.6265 -39.0977 -39.0468 -38.9957 -38.9783 -38.9165 -38.9084
    14.8613  15.1716  15.2543  16.0316  17.0716  17.1906  17.7997  19.3004
    19.4782  19.4832  21.5897  23.0398  28.8101

     occupation numbers 
     1.0000   1.0000   1.0000   1.0000   1.0000   1.0000   1.0000   1.0000
     1.0000   1.0000   1.0000   1.0000   1.0000   1.0000   1.0000   0.0000
     0.0000   0.0000   0.0000   0.0000   0.0000

          k = 0.1667 0.5774 0.1027 (  2920 PWs)   bands (ev):

   -75.6390 -75.6274 -39.1079 -39.0635 -38.9974 -38.9529 -38.9254 -38.8961
    14.7240  15.2136  15.6093  15.8647  16.9966  17.3606  17.8734  19.2281
    19.2990  19.5390  21.6193  22.9456  27.8965

     occupation numbers 
     1.0000   1.0000   1.0000   1.0000   1.0000   1.0000   1.0000   1.0000
     1.0000   1.0000   1.0000   1.0000   1.0000   1.0000   1.0000   0.0000
     0.0000   0.0000   0.0000   0.0000   0.0000

          k = 0.1667 0.5774 0.2054 (  2910 PWs)   bands (ev):

   -75.6365 -75.6299 -39.1206 -39.0948 -38.9852 -38.9425 -38.9156 -38.8842
    14.6882  15.1088  15.8603  16.2007  16.7852  17.4703  18.1166  18.7379
    19.3254  19.5850  21.7467  22.6313  26.8089

     occupation numbers 
     1.0000   1.0000   1.0000   1.0000   1.0000   1.0000   1.0000   1.0000
     1.0000   1.0000   1.0000   1.0000   1.0000   1.0000   1.0000   0.0000
     0.0000   0.0000   0.0000   0.0000   0.0000

          k = 0.1667 0.5774-0.3081 (  2922 PWs)   bands (ev):

   -75.6332 -75.6332 -39.1171 -39.1171 -38.9644 -38.9644 -38.8899 -38.8899
    14.8424  14.8424  16.1878  16.1878  17.0934  17.0934  18.4040  18.4040
    19.4542  19.4542  22.1344  22.1344  26.4331

     occupation numbers 
     1.0000   1.0000   1.0000   1.0000   1.0000   1.0000   1.0000   1.0000
     1.0000   1.0000   1.0000   1.0000   1.0000   1.0000   0.0000   0.0000
     0.0000   0.0000   0.0000   0.0000   0.0000

          k = 0.2500 0.4330 0.0000 (  2916 PWs)   bands (ev):

   -75.6444 -75.6261 -39.0637 -39.0423 -39.0127 -38.9686 -38.9220 -38.9032
    14.3915  15.3819  15.6423  15.6668  16.9338  17.3801  17.7004  18.7463
    19.4383  19.5028  20.7372  26.1397  26.9618

     occupation numbers 
     1.0000   1.0000   1.0000   1.0000   1.0000   1.0000   1.0000   1.0000
     1.0000   1.0000   1.0000   1.0000   1.0000   1.0000   1.0000   0.0000
     0.0000   0.0000   0.0000   0.0000   0.0000

          k = 0.2500 0.4330 0.1027 (  2910 PWs)   bands (ev):

   -75.6432 -75.6273 -39.0709 -39.0672 -38.9799 -38.9790 -38.9243 -38.8911
    14.4743  15.2983  15.7094  15.8489  16.9734  17.2049  17.7055  18.7870
    19.1990  19.5816  20.8381  24.7136  27.2454

     occupation numbers 
     1.0000   1.0000   1.0000   1.0000   1.0000   1.0000   1.0000   1.0000
     1.0000   1.0000   1.0000   1.0000   1.0000   1.0000   1.0000   0.0000
     0.0000   0.0000   0.0000   0.0000   0.0000

          k = 0.2500 0.4330 0.2054 (  2907 PWs)   bands (ev):

   -75.6398 -75.6306 -39.0935 -39.0811 -38.9845 -38.9598 -38.9132 -38.8802
    14.6859  15.1535  15.9249  16.1965  16.8271  16.9434  17.7888  18.5728
    19.1521  19.6770  21.0684  22.8807  28.0150

     occupation numbers 
     1.0000   1.0000   1.0000   1.0000   1.0000   1.0000   1.0000   1.0000
     1.0000   1.0000   1.0000   1.0000   1.0000   1.0000   1.0000   0.0000
     0.0000   0.0000   0.0000   0.0000   0.0000

          k = 0.2500 0.4330-0.3081 (  2892 PWs)   bands (ev):

   -75.6352 -75.6352 -39.0952 -39.0952 -38.9725 -38.9725 -38.8884 -38.8884
    14.9408  14.9408  16.2541  16.2541  16.7207  16.7207  18.0827  18.0827
    19.5406  19.5406  21.6235  21.6235  29.0131

     occupation numbers 
     1.0000   1.0000   1.0000   1.0000   1.0000   1.0000   1.0000   1.0000
     1.0000   1.0000   1.0000   1.0000   1.0000   1.0000   1.0000   1.0000
     0.0000   0.0000   0.0000   0.0000   0.0000

          k = 0.2500 0.5292 0.0000 (  2916 PWs)   bands (ev):

   -75.6368 -75.6273 -39.0766 -39.0333 -38.9988 -38.9831 -38.9431 -38.9268
    15.1175  15.3547  15.4847  15.7414  16.9342  17.1397  17.8965  19.0488
    19.4069  19.4403  21.9962  24.2035  26.2821

     occupation numbers 
     1.0000   1.0000   1.0000   1.0000   1.0000   1.0000   1.0000   1.0000
     1.0000   1.0000   1.0000   1.0000   1.0000   1.0000   1.0000   0.0000
     0.0000   0.0000   0.0000   0.0000   0.0000

          k = 0.2500 0.5292 0.1027 (  2917 PWs)   bands (ev):

   -75.6361 -75.6279 -39.0816 -39.0540 -39.0146 -38.9607 -38.9428 -38.9079
    15.0891  15.4577  15.5673  15.8116  16.9091  17.0405  17.9070  19.0691
    19.1635  19.4944  22.1542  24.1824  26.3487

     occupation numbers 
     1.0000   1.0000   1.0000   1.0000   1.0000   1.0000   1.0000   1.0000
     1.0000   1.0000   1.0000   1.0000   1.0000   1.0000   1.0000   0.0000
     0.0000   0.0000   0.0000   0.0000   0.0000

          k = 0.2500 0.5292 0.2054 (  2917 PWs)   bands (ev):

   -75.6344 -75.6297 -39.0955 -39.0811 -39.0144 -38.9740 -38.9087 -38.8876
    15.1308  15.4157  15.8392  16.1530  16.6596  16.8989  17.9761  18.6066
    19.2397  19.5442  22.5296  23.8307  26.4103

     occupation numbers 
     1.0000   1.0000   1.0000   1.0000   1.0000   1.0000   1.0000   1.0000
     1.0000   1.0000   1.0000   1.0000   1.0000   1.0000   1.0000   0.0000
     0.0000   0.0000   0.0000   0.0000   0.0000

          k = 0.2500 0.5292-0.3081 (  2910 PWs)   bands (ev):

   -75.6320 -75.6320 -39.0978 -39.0978 -38.9960 -38.9960 -38.8868 -38.8868
    15.2624  15.2624  16.2281  16.2281  16.6183  16.6183  18.1810  18.1810
    19.4432  19.4432  23.1127  23.1127  26.9440

     occupation numbers 
     1.0000   1.0000   1.0000   1.0000   1.0000   1.0000   1.0000   1.0000
     1.0000   1.0000   1.0000   1.0000   1.0000   1.0000   1.0000   1.0000
     0.0000   0.0000   0.0000   0.0000   0.0000

          k = 0.3333 0.5774 0.0000 (  2910 PWs)   bands (ev):

   -75.6309 -75.6309 -39.0668 -39.0187 -39.0187 -38.9679 -38.9539 -38.9539
    15.3904  15.4724  15.4724  15.6708  16.9719  16.9719  18.0023  19.2144
    19.2144  19.3755  23.4323  24.1941  24.1941

     occupation numbers 
     1.0000   1.0000   1.0000   1.0000   1.0000   1.0000   1.0000   1.0000
     1.0000   1.0000   1.0000   1.0000   1.0000   1.0000   1.0000   0.0000
     0.0000   0.0000   0.0000   0.0000   0.0000

          k = 0.3333 0.5774 0.1027 (  2922 PWs)   bands (ev):

   -75.6309 -75.6309 -39.0602 -39.0438 -39.0438 -38.9745 -38.9287 -38.9287
    15.4611  15.5463  15.5463  15.7028  16.8863  16.8863  17.9825  19.1088
    19.2627  19.2627  23.8383  24.2442  24.2442

     occupation numbers 
     1.0000   1.0000   1.0000   1.0000   1.0000   1.0000   1.0000   1.0000
     1.0000   1.0000   1.0000   1.0000   1.0000   1.0000   1.0000   0.0000
     0.0000   0.0000   0.0000   0.0000   0.0000

          k = 0.3333 0.5774 0.2054 (  2916 PWs)   bands (ev):

   -75.6309 -75.6309 -39.0746 -39.0746 -39.0422 -38.9927 -38.8976 -38.8976
    15.6257  15.7230  15.7230  15.7629  16.6942  16.6942  17.9820  18.5773
    19.3510  19.3510  24.3687  24.3687  24.8278

     occupation numbers 
     1.0000   1.0000   1.0000   1.0000   1.0000   1.0000   1.0000   1.0000
     1.0000   1.0000   1.0000   1.0000   1.0000   1.0000   1.0000   0.0000
     0.0000   0.0000   0.0000   0.0000   0.0000

          k = 0.3333 0.5774-0.3081 (  2910 PWs)   bands (ev):

   -75.6309 -75.6309 -39.0865 -39.0865 -39.0175 -39.0175 -38.8856 -38.8856
    15.7564  15.7564  15.8391  15.8391  16.5738  16.5738  18.1510  18.1510
    19.3916  19.3916  24.4481  24.4481  26.1372

     occupation numbers 
     1.0000   1.0000   1.0000   1.0000   1.0000   1.0000   1.0000   1.0000
     1.0000   1.0000   1.0000   1.0000   1.0000   1.0000   1.0000   1.0000
     0.0000   0.0000   0.0000   0.0000   0.0000

     the Fermi energy is    18.2665 ev

!    total energy              =    -753.45476081 Ry
     total all-electron energy =     -5573.811452 Ry
     estimated scf accuracy    <       0.00000023 Ry
     smearing contrib. (-TS)   =      -0.00001815 Ry
     internal energy E=F+TS    =    -753.45474266 Ry

     The total energy is F=E-TS. E is the sum of the following terms:
     one-electron contribution =    -286.74095505 Ry
     hartree contribution      =     166.50118908 Ry
     xc contribution           =     -61.37743999 Ry
     ewald contribution        =    -396.66345512 Ry
     one-center paw contrib.   =    -175.17408159 Ry
      -> PAW hartree energy AE =     221.88339105 Ry
      -> PAW hartree energy PS =    -220.82829464 Ry
      -> PAW xc energy AE      =    -117.66533417 Ry
      -> PAW xc energy PS      =      29.02319697 Ry
      -> total E_H with PAW    =     167.55628549 Ry
      -> total E_XC with PAW   =    -150.01957719 Ry

     total magnetization       =     3.36 Bohr mag/cell
     absolute magnetization    =     3.69 Bohr mag/cell

     convergence has been achieved in   6 iterations

     Writing all to output data dir ./out/Co.save/
 
     init_run     :      0.40s CPU      0.52s WALL (       1 calls)
     electrons    :     12.07s CPU     12.71s WALL (       1 calls)

     Called by init_run:
     wfcinit      :      0.27s CPU      0.37s WALL (       1 calls)
     potinit      :      0.09s CPU      0.11s WALL (       1 calls)
     hinit0       :      0.03s CPU      0.03s WALL (       1 calls)

     Called by electrons:
     c_bands      :     10.43s CPU     10.91s WALL (       6 calls)
     sum_band     :      1.11s CPU      1.17s WALL (       6 calls)
     v_of_rho     :      0.02s CPU      0.02s WALL (       7 calls)
     v_h          :      0.00s CPU      0.00s WALL (       7 calls)
     v_xc         :      0.02s CPU      0.02s WALL (       7 calls)
     newd         :      0.03s CPU      0.03s WALL (       7 calls)
     PAW_pot      :      0.56s CPU      0.67s WALL (       7 calls)
     mix_rho      :      0.00s CPU      0.00s WALL (       6 calls)

     Called by c_bands:
     init_us_2    :      0.07s CPU      0.07s WALL (    1824 calls)
     init_us_2:cp :      0.06s CPU      0.07s WALL (    1824 calls)
     cegterg      :     10.02s CPU     10.42s WALL (     912 calls)

     Called by sum_band:
     sum_band:wei :      0.01s CPU      0.01s WALL (       6 calls)
     sum_band:loo :      1.05s CPU      1.11s WALL (       6 calls)
     sum_band:buf :      0.00s CPU      0.01s WALL (     912 calls)
     sum_band:ini :      0.04s CPU      0.04s WALL (     912 calls)
     sum_band:cal :      0.10s CPU      0.09s WALL (     912 calls)
     sum_band:bec :      0.00s CPU      0.01s WALL (     912 calls)
     addusdens    :      0.04s CPU      0.04s WALL (       6 calls)
                                        0.00s GPU  (       6 calls)
     addusd:skk   :      0.00s CPU      0.00s WALL (       6 calls)
                                        0.00s GPU  (       6 calls)

     Called by *egterg:
     cdiaghg      :      2.47s CPU      2.52s WALL (    5140 calls)
     cegterg:over :      0.36s CPU      0.33s WALL (    4380 calls)
     cegterg:upda :      0.04s CPU      0.08s WALL (    4380 calls)
     cegterg:last :      0.12s CPU      0.14s WALL (    2869 calls)
     h_psi        :      6.64s CPU      6.94s WALL (    5292 calls)
     s_psi        :      0.12s CPU      0.11s WALL (    5292 calls)
     g_psi        :      0.02s CPU      0.03s WALL (    4380 calls)

     Called by h_psi:
     h_psi:calbec :      0.37s CPU      0.35s WALL (    5292 calls)
     vloc_psi     :      6.18s CPU      6.44s WALL (    5292 calls)
     add_vuspsi   :      0.07s CPU      0.12s WALL (    5292 calls)

     General routines
     calbec       :      0.47s CPU      0.43s WALL (    6204 calls)
     fft          :      0.01s CPU      0.01s WALL (     169 calls)
     ffts         :      0.00s CPU      0.00s WALL (      26 calls)
     fftw         :      6.69s CPU      6.87s WALL (  152948 calls)
     interpolate  :      0.00s CPU      0.00s WALL (      14 calls)
 
     Parallel routines

     PAW routines
     PAW_pot      :      0.56s CPU      0.67s WALL (       7 calls)
     PAW_symme    :      0.01s CPU      0.01s WALL (      12 calls)
 
     PWSCF        :     12.81s CPU     14.02s WALL

 
   This run was terminated on:   7:18:50  22Mar2024            

=------------------------------------------------------------------------------=
   JOB DONE.
=------------------------------------------------------------------------------=
