
     Program PWSCF v.7.2 starts on 22Mar2024 at  7:51:22 

     This program is part of the open-source Quantum ESPRESSO suite
     for quantum simulation of materials; please cite
         "P. Giannozzi et al., J. Phys.:Condens. Matter 21 395502 (2009);
         "P. Giannozzi et al., J. Phys.:Condens. Matter 29 465901 (2017);
         "P. Giannozzi et al., J. Chem. Phys. 152 154105 (2020);
          URL http://www.quantum-espresso.org", 
     in publications or presentations arising from this work. More details at
     http://www.quantum-espresso.org/quote

     Parallel version (MPI), running on    20 processors

     MPI processes distributed on     1 nodes
     352907 MiB available memory on the printing compute node when the environment starts
 
     Waiting for input...
     Reading input from standard input

     Current dimensions of program PWSCF are:
     Max number of different atomic species (ntypx) = 10
     Max number of k-points (npk) = 120000
     Max angular momentum in pseudopotentials (lmaxx) =  4
     file Co.pbe-spn-kjpaw_psl.0.3.1.UPF: wavefunction(s)  3P 3D renormalized
 
     R & G space division:  proc/nbgrp/npool/nimage =      20
     Subspace diagonalization in iterative solution of the eigenvalue problem:
     a serial algorithm will be used

 
     Parallelization info
     --------------------
     sticks:   dense  smooth     PW     G-vecs:    dense   smooth      PW
     Min          33      33      9                 1157     1131     181
     Max          34      34     10                 1180     1136     188
     Sum         673     673    199                23391    22647    3717
 
     Using Slab Decomposition
 


     bravais-lattice index     =            4
     lattice parameter (alat)  =       4.6865  a.u.
     unit-cell volume          =     145.2152 (a.u.)^3
     number of atoms/cell      =            2
     number of atomic types    =            1
     number of electrons       =        34.00
     number of Kohn-Sham states=           21
     kinetic-energy cutoff     =     110.0000  Ry
     charge density cutoff     =     450.0000  Ry
     scf convergence threshold =      1.0E-06
     mixing beta               =       0.7000
     number of iterations used =            8  plain     mixing
     Exchange-correlation= SLA  PW   PBX  PBC
                           (   1   4   3   4   0   0   0)

     celldm(1)=   4.686521  celldm(2)=   0.000000  celldm(3)=   1.629032
     celldm(4)=   0.000000  celldm(5)=   0.000000  celldm(6)=   0.000000

     crystal axes: (cart. coord. in units of alat)
               a(1) = (   1.000000   0.000000   0.000000 )  
               a(2) = (  -0.500000   0.866025   0.000000 )  
               a(3) = (   0.000000   0.000000   1.629032 )  

     reciprocal axes: (cart. coord. in units 2 pi/alat)
               b(1) = (  1.000000  0.577350  0.000000 )  
               b(2) = (  0.000000  1.154701  0.000000 )  
               b(3) = (  0.000000  0.000000  0.613861 )  


     PseudoPot. # 1 for Co read from file:
     /truba/home/amuhaymin/ZnS/pseudo/QE/Co.pbe-spn-kjpaw_psl.0.3.1.UPF
     MD5 check sum: b0a1ad65bf214e88c1f3d33b20c7d919
     Pseudo is Projector augmented-wave + core cor, Zval = 17.0
     Generated using &quot;atomic&quot; code by A. Dal Corso  v.6.2.2
     Shape of augmentation charge: PSQ
     Using radial grid of 1193 points,  6 beta functions with: 
                l(1) =   0
                l(2) =   0
                l(3) =   1
                l(4) =   1
                l(5) =   2
                l(6) =   2
     Q(r) pseudized with 0 coefficients 


     atomic species   valence    mass     pseudopotential
        Co            17.00    58.93300     Co( 1.00)

     Starting magnetic structure 
     atomic species   magnetization
        Co           0.294

     24 Sym. Ops., with inversion, found (12 have fractional translation)


                                    s                        frac. trans.

      isym =  1     identity                                     

 cryst.   s( 1) = (     1          0          0      )
                  (     0          1          0      )
                  (     0          0          1      )

 cart.    s( 1) = (  1.0000000  0.0000000  0.0000000 )
                  (  0.0000000  1.0000000  0.0000000 )
                  (  0.0000000  0.0000000  1.0000000 )


      isym =  2     180 deg rotation - cart. axis [0,0,1]        

 cryst.   s( 2) = (    -1          0          0      )    f =(  0.0000000 )
                  (     0         -1          0      )       (  0.0000000 )
                  (     0          0          1      )       (  0.5000000 )

 cart.    s( 2) = ( -1.0000000  0.0000000  0.0000000 )    f =(  0.0000000 )
                  (  0.0000000 -1.0000000  0.0000000 )       (  0.0000000 )
                  (  0.0000000  0.0000000  1.0000000 )       (  0.8145161 )


      isym =  3     180 deg rotation - cart. axis [0,1,0]        

 cryst.   s( 3) = (    -1          0          0      )    f =(  0.0000000 )
                  (     1          1          0      )       (  0.0000000 )
                  (     0          0         -1      )       ( -0.5000000 )

 cart.    s( 3) = ( -1.0000000  0.0000000  0.0000000 )    f =(  0.0000000 )
                  (  0.0000000  1.0000000  0.0000000 )       (  0.0000000 )
                  (  0.0000000  0.0000000 -1.0000000 )       ( -0.8145161 )


      isym =  4     180 deg rotation - cart. axis [1,0,0]        

 cryst.   s( 4) = (     1          0          0      )
                  (    -1         -1          0      )
                  (     0          0         -1      )

 cart.    s( 4) = (  1.0000000  0.0000000  0.0000000 )
                  (  0.0000000 -1.0000000  0.0000000 )
                  (  0.0000000  0.0000000 -1.0000000 )


      isym =  5      60 deg rotation - cryst. axis [0,0,1]       

 cryst.   s( 5) = (     1          1          0      )    f =(  0.0000000 )
                  (    -1          0          0      )       ( -0.0000000 )
                  (     0          0          1      )       (  0.5000000 )

 cart.    s( 5) = (  0.5000000 -0.8660254  0.0000000 )    f =(  0.0000000 )
                  (  0.8660254  0.5000000  0.0000000 )       ( -0.0000000 )
                  (  0.0000000  0.0000000  1.0000000 )       (  0.8145161 )


      isym =  6      60 deg rotation - cryst. axis [0,0,-1]      

 cryst.   s( 6) = (     0         -1          0      )    f =(  0.0000000 )
                  (     1          1          0      )       ( -0.0000000 )
                  (     0          0          1      )       (  0.5000000 )

 cart.    s( 6) = (  0.5000000  0.8660254  0.0000000 )    f =(  0.0000000 )
                  ( -0.8660254  0.5000000  0.0000000 )       ( -0.0000000 )
                  (  0.0000000  0.0000000  1.0000000 )       (  0.8145161 )


      isym =  7     120 deg rotation - cryst. axis [0,0,1]       

 cryst.   s( 7) = (     0          1          0      )
                  (    -1         -1          0      )
                  (     0          0          1      )

 cart.    s( 7) = ( -0.5000000 -0.8660254  0.0000000 )
                  (  0.8660254 -0.5000000  0.0000000 )
                  (  0.0000000  0.0000000  1.0000000 )


      isym =  8     120 deg rotation - cryst. axis [0,0,-1]      

 cryst.   s( 8) = (    -1         -1          0      )
                  (     1          0          0      )
                  (     0          0          1      )

 cart.    s( 8) = ( -0.5000000  0.8660254  0.0000000 )
                  ( -0.8660254 -0.5000000  0.0000000 )
                  (  0.0000000  0.0000000  1.0000000 )


      isym =  9     180 deg rotation - cryst. axis [1,-1,0]      

 cryst.   s( 9) = (     0         -1          0      )    f =(  0.0000000 )
                  (    -1          0          0      )       (  0.0000000 )
                  (     0          0         -1      )       ( -0.5000000 )

 cart.    s( 9) = (  0.5000000 -0.8660254  0.0000000 )    f =(  0.0000000 )
                  ( -0.8660254 -0.5000000  0.0000000 )       (  0.0000000 )
                  (  0.0000000  0.0000000 -1.0000000 )       ( -0.8145161 )


      isym = 10     180 deg rotation - cryst. axis [2,1,0]       

 cryst.   s(10) = (     1          1          0      )    f =(  0.0000000 )
                  (     0         -1          0      )       ( -0.0000000 )
                  (     0          0         -1      )       ( -0.5000000 )

 cart.    s(10) = (  0.5000000  0.8660254  0.0000000 )    f =(  0.0000000 )
                  (  0.8660254 -0.5000000  0.0000000 )       ( -0.0000000 )
                  (  0.0000000  0.0000000 -1.0000000 )       ( -0.8145161 )


      isym = 11     180 deg rotation - cryst. axis [0,1,0]       

 cryst.   s(11) = (    -1         -1          0      )
                  (     0          1          0      )
                  (     0          0         -1      )

 cart.    s(11) = ( -0.5000000 -0.8660254  0.0000000 )
                  ( -0.8660254  0.5000000  0.0000000 )
                  (  0.0000000  0.0000000 -1.0000000 )


      isym = 12     180 deg rotation - cryst. axis [1,1,0]       

 cryst.   s(12) = (     0          1          0      )
                  (     1          0          0      )
                  (     0          0         -1      )

 cart.    s(12) = ( -0.5000000  0.8660254  0.0000000 )
                  (  0.8660254  0.5000000  0.0000000 )
                  (  0.0000000  0.0000000 -1.0000000 )


      isym = 13     inversion                                    

 cryst.   s(13) = (    -1          0          0      )
                  (     0         -1          0      )
                  (     0          0         -1      )

 cart.    s(13) = ( -1.0000000  0.0000000  0.0000000 )
                  (  0.0000000 -1.0000000  0.0000000 )
                  (  0.0000000  0.0000000 -1.0000000 )


      isym = 14     inv. 180 deg rotation - cart. axis [0,0,1]   

 cryst.   s(14) = (     1          0          0      )    f =(  0.0000000 )
                  (     0          1          0      )       (  0.0000000 )
                  (     0          0         -1      )       ( -0.5000000 )

 cart.    s(14) = (  1.0000000  0.0000000  0.0000000 )    f =(  0.0000000 )
                  (  0.0000000  1.0000000  0.0000000 )       (  0.0000000 )
                  (  0.0000000  0.0000000 -1.0000000 )       ( -0.8145161 )


      isym = 15     inv. 180 deg rotation - cart. axis [0,1,0]   

 cryst.   s(15) = (     1          0          0      )    f =(  0.0000000 )
                  (    -1         -1          0      )       (  0.0000000 )
                  (     0          0          1      )       (  0.5000000 )

 cart.    s(15) = (  1.0000000  0.0000000  0.0000000 )    f =(  0.0000000 )
                  (  0.0000000 -1.0000000  0.0000000 )       (  0.0000000 )
                  (  0.0000000  0.0000000  1.0000000 )       (  0.8145161 )


      isym = 16     inv. 180 deg rotation - cart. axis [1,0,0]   

 cryst.   s(16) = (    -1          0          0      )
                  (     1          1          0      )
                  (     0          0          1      )

 cart.    s(16) = ( -1.0000000  0.0000000  0.0000000 )
                  (  0.0000000  1.0000000  0.0000000 )
                  (  0.0000000  0.0000000  1.0000000 )


      isym = 17     inv.  60 deg rotation - cryst. axis [0,0,1]  

 cryst.   s(17) = (    -1         -1          0      )    f =(  0.0000000 )
                  (     1          0          0      )       (  0.0000000 )
                  (     0          0         -1      )       ( -0.5000000 )

 cart.    s(17) = ( -0.5000000  0.8660254  0.0000000 )    f =(  0.0000000 )
                  ( -0.8660254 -0.5000000  0.0000000 )       (  0.0000000 )
                  (  0.0000000  0.0000000 -1.0000000 )       ( -0.8145161 )


      isym = 18     inv.  60 deg rotation - cryst. axis [0,0,-1] 

 cryst.   s(18) = (     0          1          0      )    f =(  0.0000000 )
                  (    -1         -1          0      )       ( -0.0000000 )
                  (     0          0         -1      )       ( -0.5000000 )

 cart.    s(18) = ( -0.5000000 -0.8660254  0.0000000 )    f =(  0.0000000 )
                  (  0.8660254 -0.5000000  0.0000000 )       ( -0.0000000 )
                  (  0.0000000  0.0000000 -1.0000000 )       ( -0.8145161 )


      isym = 19     inv. 120 deg rotation - cryst. axis [0,0,1]  

 cryst.   s(19) = (     0         -1          0      )
                  (     1          1          0      )
                  (     0          0         -1      )

 cart.    s(19) = (  0.5000000  0.8660254  0.0000000 )
                  ( -0.8660254  0.5000000  0.0000000 )
                  (  0.0000000  0.0000000 -1.0000000 )


      isym = 20     inv. 120 deg rotation - cryst. axis [0,0,-1] 

 cryst.   s(20) = (     1          1          0      )
                  (    -1          0          0      )
                  (     0          0         -1      )

 cart.    s(20) = (  0.5000000 -0.8660254  0.0000000 )
                  (  0.8660254  0.5000000  0.0000000 )
                  (  0.0000000  0.0000000 -1.0000000 )


      isym = 21     inv. 180 deg rotation - cryst. axis [1,-1,0] 

 cryst.   s(21) = (     0          1          0      )    f =(  0.0000000 )
                  (     1          0          0      )       ( -0.0000000 )
                  (     0          0          1      )       (  0.5000000 )

 cart.    s(21) = ( -0.5000000  0.8660254  0.0000000 )    f =(  0.0000000 )
                  (  0.8660254  0.5000000  0.0000000 )       ( -0.0000000 )
                  (  0.0000000  0.0000000  1.0000000 )       (  0.8145161 )


      isym = 22     inv. 180 deg rotation - cryst. axis [2,1,0]  

 cryst.   s(22) = (    -1         -1          0      )    f =(  0.0000000 )
                  (     0          1          0      )       ( -0.0000000 )
                  (     0          0          1      )       (  0.5000000 )

 cart.    s(22) = ( -0.5000000 -0.8660254  0.0000000 )    f =(  0.0000000 )
                  ( -0.8660254  0.5000000  0.0000000 )       ( -0.0000000 )
                  (  0.0000000  0.0000000  1.0000000 )       (  0.8145161 )


      isym = 23     inv. 180 deg rotation - cryst. axis [0,1,0]  

 cryst.   s(23) = (     1          1          0      )
                  (     0         -1          0      )
                  (     0          0          1      )

 cart.    s(23) = (  0.5000000  0.8660254  0.0000000 )
                  (  0.8660254 -0.5000000  0.0000000 )
                  (  0.0000000  0.0000000  1.0000000 )


      isym = 24     inv. 180 deg rotation - cryst. axis [1,1,0]  

 cryst.   s(24) = (     0         -1          0      )
                  (    -1          0          0      )
                  (     0          0          1      )

 cart.    s(24) = (  0.5000000 -0.8660254  0.0000000 )
                  ( -0.8660254 -0.5000000  0.0000000 )
                  (  0.0000000  0.0000000  1.0000000 )


     point group D_6h(6/mmm)
     there are 12 classes
     the character table:

       E     2C6   2C3   C2    3C2'  3C2'' i     2S3   2S6   s_h   3s_d  3s_v 
A_1g   1.00  1.00  1.00  1.00  1.00  1.00  1.00  1.00  1.00  1.00  1.00  1.00
A_2g   1.00  1.00  1.00  1.00 -1.00 -1.00  1.00  1.00  1.00  1.00 -1.00 -1.00
B_1g   1.00 -1.00  1.00 -1.00  1.00 -1.00  1.00 -1.00  1.00 -1.00  1.00 -1.00
B_2g   1.00 -1.00  1.00 -1.00 -1.00  1.00  1.00 -1.00  1.00 -1.00 -1.00  1.00
E_1g   2.00  1.00 -1.00 -2.00  0.00  0.00  2.00  1.00 -1.00 -2.00  0.00  0.00
E_2g   2.00 -1.00 -1.00  2.00  0.00  0.00  2.00 -1.00 -1.00  2.00  0.00  0.00
A_1u   1.00  1.00  1.00  1.00  1.00  1.00 -1.00 -1.00 -1.00 -1.00 -1.00 -1.00
A_2u   1.00  1.00  1.00  1.00 -1.00 -1.00 -1.00 -1.00 -1.00 -1.00  1.00  1.00
B_1u   1.00 -1.00  1.00 -1.00  1.00 -1.00 -1.00  1.00 -1.00  1.00 -1.00  1.00
B_2u   1.00 -1.00  1.00 -1.00 -1.00  1.00 -1.00  1.00 -1.00  1.00  1.00 -1.00
E_1u   2.00  1.00 -1.00 -2.00  0.00  0.00 -2.00 -1.00  1.00  2.00  0.00  0.00
E_2u   2.00 -1.00 -1.00  2.00  0.00  0.00 -2.00  1.00  1.00 -2.00  0.00  0.00

     the symmetry operations in each class and the name of the first element:

     E        1
          identity                                               
     2C6      5    6
           60 deg rotation - cryst. axis [0,0,1]                 
     2C3      7    8
          120 deg rotation - cryst. axis [0,0,1]                 
     C2       2
          180 deg rotation - cart. axis [0,0,1]                  
     3C2'     4   12   11
          180 deg rotation - cart. axis [1,0,0]                  
     3C2''    3    9   10
          180 deg rotation - cart. axis [0,1,0]                  
     i       13
          inversion                                              
     2S3     17   18
          inv.  60 deg rotation - cryst. axis [0,0,1]            
     2S6     19   20
          inv. 120 deg rotation - cryst. axis [0,0,1]            
     s_h     14
          inv. 180 deg rotation - cart. axis [0,0,1]             
     3s_d    16   24   23
          inv. 180 deg rotation - cart. axis [1,0,0]             
     3s_v    15   21   22
          inv. 180 deg rotation - cart. axis [0,1,0]             

   Cartesian axes

     site n.     atom                  positions (alat units)
         1           Co  tau(   1) = (  -0.0000000   0.5773503   0.4072581  )
         2           Co  tau(   2) = (   0.5000000   0.2886751   1.2217742  )

   Crystallographic axes

     site n.     atom                  positions (cryst. coord.)
         1           Co  tau(   1) = (  0.3333333  0.6666667  0.2500000  )
         2           Co  tau(   2) = (  0.6666667  0.3333333  0.7500000  )

     number of k points=    76  Gaussian smearing, width (Ry)=  0.0010
                       cart. coord. in units 2pi/alat
        k(    1) = (   0.0000000   0.0000000   0.0000000), wk =   0.0011574
        k(    2) = (   0.0000000   0.0000000   0.1023102), wk =   0.0023148
        k(    3) = (   0.0000000   0.0000000   0.2046205), wk =   0.0023148
        k(    4) = (   0.0000000   0.0000000  -0.3069307), wk =   0.0011574
        k(    5) = (   0.0000000   0.0962250   0.0000000), wk =   0.0069444
        k(    6) = (   0.0000000   0.0962250   0.1023102), wk =   0.0138889
        k(    7) = (   0.0000000   0.0962250   0.2046205), wk =   0.0138889
        k(    8) = (   0.0000000   0.0962250  -0.3069307), wk =   0.0069444
        k(    9) = (   0.0000000   0.1924501   0.0000000), wk =   0.0069444
        k(   10) = (   0.0000000   0.1924501   0.1023102), wk =   0.0138889
        k(   11) = (   0.0000000   0.1924501   0.2046205), wk =   0.0138889
        k(   12) = (   0.0000000   0.1924501  -0.3069307), wk =   0.0069444
        k(   13) = (   0.0000000   0.2886751   0.0000000), wk =   0.0069444
        k(   14) = (   0.0000000   0.2886751   0.1023102), wk =   0.0138889
        k(   15) = (   0.0000000   0.2886751   0.2046205), wk =   0.0138889
        k(   16) = (   0.0000000   0.2886751  -0.3069307), wk =   0.0069444
        k(   17) = (   0.0000000   0.3849002   0.0000000), wk =   0.0069444
        k(   18) = (   0.0000000   0.3849002   0.1023102), wk =   0.0138889
        k(   19) = (   0.0000000   0.3849002   0.2046205), wk =   0.0138889
        k(   20) = (   0.0000000   0.3849002  -0.3069307), wk =   0.0069444
        k(   21) = (   0.0000000   0.4811252   0.0000000), wk =   0.0069444
        k(   22) = (   0.0000000   0.4811252   0.1023102), wk =   0.0138889
        k(   23) = (   0.0000000   0.4811252   0.2046205), wk =   0.0138889
        k(   24) = (   0.0000000   0.4811252  -0.3069307), wk =   0.0069444
        k(   25) = (   0.0000000  -0.5773503   0.0000000), wk =   0.0034722
        k(   26) = (   0.0000000  -0.5773503   0.1023102), wk =   0.0069444
        k(   27) = (   0.0000000  -0.5773503   0.2046205), wk =   0.0069444
        k(   28) = (   0.0000000  -0.5773503  -0.3069307), wk =   0.0034722
        k(   29) = (   0.0833333   0.1443376   0.0000000), wk =   0.0069444
        k(   30) = (   0.0833333   0.1443376   0.1023102), wk =   0.0138889
        k(   31) = (   0.0833333   0.1443376   0.2046205), wk =   0.0138889
        k(   32) = (   0.0833333   0.1443376  -0.3069307), wk =   0.0069444
        k(   33) = (   0.0833333   0.2405626   0.0000000), wk =   0.0138889
        k(   34) = (   0.0833333   0.2405626   0.1023102), wk =   0.0277778
        k(   35) = (   0.0833333   0.2405626   0.2046205), wk =   0.0277778
        k(   36) = (   0.0833333   0.2405626  -0.3069307), wk =   0.0138889
        k(   37) = (   0.0833333   0.3367877   0.0000000), wk =   0.0138889
        k(   38) = (   0.0833333   0.3367877   0.1023102), wk =   0.0277778
        k(   39) = (   0.0833333   0.3367877   0.2046205), wk =   0.0277778
        k(   40) = (   0.0833333   0.3367877  -0.3069307), wk =   0.0138889
        k(   41) = (   0.0833333   0.4330127   0.0000000), wk =   0.0138889
        k(   42) = (   0.0833333   0.4330127   0.1023102), wk =   0.0277778
        k(   43) = (   0.0833333   0.4330127   0.2046205), wk =   0.0277778
        k(   44) = (   0.0833333   0.4330127  -0.3069307), wk =   0.0138889
        k(   45) = (   0.0833333   0.5292377   0.0000000), wk =   0.0138889
        k(   46) = (   0.0833333   0.5292377   0.1023102), wk =   0.0277778
        k(   47) = (   0.0833333   0.5292377   0.2046205), wk =   0.0277778
        k(   48) = (   0.0833333   0.5292377  -0.3069307), wk =   0.0138889
        k(   49) = (   0.1666667   0.2886751   0.0000000), wk =   0.0069444
        k(   50) = (   0.1666667   0.2886751   0.1023102), wk =   0.0138889
        k(   51) = (   0.1666667   0.2886751   0.2046205), wk =   0.0138889
        k(   52) = (   0.1666667   0.2886751  -0.3069307), wk =   0.0069444
        k(   53) = (   0.1666667   0.3849002   0.0000000), wk =   0.0138889
        k(   54) = (   0.1666667   0.3849002   0.1023102), wk =   0.0277778
        k(   55) = (   0.1666667   0.3849002   0.2046205), wk =   0.0277778
        k(   56) = (   0.1666667   0.3849002  -0.3069307), wk =   0.0138889
        k(   57) = (   0.1666667   0.4811252   0.0000000), wk =   0.0138889
        k(   58) = (   0.1666667   0.4811252   0.1023102), wk =   0.0277778
        k(   59) = (   0.1666667   0.4811252   0.2046205), wk =   0.0277778
        k(   60) = (   0.1666667   0.4811252  -0.3069307), wk =   0.0138889
        k(   61) = (   0.1666667   0.5773503   0.0000000), wk =   0.0069444
        k(   62) = (   0.1666667   0.5773503   0.1023102), wk =   0.0138889
        k(   63) = (   0.1666667   0.5773503   0.2046205), wk =   0.0138889
        k(   64) = (   0.1666667   0.5773503  -0.3069307), wk =   0.0069444
        k(   65) = (   0.2500000   0.4330127   0.0000000), wk =   0.0069444
        k(   66) = (   0.2500000   0.4330127   0.1023102), wk =   0.0138889
        k(   67) = (   0.2500000   0.4330127   0.2046205), wk =   0.0138889
        k(   68) = (   0.2500000   0.4330127  -0.3069307), wk =   0.0069444
        k(   69) = (   0.2500000   0.5292377   0.0000000), wk =   0.0138889
        k(   70) = (   0.2500000   0.5292377   0.1023102), wk =   0.0277778
        k(   71) = (   0.2500000   0.5292377   0.2046205), wk =   0.0277778
        k(   72) = (   0.2500000   0.5292377  -0.3069307), wk =   0.0138889
        k(   73) = (   0.3333333   0.5773503   0.0000000), wk =   0.0023148
        k(   74) = (   0.3333333   0.5773503   0.1023102), wk =   0.0046296
        k(   75) = (   0.3333333   0.5773503   0.2046205), wk =   0.0046296
        k(   76) = (   0.3333333   0.5773503  -0.3069307), wk =   0.0023148

                       cryst. coord.
        k(    1) = (   0.0000000   0.0000000   0.0000000), wk =   0.0011574
        k(    2) = (   0.0000000   0.0000000   0.1666667), wk =   0.0023148
        k(    3) = (   0.0000000   0.0000000   0.3333333), wk =   0.0023148
        k(    4) = (   0.0000000   0.0000000  -0.5000000), wk =   0.0011574
        k(    5) = (   0.0000000   0.0833333   0.0000000), wk =   0.0069444
        k(    6) = (   0.0000000   0.0833333   0.1666667), wk =   0.0138889
        k(    7) = (   0.0000000   0.0833333   0.3333333), wk =   0.0138889
        k(    8) = (   0.0000000   0.0833333  -0.5000000), wk =   0.0069444
        k(    9) = (   0.0000000   0.1666667   0.0000000), wk =   0.0069444
        k(   10) = (   0.0000000   0.1666667   0.1666667), wk =   0.0138889
        k(   11) = (   0.0000000   0.1666667   0.3333333), wk =   0.0138889
        k(   12) = (   0.0000000   0.1666667  -0.5000000), wk =   0.0069444
        k(   13) = (   0.0000000   0.2500000   0.0000000), wk =   0.0069444
        k(   14) = (   0.0000000   0.2500000   0.1666667), wk =   0.0138889
        k(   15) = (   0.0000000   0.2500000   0.3333333), wk =   0.0138889
        k(   16) = (   0.0000000   0.2500000  -0.5000000), wk =   0.0069444
        k(   17) = (   0.0000000   0.3333333   0.0000000), wk =   0.0069444
        k(   18) = (   0.0000000   0.3333333   0.1666667), wk =   0.0138889
        k(   19) = (   0.0000000   0.3333333   0.3333333), wk =   0.0138889
        k(   20) = (   0.0000000   0.3333333  -0.5000000), wk =   0.0069444
        k(   21) = (   0.0000000   0.4166667   0.0000000), wk =   0.0069444
        k(   22) = (   0.0000000   0.4166667   0.1666667), wk =   0.0138889
        k(   23) = (   0.0000000   0.4166667   0.3333333), wk =   0.0138889
        k(   24) = (   0.0000000   0.4166667  -0.5000000), wk =   0.0069444
        k(   25) = (   0.0000000  -0.5000000   0.0000000), wk =   0.0034722
        k(   26) = (   0.0000000  -0.5000000   0.1666667), wk =   0.0069444
        k(   27) = (   0.0000000  -0.5000000   0.3333333), wk =   0.0069444
        k(   28) = (   0.0000000  -0.5000000  -0.5000000), wk =   0.0034722
        k(   29) = (   0.0833333   0.0833333   0.0000000), wk =   0.0069444
        k(   30) = (   0.0833333   0.0833333   0.1666667), wk =   0.0138889
        k(   31) = (   0.0833333   0.0833333   0.3333333), wk =   0.0138889
        k(   32) = (   0.0833333   0.0833333  -0.5000000), wk =   0.0069444
        k(   33) = (   0.0833333   0.1666667   0.0000000), wk =   0.0138889
        k(   34) = (   0.0833333   0.1666667   0.1666667), wk =   0.0277778
        k(   35) = (   0.0833333   0.1666667   0.3333333), wk =   0.0277778
        k(   36) = (   0.0833333   0.1666667  -0.5000000), wk =   0.0138889
        k(   37) = (   0.0833333   0.2500000   0.0000000), wk =   0.0138889
        k(   38) = (   0.0833333   0.2500000   0.1666667), wk =   0.0277778
        k(   39) = (   0.0833333   0.2500000   0.3333333), wk =   0.0277778
        k(   40) = (   0.0833333   0.2500000  -0.5000000), wk =   0.0138889
        k(   41) = (   0.0833333   0.3333333   0.0000000), wk =   0.0138889
        k(   42) = (   0.0833333   0.3333333   0.1666667), wk =   0.0277778
        k(   43) = (   0.0833333   0.3333333   0.3333333), wk =   0.0277778
        k(   44) = (   0.0833333   0.3333333  -0.5000000), wk =   0.0138889
        k(   45) = (   0.0833333   0.4166667   0.0000000), wk =   0.0138889
        k(   46) = (   0.0833333   0.4166667   0.1666667), wk =   0.0277778
        k(   47) = (   0.0833333   0.4166667   0.3333333), wk =   0.0277778
        k(   48) = (   0.0833333   0.4166667  -0.5000000), wk =   0.0138889
        k(   49) = (   0.1666667   0.1666667   0.0000000), wk =   0.0069444
        k(   50) = (   0.1666667   0.1666667   0.1666667), wk =   0.0138889
        k(   51) = (   0.1666667   0.1666667   0.3333333), wk =   0.0138889
        k(   52) = (   0.1666667   0.1666667  -0.5000000), wk =   0.0069444
        k(   53) = (   0.1666667   0.2500000   0.0000000), wk =   0.0138889
        k(   54) = (   0.1666667   0.2500000   0.1666667), wk =   0.0277778
        k(   55) = (   0.1666667   0.2500000   0.3333333), wk =   0.0277778
        k(   56) = (   0.1666667   0.2500000  -0.5000000), wk =   0.0138889
        k(   57) = (   0.1666667   0.3333333   0.0000000), wk =   0.0138889
        k(   58) = (   0.1666667   0.3333333   0.1666667), wk =   0.0277778
        k(   59) = (   0.1666667   0.3333333   0.3333333), wk =   0.0277778
        k(   60) = (   0.1666667   0.3333333  -0.5000000), wk =   0.0138889
        k(   61) = (   0.1666667   0.4166667   0.0000000), wk =   0.0069444
        k(   62) = (   0.1666667   0.4166667   0.1666667), wk =   0.0138889
        k(   63) = (   0.1666667   0.4166667   0.3333333), wk =   0.0138889
        k(   64) = (   0.1666667   0.4166667  -0.5000000), wk =   0.0069444
        k(   65) = (   0.2500000   0.2500000   0.0000000), wk =   0.0069444
        k(   66) = (   0.2500000   0.2500000   0.1666667), wk =   0.0138889
        k(   67) = (   0.2500000   0.2500000   0.3333333), wk =   0.0138889
        k(   68) = (   0.2500000   0.2500000  -0.5000000), wk =   0.0069444
        k(   69) = (   0.2500000   0.3333333   0.0000000), wk =   0.0138889
        k(   70) = (   0.2500000   0.3333333   0.1666667), wk =   0.0277778
        k(   71) = (   0.2500000   0.3333333   0.3333333), wk =   0.0277778
        k(   72) = (   0.2500000   0.3333333  -0.5000000), wk =   0.0138889
        k(   73) = (   0.3333333   0.3333333   0.0000000), wk =   0.0023148
        k(   74) = (   0.3333333   0.3333333   0.1666667), wk =   0.0046296
        k(   75) = (   0.3333333   0.3333333   0.3333333), wk =   0.0046296
        k(   76) = (   0.3333333   0.3333333  -0.5000000), wk =   0.0023148

     Dense  grid:    23391 G-vectors     FFT dimensions: (  32,  32,  54)

     Smooth grid:    22647 G-vectors     FFT dimensions: (  32,  32,  54)

     Dynamical RAM for                 wfc:       0.05 MB

     Dynamical RAM for     wfc (w. buffer):       6.91 MB

     Dynamical RAM for           str. fact:       0.02 MB

     Dynamical RAM for           local pot:       0.00 MB

     Dynamical RAM for          nlocal pot:       0.08 MB

     Dynamical RAM for                qrad:       1.70 MB

     Dynamical RAM for          rho,v,vnew:       0.25 MB

     Dynamical RAM for               rhoin:       0.08 MB

     Dynamical RAM for            rho*nmix:       0.56 MB

     Dynamical RAM for           G-vectors:       0.07 MB

     Dynamical RAM for          h,s,v(r/c):       0.08 MB

     Dynamical RAM for          <psi|beta>:       0.01 MB

     Dynamical RAM for                 psi:       0.09 MB

     Dynamical RAM for                hpsi:       0.09 MB

     Dynamical RAM for                spsi:       0.09 MB

     Dynamical RAM for      wfcinit/wfcrot:       0.10 MB

     Dynamical RAM for           addusdens:       3.34 MB

     Estimated static dynamical RAM per process >       9.29 MB

     Estimated max dynamical RAM per process >      13.19 MB

     Estimated total dynamical RAM >     263.83 MB

     Check: negative core charge=   -0.000043
     Generating pointlists ...
     new r_m :   0.4118 (alat units)  1.9301 (a.u.) for type    1

     The initial density is read from file :
     ./out/Co.save/charge-density


     starting charge      33.8443, renormalised to      34.0000

     negative rho (up, down):  3.227E-01 2.747E-01
     Starting wfcs from file
     Checking if some PAW data can be deallocated... 

     total cpu time spent up to now is        0.6 secs

     Self-consistent Calculation

     iteration #  1     ecut=   110.00 Ry     beta= 0.70
     Davidson diagonalization with overlap

---- Real-time Memory Report at c_bands before calling an iterative solver
            56 MiB given to the printing process from OS
             0 MiB allocation reported by mallinfo(arena+hblkhd)
        352333 MiB available memory on the node where the printing process lives
------------------
     c_bands:  1 eigenvalues not converged
     c_bands:  1 eigenvalues not converged
     c_bands:  4 eigenvalues not converged
     c_bands:  3 eigenvalues not converged
     c_bands:  4 eigenvalues not converged
     c_bands:  1 eigenvalues not converged
     c_bands:  3 eigenvalues not converged
     c_bands:  1 eigenvalues not converged
     c_bands:  1 eigenvalues not converged
     c_bands:  2 eigenvalues not converged
     c_bands:  3 eigenvalues not converged
     c_bands:  1 eigenvalues not converged
     c_bands:  5 eigenvalues not converged
     c_bands:  1 eigenvalues not converged
     c_bands:  1 eigenvalues not converged
     c_bands:  3 eigenvalues not converged
     c_bands:  4 eigenvalues not converged
     c_bands:  3 eigenvalues not converged
     c_bands:  5 eigenvalues not converged
     c_bands:  3 eigenvalues not converged
     c_bands:  2 eigenvalues not converged
     c_bands:  2 eigenvalues not converged
     c_bands:  3 eigenvalues not converged
     c_bands:  4 eigenvalues not converged
     c_bands:  3 eigenvalues not converged
     c_bands:  5 eigenvalues not converged
     c_bands:  5 eigenvalues not converged
     c_bands:  1 eigenvalues not converged
     c_bands:  4 eigenvalues not converged
     c_bands:  2 eigenvalues not converged
     c_bands:  4 eigenvalues not converged
     c_bands:  1 eigenvalues not converged
     c_bands:  2 eigenvalues not converged
     c_bands:  4 eigenvalues not converged
     c_bands:  5 eigenvalues not converged
     c_bands:  1 eigenvalues not converged
     c_bands:  1 eigenvalues not converged
     c_bands:  5 eigenvalues not converged
     c_bands:  1 eigenvalues not converged
     c_bands:  4 eigenvalues not converged
     c_bands:  4 eigenvalues not converged
     c_bands:  4 eigenvalues not converged
     c_bands:  1 eigenvalues not converged
     c_bands:  2 eigenvalues not converged
     c_bands:  1 eigenvalues not converged
     c_bands:  4 eigenvalues not converged
     c_bands:  5 eigenvalues not converged
     c_bands:  2 eigenvalues not converged
     c_bands:  5 eigenvalues not converged
     c_bands:  3 eigenvalues not converged
     c_bands:  4 eigenvalues not converged
     c_bands:  4 eigenvalues not converged
     c_bands:  5 eigenvalues not converged
     c_bands:  5 eigenvalues not converged
     c_bands:  4 eigenvalues not converged
     c_bands:  5 eigenvalues not converged
     ethr =  1.00E-05,  avg # of iterations = 20.0

     negative rho (up, down):  5.129E-03 2.995E-03

     total cpu time spent up to now is        9.6 secs

     total energy              =    -753.14691083 Ry
     estimated scf accuracy    <       0.24165837 Ry

     total magnetization       =     3.36 Bohr mag/cell
     absolute magnetization    =     3.65 Bohr mag/cell

     iteration #  2     ecut=   110.00 Ry     beta= 0.70
     Davidson diagonalization with overlap

---- Real-time Memory Report at c_bands before calling an iterative solver
            78 MiB given to the printing process from OS
             0 MiB allocation reported by mallinfo(arena+hblkhd)
        352116 MiB available memory on the node where the printing process lives
------------------
     ethr =  7.11E-04,  avg # of iterations =  4.1

     negative rho (up, down):  2.076E-03 1.128E-03

     total cpu time spent up to now is       11.5 secs

     total energy              =    -753.18324057 Ry
     estimated scf accuracy    <       0.63011904 Ry

     total magnetization       =     3.10 Bohr mag/cell
     absolute magnetization    =     3.35 Bohr mag/cell

     iteration #  3     ecut=   110.00 Ry     beta= 0.70
     Davidson diagonalization with overlap

---- Real-time Memory Report at c_bands before calling an iterative solver
            80 MiB given to the printing process from OS
             0 MiB allocation reported by mallinfo(arena+hblkhd)
        352103 MiB available memory on the node where the printing process lives
------------------
     ethr =  7.11E-04,  avg # of iterations =  3.9

     total cpu time spent up to now is       13.1 secs

     total energy              =    -753.43281027 Ry
     estimated scf accuracy    <       0.02004589 Ry

     total magnetization       =     3.31 Bohr mag/cell
     absolute magnetization    =     3.58 Bohr mag/cell

     iteration #  4     ecut=   110.00 Ry     beta= 0.70
     Davidson diagonalization with overlap

---- Real-time Memory Report at c_bands before calling an iterative solver
            81 MiB given to the printing process from OS
             0 MiB allocation reported by mallinfo(arena+hblkhd)
        352092 MiB available memory on the node where the printing process lives
------------------
     ethr =  5.90E-05,  avg # of iterations =  5.8

     total cpu time spent up to now is       15.5 secs

     total energy              =    -753.44417889 Ry
     estimated scf accuracy    <       0.08158475 Ry

     total magnetization       =     3.36 Bohr mag/cell
     absolute magnetization    =     3.67 Bohr mag/cell

     iteration #  5     ecut=   110.00 Ry     beta= 0.70
     Davidson diagonalization with overlap

---- Real-time Memory Report at c_bands before calling an iterative solver
            82 MiB given to the printing process from OS
             0 MiB allocation reported by mallinfo(arena+hblkhd)
        352083 MiB available memory on the node where the printing process lives
------------------
     ethr =  5.90E-05,  avg # of iterations =  4.1

     total cpu time spent up to now is       17.3 secs

     total energy              =    -753.45413774 Ry
     estimated scf accuracy    <       0.00121762 Ry

     total magnetization       =     3.31 Bohr mag/cell
     absolute magnetization    =     3.61 Bohr mag/cell

     iteration #  6     ecut=   110.00 Ry     beta= 0.70
     Davidson diagonalization with overlap

---- Real-time Memory Report at c_bands before calling an iterative solver
            83 MiB given to the printing process from OS
             0 MiB allocation reported by mallinfo(arena+hblkhd)
        352073 MiB available memory on the node where the printing process lives
------------------
     ethr =  3.58E-06,  avg # of iterations =  4.9

     total cpu time spent up to now is       19.4 secs

     total energy              =    -753.45490672 Ry
     estimated scf accuracy    <       0.00036356 Ry

     total magnetization       =     3.31 Bohr mag/cell
     absolute magnetization    =     3.62 Bohr mag/cell

     iteration #  7     ecut=   110.00 Ry     beta= 0.70
     Davidson diagonalization with overlap

---- Real-time Memory Report at c_bands before calling an iterative solver
            83 MiB given to the printing process from OS
             0 MiB allocation reported by mallinfo(arena+hblkhd)
        352065 MiB available memory on the node where the printing process lives
------------------
     ethr =  1.07E-06,  avg # of iterations =  3.6

     total cpu time spent up to now is       21.1 secs

     total energy              =    -753.45505419 Ry
     estimated scf accuracy    <       0.00002516 Ry

     total magnetization       =     3.31 Bohr mag/cell
     absolute magnetization    =     3.62 Bohr mag/cell

     iteration #  8     ecut=   110.00 Ry     beta= 0.70
     Davidson diagonalization with overlap

---- Real-time Memory Report at c_bands before calling an iterative solver
            84 MiB given to the printing process from OS
             0 MiB allocation reported by mallinfo(arena+hblkhd)
        352055 MiB available memory on the node where the printing process lives
------------------
     ethr =  7.40E-08,  avg # of iterations =  7.8

     total cpu time spent up to now is       23.7 secs

     total energy              =    -753.45506054 Ry
     estimated scf accuracy    <       0.00003404 Ry

     total magnetization       =     3.31 Bohr mag/cell
     absolute magnetization    =     3.63 Bohr mag/cell

     iteration #  9     ecut=   110.00 Ry     beta= 0.70
     Davidson diagonalization with overlap

---- Real-time Memory Report at c_bands before calling an iterative solver
            84 MiB given to the printing process from OS
             0 MiB allocation reported by mallinfo(arena+hblkhd)
        352049 MiB available memory on the node where the printing process lives
------------------
     ethr =  7.40E-08,  avg # of iterations =  3.5

     total cpu time spent up to now is       25.4 secs

     total energy              =    -753.45506924 Ry
     estimated scf accuracy    <       0.00000134 Ry

     total magnetization       =     3.31 Bohr mag/cell
     absolute magnetization    =     3.63 Bohr mag/cell

     iteration # 10     ecut=   110.00 Ry     beta= 0.70
     Davidson diagonalization with overlap

---- Real-time Memory Report at c_bands before calling an iterative solver
            85 MiB given to the printing process from OS
             0 MiB allocation reported by mallinfo(arena+hblkhd)
        352043 MiB available memory on the node where the printing process lives
------------------
     ethr =  3.95E-09,  avg # of iterations =  7.2
 
     Magnetic moment per site  (integrated on atomic sphere of radius R)
     atom   1 (R=0.412)  charge= 15.5953  magn=  1.7290
     atom   2 (R=0.412)  charge= 15.5953  magn=  1.7290

     total cpu time spent up to now is       27.9 secs

     End of self-consistent calculation

 ------ SPIN UP ------------


          k = 0.0000 0.0000 0.0000 (  2803 PWs)   bands (ev):

   -77.2621 -77.2053 -40.6678 -40.3631 -40.3631 -40.3370 -40.3161 -40.3161
     9.8235  13.6291  16.1706  16.2426  16.2426  16.5526  16.5526  16.9229
    16.9229  18.0168  18.0168  18.5467  25.1338

     occupation numbers 
     1.0000   1.0000   1.0000   1.0000   1.0000   1.0000   1.0000   1.0000
     1.0000   1.0000   1.0000   1.0000   1.0000   1.0000   1.0000   1.0000
     1.0000   1.0000   1.0000   1.0000   0.0000

          k = 0.0000 0.0000 0.1023 (  2839 PWs)   bands (ev):

   -77.2583 -77.2091 -40.6459 -40.3600 -40.3600 -40.3594 -40.3193 -40.3193
    10.0996  13.5563  16.1005  16.1812  16.1812  16.4807  16.4807  17.0818
    17.0818  17.6060  17.9992  17.9992  26.6409

     occupation numbers 
     1.0000   1.0000   1.0000   1.0000   1.0000   1.0000   1.0000   1.0000
     1.0000   1.0000   1.0000   1.0000   1.0000   1.0000   1.0000   1.0000
     1.0000   1.0000   1.0000   1.0000   0.0000

          k = 0.0000 0.0000 0.2046 (  2828 PWs)   bands (ev):

   -77.2479 -77.2195 -40.5860 -40.4205 -40.3514 -40.3514 -40.3279 -40.3279
    10.8914  13.1104  15.9387  16.1287  16.1287  16.3066  16.3218  16.3218
    17.3987  17.3987  17.9095  17.9095  29.8368

     occupation numbers 
     1.0000   1.0000   1.0000   1.0000   1.0000   1.0000   1.0000   1.0000
     1.0000   1.0000   1.0000   1.0000   1.0000   1.0000   1.0000   1.0000
     1.0000   1.0000   1.0000   1.0000   0.0000

          k = 0.0000 0.0000-0.3069 (  2834 PWs)   bands (ev):

   -77.2337 -77.2337 -40.5036 -40.5036 -40.3396 -40.3396 -40.3396 -40.3396
    12.0450  12.0450  15.8616  15.8616  16.1800  16.1800  16.1800  16.1800
    17.7033  17.7033  17.7033  17.7033  33.6563

     occupation numbers 
     1.0000   1.0000   1.0000   1.0000   1.0000   1.0000   1.0000   1.0000
     1.0000   1.0000   1.0000   1.0000   1.0000   1.0000   1.0000   1.0000
     1.0000   1.0000   1.0000   1.0000   0.0000

          k = 0.0000 0.0962 0.0000 (  2821 PWs)   bands (ev):

   -77.2587 -77.2037 -40.6605 -40.3795 -40.3684 -40.3399 -40.3331 -40.3189
    10.0679  13.7779  15.9877  16.3587  16.3896  16.5018  16.6557  16.7548
    16.8510  17.1833  18.0465  19.7117  25.1732

     occupation numbers 
     1.0000   1.0000   1.0000   1.0000   1.0000   1.0000   1.0000   1.0000
     1.0000   1.0000   1.0000   1.0000   1.0000   1.0000   1.0000   1.0000
     1.0000   1.0000   1.0000   0.0000   0.0000

          k = 0.0000 0.0962 0.1023 (  2826 PWs)   bands (ev):

   -77.2551 -77.2074 -40.6399 -40.3760 -40.3663 -40.3651 -40.3314 -40.3222
    10.3398  13.7197  15.9869  16.2188  16.2812  16.3181  16.5780  16.8544
    17.0361  17.1070  18.0216  18.9576  26.7500

     occupation numbers 
     1.0000   1.0000   1.0000   1.0000   1.0000   1.0000   1.0000   1.0000
     1.0000   1.0000   1.0000   1.0000   1.0000   1.0000   1.0000   1.0000
     1.0000   1.0000   1.0000   0.0000   0.0000

          k = 0.0000 0.0962 0.2046 (  2839 PWs)   bands (ev):

   -77.2450 -77.2175 -40.5832 -40.4262 -40.3659 -40.3561 -40.3394 -40.3313
    11.1190  13.3017  15.8711  15.9223  16.0477  16.2214  16.4177  16.4662
    17.3723  17.4162  17.9153  18.2076  29.9916

     occupation numbers 
     1.0000   1.0000   1.0000   1.0000   1.0000   1.0000   1.0000   1.0000
     1.0000   1.0000   1.0000   1.0000   1.0000   1.0000   1.0000   1.0000
     1.0000   1.0000   1.0000   1.0000   0.0000

          k = 0.0000 0.0962-0.3069 (  2838 PWs)   bands (ev):

   -77.2313 -77.2313 -40.5052 -40.5052 -40.3525 -40.3525 -40.3437 -40.3437
    12.2542  12.2542  15.7221  15.7221  16.1856  16.1856  16.2740  16.2740
    17.6918  17.6918  17.7945  17.7945  33.8265

     occupation numbers 
     1.0000   1.0000   1.0000   1.0000   1.0000   1.0000   1.0000   1.0000
     1.0000   1.0000   1.0000   1.0000   1.0000   1.0000   1.0000   1.0000
     1.0000   1.0000   1.0000   1.0000   0.0000

          k = 0.0000 0.1925 0.0000 (  2817 PWs)   bands (ev):

   -77.2495 -77.1994 -40.6398 -40.4247 -40.3826 -40.3792 -40.3486 -40.3268
    10.7747  14.1465  15.7188  15.9883  16.3164  16.6737  16.6864  16.6959
    16.8465  16.9450  18.1093  21.3161  25.3126

     occupation numbers 
     1.0000   1.0000   1.0000   1.0000   1.0000   1.0000   1.0000   1.0000
     1.0000   1.0000   1.0000   1.0000   1.0000   1.0000   1.0000   1.0000
     1.0000   1.0000   1.0000   0.0000   0.0000

          k = 0.0000 0.1925 0.1023 (  2818 PWs)   bands (ev):

   -77.2461 -77.2028 -40.6231 -40.4196 -40.3987 -40.3789 -40.3513 -40.3306
    11.0304  14.1329  15.7137  15.7604  16.1951  16.4993  16.5815  16.8307
    17.0124  17.0948  18.0683  20.1937  27.1055

     occupation numbers 
     1.0000   1.0000   1.0000   1.0000   1.0000   1.0000   1.0000   1.0000
     1.0000   1.0000   1.0000   1.0000   1.0000   1.0000   1.0000   1.0000
     1.0000   1.0000   1.0000   0.0000   0.0000

          k = 0.0000 0.1925 0.2046 (  2817 PWs)   bands (ev):

   -77.2370 -77.2120 -40.5773 -40.4496 -40.4031 -40.3687 -40.3635 -40.3408
    11.7601  13.7970  15.3740  15.8198  15.9096  16.4050  16.4485  16.6830
    17.3439  17.5002  17.9275  18.8528  30.4547

     occupation numbers 
     1.0000   1.0000   1.0000   1.0000   1.0000   1.0000   1.0000   1.0000
     1.0000   1.0000   1.0000   1.0000   1.0000   1.0000   1.0000   1.0000
     1.0000   1.0000   1.0000   0.2201   0.0000

          k = 0.0000 0.1925-0.3069 (  2838 PWs)   bands (ev):

   -77.2245 -77.2245 -40.5140 -40.5140 -40.3830 -40.3830 -40.3548 -40.3548
    12.8169  12.8169  15.4943  15.4943  16.1217  16.1217  16.5245  16.5245
    17.6750  17.6750  18.0403  18.0403  34.2937

     occupation numbers 
     1.0000   1.0000   1.0000   1.0000   1.0000   1.0000   1.0000   1.0000
     1.0000   1.0000   1.0000   1.0000   1.0000   1.0000   1.0000   1.0000
     1.0000   1.0000   1.0000   1.0000   0.0000

          k = 0.0000 0.2887 0.0000 (  2816 PWs)   bands (ev):

   -77.2364 -77.1941 -40.6088 -40.4868 -40.4412 -40.4015 -40.3633 -40.3381
    11.8433  14.4428  15.2569  15.5546  16.2121  16.4605  16.6404  17.1337
    17.1621  17.3608  18.1678  23.1183  25.5849

     occupation numbers 
     1.0000   1.0000   1.0000   1.0000   1.0000   1.0000   1.0000   1.0000
     1.0000   1.0000   1.0000   1.0000   1.0000   1.0000   1.0000   1.0000
     1.0000   1.0000   1.0000   0.0000   0.0000

          k = 0.0000 0.2887 0.1023 (  2814 PWs)   bands (ev):

   -77.2335 -77.1970 -40.6011 -40.4772 -40.4553 -40.3973 -40.3666 -40.3424
    12.0558  14.4828  15.1135  15.6076  16.0611  16.4994  16.6389  17.2044
    17.2614  17.3174  18.1126  21.4787  27.7452

     occupation numbers 
     1.0000   1.0000   1.0000   1.0000   1.0000   1.0000   1.0000   1.0000
     1.0000   1.0000   1.0000   1.0000   1.0000   1.0000   1.0000   1.0000
     1.0000   1.0000   1.0000   0.0000   0.0000

          k = 0.0000 0.2887 0.2046 (  2826 PWs)   bands (ev):

   -77.2258 -77.2047 -40.5778 -40.4978 -40.4436 -40.3857 -40.3815 -40.3540
    12.6475  14.2362  15.0401  15.6334  15.9357  16.4782  16.6219  17.0565
    17.4676  17.6580  17.9533  19.6271  31.1036

     occupation numbers 
     1.0000   1.0000   1.0000   1.0000   1.0000   1.0000   1.0000   1.0000
     1.0000   1.0000   1.0000   1.0000   1.0000   1.0000   1.0000   1.0000
     1.0000   1.0000   1.0000   0.0000   0.0000

          k = 0.0000 0.2887-0.3069 (  2838 PWs)   bands (ev):

   -77.2153 -77.2153 -40.5408 -40.5408 -40.4097 -40.4097 -40.3699 -40.3699
    13.4679  13.4679  15.3381  15.3381  16.1816  16.1816  16.8224  16.8224
    17.7187  17.7187  18.3858  18.3858  33.3497

     occupation numbers 
     1.0000   1.0000   1.0000   1.0000   1.0000   1.0000   1.0000   1.0000
     1.0000   1.0000   1.0000   1.0000   1.0000   1.0000   1.0000   1.0000
     1.0000   1.0000   1.0000   1.0000   0.0000

          k = 0.0000 0.3849 0.0000 (  2828 PWs)   bands (ev):

   -77.2223 -77.1897 -40.5725 -40.5494 -40.5020 -40.4199 -40.3832 -40.3498
    13.0087  14.3743  14.7306  15.6645  16.2684  16.3348  16.4523  17.6698
    17.8112  17.8358  18.2070  25.0805  25.6674

     occupation numbers 
     1.0000   1.0000   1.0000   1.0000   1.0000   1.0000   1.0000   1.0000
     1.0000   1.0000   1.0000   1.0000   1.0000   1.0000   1.0000   1.0000
     1.0000   1.0000   1.0000   0.0000   0.0000

          k = 0.0000 0.3849 0.1023 (  2830 PWs)   bands (ev):

   -77.2202 -77.1919 -40.5919 -40.5260 -40.5058 -40.4153 -40.3835 -40.3545
    13.1061  14.4017  14.7675  15.5157  16.2614  16.3610  16.8015  17.6857
    17.7200  17.7722  18.1563  22.7234  27.8758

     occupation numbers 
     1.0000   1.0000   1.0000   1.0000   1.0000   1.0000   1.0000   1.0000
     1.0000   1.0000   1.0000   1.0000   1.0000   1.0000   1.0000   1.0000
     1.0000   1.0000   1.0000   0.0000   0.0000

          k = 0.0000 0.3849 0.2046 (  2819 PWs)   bands (ev):

   -77.2142 -77.1979 -40.5987 -40.5534 -40.4623 -40.4025 -40.3929 -40.3674
    13.3811  14.2165  14.9130  15.4223  16.3710  16.6220  17.1123  17.3998
    17.7916  17.8891  18.0438  20.5166  29.0242

     occupation numbers 
     1.0000   1.0000   1.0000   1.0000   1.0000   1.0000   1.0000   1.0000
     1.0000   1.0000   1.0000   1.0000   1.0000   1.0000   1.0000   1.0000
     1.0000   1.0000   1.0000   0.0000   0.0000

          k = 0.0000 0.3849-0.3069 (  2834 PWs)   bands (ev):

   -77.2060 -77.2060 -40.5837 -40.5837 -40.4199 -40.4199 -40.3849 -40.3849
    13.7859  13.7859  15.2047  15.2047  16.7899  16.7899  16.9991  16.9991
    17.9133  17.9133  18.8680  18.8680  30.1387

     occupation numbers 
     1.0000   1.0000   1.0000   1.0000   1.0000   1.0000   1.0000   1.0000
     1.0000   1.0000   1.0000   1.0000   1.0000   1.0000   1.0000   1.0000
     1.0000   1.0000   0.0094   0.0094   0.0000

          k = 0.0000 0.4811 0.0000 (  2838 PWs)   bands (ev):

   -77.2109 -77.1877 -40.5956 -40.5459 -40.5390 -40.4332 -40.4047 -40.3586
    13.7744  14.1836  14.4168  16.0243  16.1372  16.3187  16.5439  18.0505
    18.1836  18.2274  18.9668  23.8897  27.1056

     occupation numbers 
     1.0000   1.0000   1.0000   1.0000   1.0000   1.0000   1.0000   1.0000
     1.0000   1.0000   1.0000   1.0000   1.0000   1.0000   1.0000   1.0000
     1.0000   1.0000   0.0000   0.0000   0.0000

          k = 0.0000 0.4811 0.1023 (  2824 PWs)   bands (ev):

   -77.2093 -77.1892 -40.6139 -40.5632 -40.5069 -40.4282 -40.4011 -40.3636
    13.6633  14.1758  14.7330  15.4065  16.2501  16.5481  17.1605  17.9742
    18.0810  18.2459  18.8045  23.0806  26.4795

     occupation numbers 
     1.0000   1.0000   1.0000   1.0000   1.0000   1.0000   1.0000   1.0000
     1.0000   1.0000   1.0000   1.0000   1.0000   1.0000   1.0000   1.0000
     1.0000   1.0000   1.0000   0.0000   0.0000

          k = 0.0000 0.4811 0.2046 (  2821 PWs)   bands (ev):

   -77.2051 -77.1935 -40.6283 -40.5951 -40.4593 -40.4146 -40.4022 -40.3773
    13.6288  14.1026  14.8983  15.2208  16.5704  16.8055  17.5574  18.1136
    18.1384  18.2169  18.4733  21.3530  26.6387

     occupation numbers 
     1.0000   1.0000   1.0000   1.0000   1.0000   1.0000   1.0000   1.0000
     1.0000   1.0000   1.0000   1.0000   1.0000   1.0000   1.0000   1.0000
     1.0000   1.0000   1.0000   0.0000   0.0000

          k = 0.0000 0.4811-0.3069 (  2830 PWs)   bands (ev):

   -77.1993 -77.1993 -40.6211 -40.6211 -40.4213 -40.4213 -40.3960 -40.3960
    13.8119  13.8119  15.0793  15.0793  17.0404  17.0404  17.5230  17.5230
    18.1661  18.1661  19.6990  19.6990  27.4149

     occupation numbers 
     1.0000   1.0000   1.0000   1.0000   1.0000   1.0000   1.0000   1.0000
     1.0000   1.0000   1.0000   1.0000   1.0000   1.0000   1.0000   1.0000
     1.0000   1.0000   0.0000   0.0000   0.0000

          k = 0.0000-0.5774 0.0000 (  2830 PWs)   bands (ev):

   -77.2061 -77.1875 -40.6125 -40.5618 -40.5234 -40.4381 -40.4160 -40.3618
    14.0300  14.0449  14.3128  16.0908  16.2705  16.2763  16.6198  18.1882
    18.2335  18.3344  20.1327  22.1685  28.4190

     occupation numbers 
     1.0000   1.0000   1.0000   1.0000   1.0000   1.0000   1.0000   1.0000
     1.0000   1.0000   1.0000   1.0000   1.0000   1.0000   1.0000   1.0000
     1.0000   1.0000   0.0000   0.0000   0.0000

          k = 0.0000-0.5774 0.1023 (  2826 PWs)   bands (ev):

   -77.2048 -77.1887 -40.6271 -40.5782 -40.4981 -40.4330 -40.4101 -40.3669
    13.7632  14.0790  14.7667  15.3782  16.2095  16.6353  17.3651  18.0296
    18.2275  18.3267  19.9175  21.9848  27.5759

     occupation numbers 
     1.0000   1.0000   1.0000   1.0000   1.0000   1.0000   1.0000   1.0000
     1.0000   1.0000   1.0000   1.0000   1.0000   1.0000   1.0000   1.0000
     1.0000   1.0000   0.0000   0.0000   0.0000

          k = 0.0000-0.5774 0.2046 (  2842 PWs)   bands (ev):

   -77.2014 -77.1921 -40.6412 -40.6104 -40.4549 -40.4191 -40.4066 -40.3809
    13.6482  14.0577  14.9250  15.1277  16.5467  16.9493  17.5894  18.2476
    18.2577  18.3057  19.5747  21.3699  26.5319

     occupation numbers 
     1.0000   1.0000   1.0000   1.0000   1.0000   1.0000   1.0000   1.0000
     1.0000   1.0000   1.0000   1.0000   1.0000   1.0000   1.0000   1.0000
     1.0000   1.0000   0.0000   0.0000   0.0000

          k = 0.0000-0.5774-0.3069 (  2840 PWs)   bands (ev):

   -77.1968 -77.1968 -40.6354 -40.6354 -40.4211 -40.4211 -40.4000 -40.4000
    13.7950  13.7950  15.0304  15.0304  17.0427  17.0427  17.7669  17.7669
    18.2767  18.2767  20.3529  20.3529  26.1545

     occupation numbers 
     1.0000   1.0000   1.0000   1.0000   1.0000   1.0000   1.0000   1.0000
     1.0000   1.0000   1.0000   1.0000   1.0000   1.0000   1.0000   1.0000
     1.0000   1.0000   0.0000   0.0000   0.0000

          k = 0.0833 0.1443 0.0000 (  2823 PWs)   bands (ev):

   -77.2525 -77.2008 -40.6466 -40.4076 -40.3854 -40.3581 -40.3457 -40.3264
    10.5444  14.0426  15.7763  16.2381  16.3929  16.5415  16.5955  16.6392
    16.8818  16.9742  18.0822  20.8676  25.2646

     occupation numbers 
     1.0000   1.0000   1.0000   1.0000   1.0000   1.0000   1.0000   1.0000
     1.0000   1.0000   1.0000   1.0000   1.0000   1.0000   1.0000   1.0000
     1.0000   1.0000   1.0000   0.0000   0.0000

          k = 0.0833 0.1443 0.1023 (  2833 PWs)   bands (ev):

   -77.2490 -77.2042 -40.6284 -40.4028 -40.3911 -40.3733 -40.3445 -40.3300
    10.8063  14.0146  15.8043  15.9029  16.2409  16.4509  16.5597  16.7451
    17.0296  17.0907  18.0490  19.8584  26.9844

     occupation numbers 
     1.0000   1.0000   1.0000   1.0000   1.0000   1.0000   1.0000   1.0000
     1.0000   1.0000   1.0000   1.0000   1.0000   1.0000   1.0000   1.0000
     1.0000   1.0000   1.0000   0.0000   0.0000

          k = 0.0833 0.1443 0.2046 (  2820 PWs)   bands (ev):

   -77.2396 -77.2137 -40.5787 -40.4407 -40.3901 -40.3696 -40.3524 -40.3396
    11.5551  13.6516  15.4983  15.8668  15.9217  16.3727  16.4273  16.6011
    17.3737  17.4470  17.9265  18.6659  30.3033

     occupation numbers 
     1.0000   1.0000   1.0000   1.0000   1.0000   1.0000   1.0000   1.0000
     1.0000   1.0000   1.0000   1.0000   1.0000   1.0000   1.0000   1.0000
     1.0000   1.0000   1.0000   1.0000   0.0000

          k = 0.0833 0.1443-0.3069 (  2830 PWs)   bands (ev):

   -77.2266 -77.2266 -40.5102 -40.5102 -40.3738 -40.3738 -40.3518 -40.3518
    12.6438  12.6438  15.5527  15.5527  16.1234  16.1234  16.4585  16.4585
    17.6804  17.6804  17.9637  17.9637  34.1550

     occupation numbers 
     1.0000   1.0000   1.0000   1.0000   1.0000   1.0000   1.0000   1.0000
     1.0000   1.0000   1.0000   1.0000   1.0000   1.0000   1.0000   1.0000
     1.0000   1.0000   1.0000   1.0000   0.0000

          k = 0.0833 0.2406 0.0000 (  2822 PWs)   bands (ev):

   -77.2413 -77.1960 -40.6206 -40.4573 -40.4281 -40.3866 -40.3575 -40.3392
    11.4408  14.4212  15.5041  15.5244  16.2612  16.4078  16.8035  16.8237
    17.0276  17.3066  18.1253  22.4688  25.4919

     occupation numbers 
     1.0000   1.0000   1.0000   1.0000   1.0000   1.0000   1.0000   1.0000
     1.0000   1.0000   1.0000   1.0000   1.0000   1.0000   1.0000   1.0000
     1.0000   1.0000   1.0000   0.0000   0.0000

          k = 0.0833 0.2406 0.1023 (  2814 PWs)   bands (ev):

   -77.2382 -77.1990 -40.6086 -40.4506 -40.4376 -40.3913 -40.3586 -40.3429
    11.6750  14.4523  15.3130  15.5550  16.1432  16.4145  16.6387  16.9474
    17.2193  17.2852  18.0870  21.0369  27.5038

     occupation numbers 
     1.0000   1.0000   1.0000   1.0000   1.0000   1.0000   1.0000   1.0000
     1.0000   1.0000   1.0000   1.0000   1.0000   1.0000   1.0000   1.0000
     1.0000   1.0000   1.0000   0.0000   0.0000

          k = 0.0833 0.2406 0.2046 (  2824 PWs)   bands (ev):

   -77.2300 -77.2073 -40.5751 -40.4774 -40.4270 -40.3905 -40.3672 -40.3532
    12.3368  14.1764  15.1242  15.6635  15.8705  16.3001  16.5977  16.9258
    17.4636  17.5734  17.9649  19.3588  30.9131

     occupation numbers 
     1.0000   1.0000   1.0000   1.0000   1.0000   1.0000   1.0000   1.0000
     1.0000   1.0000   1.0000   1.0000   1.0000   1.0000   1.0000   1.0000
     1.0000   1.0000   1.0000   0.0000   0.0000

          k = 0.0833 0.2406-0.3069 (  2828 PWs)   bands (ev):

   -77.2186 -77.2186 -40.5275 -40.5275 -40.4019 -40.4019 -40.3658 -40.3658
    13.2804  13.2804  15.3968  15.3968  16.0151  16.0151  16.7439  16.7439
    17.7250  17.7250  18.2623  18.2623  34.5678

     occupation numbers 
     1.0000   1.0000   1.0000   1.0000   1.0000   1.0000   1.0000   1.0000
     1.0000   1.0000   1.0000   1.0000   1.0000   1.0000   1.0000   1.0000
     1.0000   1.0000   1.0000   1.0000   0.0000

          k = 0.0833 0.3368 0.0000 (  2814 PWs)   bands (ev):

   -77.2276 -77.1912 -40.5867 -40.5181 -40.4809 -40.4131 -40.3750 -40.3531
    12.5953  14.5452  14.9479  15.4355  16.2153  16.2638  16.6193  17.2216
    17.5403  17.8824  18.1610  24.3128  25.8413

     occupation numbers 
     1.0000   1.0000   1.0000   1.0000   1.0000   1.0000   1.0000   1.0000
     1.0000   1.0000   1.0000   1.0000   1.0000   1.0000   1.0000   1.0000
     1.0000   1.0000   1.0000   0.0000   0.0000

          k = 0.0833 0.3368 0.1023 (  2826 PWs)   bands (ev):

   -77.2252 -77.1936 -40.5897 -40.5059 -40.4865 -40.4130 -40.3754 -40.3565
    12.7580  14.6071  14.8565  15.4836  16.0541  16.4451  16.5903  17.2519
    17.6280  17.7423  18.1719  22.3055  28.2479

     occupation numbers 
     1.0000   1.0000   1.0000   1.0000   1.0000   1.0000   1.0000   1.0000
     1.0000   1.0000   1.0000   1.0000   1.0000   1.0000   1.0000   1.0000
     1.0000   1.0000   1.0000   0.0000   0.0000

          k = 0.0833 0.3368 0.2046 (  2824 PWs)   bands (ev):

   -77.2185 -77.2003 -40.5845 -40.5292 -40.4558 -40.4080 -40.3832 -40.3665
    13.1986  14.3574  14.9710  15.5506  15.9687  16.4547  16.6632  17.2561
    17.6914  17.8571  18.1399  20.2171  30.6574

     occupation numbers 
     1.0000   1.0000   1.0000   1.0000   1.0000   1.0000   1.0000   1.0000
     1.0000   1.0000   1.0000   1.0000   1.0000   1.0000   1.0000   1.0000
     1.0000   1.0000   1.0000   0.0000   0.0000

          k = 0.0833 0.3368-0.3069 (  2840 PWs)   bands (ev):

   -77.2094 -77.2094 -40.5624 -40.5624 -40.4202 -40.4202 -40.3810 -40.3810
    13.7885  13.7885  15.3126  15.3126  16.1935  16.1935  16.9381  16.9381
    17.9311  17.9311  18.7232  18.7232  31.8577

     occupation numbers 
     1.0000   1.0000   1.0000   1.0000   1.0000   1.0000   1.0000   1.0000
     1.0000   1.0000   1.0000   1.0000   1.0000   1.0000   1.0000   1.0000
     1.0000   1.0000   1.0000   1.0000   0.0000

          k = 0.0833 0.4330 0.0000 (  2832 PWs)   bands (ev):

   -77.2147 -77.1881 -40.5720 -40.5508 -40.5269 -40.4341 -40.3967 -40.3650
    13.6107  14.3673  14.5591  15.6662  16.0942  16.4126  16.4589  17.7494
    17.9771  18.1825  18.6886  25.2109  26.3150

     occupation numbers 
     1.0000   1.0000   1.0000   1.0000   1.0000   1.0000   1.0000   1.0000
     1.0000   1.0000   1.0000   1.0000   1.0000   1.0000   1.0000   1.0000
     1.0000   1.0000   1.0000   0.0000   0.0000

          k = 0.0833 0.4330 0.1023 (  2829 PWs)   bands (ev):

   -77.2129 -77.1899 -40.5969 -40.5464 -40.5084 -40.4309 -40.3945 -40.3683
    13.6013  14.3859  14.7153  15.4187  16.1702  16.4938  16.7588  17.6990
    18.0006  18.0372  18.6879  23.3912  27.0239

     occupation numbers 
     1.0000   1.0000   1.0000   1.0000   1.0000   1.0000   1.0000   1.0000
     1.0000   1.0000   1.0000   1.0000   1.0000   1.0000   1.0000   1.0000
     1.0000   1.0000   1.0000   0.0000   0.0000

          k = 0.0833 0.4330 0.2046 (  2829 PWs)   bands (ev):

   -77.2080 -77.1948 -40.6106 -40.5758 -40.4632 -40.4203 -40.3987 -40.3768
    13.6803  14.2541  14.9040  15.3783  16.2765  16.7104  17.1527  17.4447
    17.8739  18.1924  18.7498  21.2420  27.7502

     occupation numbers 
     1.0000   1.0000   1.0000   1.0000   1.0000   1.0000   1.0000   1.0000
     1.0000   1.0000   1.0000   1.0000   1.0000   1.0000   1.0000   1.0000
     1.0000   1.0000   1.0000   0.0000   0.0000

          k = 0.0833 0.4330-0.3069 (  2828 PWs)   bands (ev):

   -77.2014 -77.2014 -40.6019 -40.6019 -40.4287 -40.4287 -40.3921 -40.3921
    13.9228  13.9228  15.1908  15.1908  16.7175  16.7175  17.1131  17.1131
    18.1415  18.1415  19.5741  19.5741  28.7874

     occupation numbers 
     1.0000   1.0000   1.0000   1.0000   1.0000   1.0000   1.0000   1.0000
     1.0000   1.0000   1.0000   1.0000   1.0000   1.0000   1.0000   1.0000
     1.0000   1.0000   0.0000   0.0000   0.0000

          k = 0.0833 0.5292 0.0000 (  2827 PWs)   bands (ev):

   -77.2061 -77.1875 -40.6033 -40.5534 -40.5236 -40.4458 -40.4158 -40.3719
    14.0623  14.2029  14.3651  16.0343  16.0532  16.2696  16.6176  18.1317
    18.1917  18.2086  19.9706  22.9396  28.2264

     occupation numbers 
     1.0000   1.0000   1.0000   1.0000   1.0000   1.0000   1.0000   1.0000
     1.0000   1.0000   1.0000   1.0000   1.0000   1.0000   1.0000   1.0000
     1.0000   1.0000   0.0000   0.0000   0.0000

          k = 0.0833 0.5292 0.1023 (  2833 PWs)   bands (ev):

   -77.2049 -77.1887 -40.6181 -40.5703 -40.4994 -40.4395 -40.4111 -40.3752
    13.8453  14.2123  14.8014  15.3612  16.1011  16.6811  17.0283  17.9736
    18.1525  18.2385  19.9002  22.6669  26.9956

     occupation numbers 
     1.0000   1.0000   1.0000   1.0000   1.0000   1.0000   1.0000   1.0000
     1.0000   1.0000   1.0000   1.0000   1.0000   1.0000   1.0000   1.0000
     1.0000   1.0000   0.0000   0.0000   0.0000

          k = 0.0833 0.5292 0.2046 (  2832 PWs)   bands (ev):

   -77.2014 -77.1921 -40.6324 -40.6023 -40.4618 -40.4222 -40.4120 -40.3827
    13.7532  14.1861  14.9334  15.2372  16.2735  17.0152  17.4275  17.6935
    18.1115  18.3063  19.9333  21.7929  26.2945

     occupation numbers 
     1.0000   1.0000   1.0000   1.0000   1.0000   1.0000   1.0000   1.0000
     1.0000   1.0000   1.0000   1.0000   1.0000   1.0000   1.0000   1.0000
     1.0000   1.0000   0.0000   0.0000   0.0000

          k = 0.0833 0.5292-0.3069 (  2834 PWs)   bands (ev):

   -77.1968 -77.1968 -40.6269 -40.6269 -40.4328 -40.4328 -40.3969 -40.3969
    13.9097  13.9097  15.1044  15.1044  16.8232  16.8232  17.5489  17.5489
    18.1827  18.1827  20.6646  20.6646  26.5727

     occupation numbers 
     1.0000   1.0000   1.0000   1.0000   1.0000   1.0000   1.0000   1.0000
     1.0000   1.0000   1.0000   1.0000   1.0000   1.0000   1.0000   1.0000
     1.0000   1.0000   0.0000   0.0000   0.0000

          k = 0.1667 0.2887 0.0000 (  2820 PWs)   bands (ev):

   -77.2295 -77.1918 -40.5916 -40.4936 -40.4844 -40.4053 -40.3723 -40.3614
    12.4496  14.7288  15.0630  15.2064  16.1395  16.2678  16.7206  16.9725
    17.5267  17.9062  18.1203  24.0537  25.8809

     occupation numbers 
     1.0000   1.0000   1.0000   1.0000   1.0000   1.0000   1.0000   1.0000
     1.0000   1.0000   1.0000   1.0000   1.0000   1.0000   1.0000   1.0000
     1.0000   1.0000   1.0000   0.0000   0.0000

          k = 0.1667 0.2887 0.1023 (  2817 PWs)   bands (ev):

   -77.2270 -77.1943 -40.5899 -40.4923 -40.4791 -40.4137 -40.3684 -40.3654
    12.6344  14.8236  14.9188  15.2599  16.0996  16.2778  16.6046  17.0677
    17.6435  17.7323  18.1848  22.1679  28.2365

     occupation numbers 
     1.0000   1.0000   1.0000   1.0000   1.0000   1.0000   1.0000   1.0000
     1.0000   1.0000   1.0000   1.0000   1.0000   1.0000   1.0000   1.0000
     1.0000   1.0000   1.0000   0.0000   0.0000

          k = 0.1667 0.2887 0.2046 (  2822 PWs)   bands (ev):

   -77.2201 -77.2012 -40.5784 -40.5187 -40.4472 -40.4177 -40.3750 -40.3720
    13.1407  14.4790  15.0823  15.4139  15.9113  16.1419  16.6067  17.1927
    17.6971  17.8431  18.2165  20.1412  31.6033

     occupation numbers 
     1.0000   1.0000   1.0000   1.0000   1.0000   1.0000   1.0000   1.0000
     1.0000   1.0000   1.0000   1.0000   1.0000   1.0000   1.0000   1.0000
     1.0000   1.0000   1.0000   0.0000   0.0000

          k = 0.1667 0.2887-0.3069 (  2824 PWs)   bands (ev):

   -77.2107 -77.2107 -40.5526 -40.5526 -40.4211 -40.4211 -40.3809 -40.3809
    13.8247  13.8247  15.4046  15.4046  15.8590  15.8590  16.8860  16.8860
    17.9811  17.9811  18.7043  18.7043  33.5814

     occupation numbers 
     1.0000   1.0000   1.0000   1.0000   1.0000   1.0000   1.0000   1.0000
     1.0000   1.0000   1.0000   1.0000   1.0000   1.0000   1.0000   1.0000
     1.0000   1.0000   1.0000   1.0000   0.0000

          k = 0.1667 0.3849 0.0000 (  2830 PWs)   bands (ev):

   -77.2168 -77.1885 -40.5572 -40.5415 -40.5196 -40.4339 -40.3926 -40.3828
    13.5549  14.7038  14.7121  15.1821  15.9775  16.4107  16.5203  17.2924
    17.9737  18.1123  18.7228  25.9195  26.2826

     occupation numbers 
     1.0000   1.0000   1.0000   1.0000   1.0000   1.0000   1.0000   1.0000
     1.0000   1.0000   1.0000   1.0000   1.0000   1.0000   1.0000   1.0000
     1.0000   1.0000   1.0000   0.0000   0.0000

          k = 0.1667 0.3849 0.1023 (  2828 PWs)   bands (ev):

   -77.2149 -77.1904 -40.5801 -40.5377 -40.4972 -40.4408 -40.3912 -40.3806
    13.6307  14.6358  14.8105  15.2637  16.0237  16.4022  16.4745  17.3317
    17.9002  18.0616  18.8065  23.4677  28.4605

     occupation numbers 
     1.0000   1.0000   1.0000   1.0000   1.0000   1.0000   1.0000   1.0000
     1.0000   1.0000   1.0000   1.0000   1.0000   1.0000   1.0000   1.0000
     1.0000   1.0000   1.0000   0.0000   0.0000

          k = 0.1667 0.3849 0.2046 (  2830 PWs)   bands (ev):

   -77.2097 -77.1955 -40.5919 -40.5594 -40.4598 -40.4399 -40.3976 -40.3789
    13.8389  14.4327  15.0566  15.4922  15.9374  16.2399  16.6167  17.3123
    17.8051  18.2114  18.9853  21.2631  29.4624

     occupation numbers 
     1.0000   1.0000   1.0000   1.0000   1.0000   1.0000   1.0000   1.0000
     1.0000   1.0000   1.0000   1.0000   1.0000   1.0000   1.0000   1.0000
     1.0000   1.0000   0.0000   0.0000   0.0000

          k = 0.1667 0.3849-0.3069 (  2822 PWs)   bands (ev):

   -77.2026 -77.2026 -40.5829 -40.5829 -40.4401 -40.4401 -40.3907 -40.3907
    14.1320  14.1320  15.3967  15.3967  16.0213  16.0213  16.8965  16.8965
    18.1934  18.1934  19.6718  19.6718  30.6072

     occupation numbers 
     1.0000   1.0000   1.0000   1.0000   1.0000   1.0000   1.0000   1.0000
     1.0000   1.0000   1.0000   1.0000   1.0000   1.0000   1.0000   1.0000
     1.0000   1.0000   0.0000   0.0000   0.0000

          k = 0.1667 0.4811 0.0000 (  2842 PWs)   bands (ev):

   -77.2062 -77.1874 -40.5795 -40.5375 -40.5240 -40.4606 -40.4154 -40.3974
    14.2522  14.4832  14.5074  15.4963  15.9357  16.2992  16.6149  17.7181
    18.1057  18.1905  19.9091  24.6085  27.9411

     occupation numbers 
     1.0000   1.0000   1.0000   1.0000   1.0000   1.0000   1.0000   1.0000
     1.0000   1.0000   1.0000   1.0000   1.0000   1.0000   1.0000   1.0000
     1.0000   1.0000   0.0000   0.0000   0.0000

          k = 0.1667 0.4811 0.1023 (  2834 PWs)   bands (ev):

   -77.2049 -77.1887 -40.5947 -40.5571 -40.4988 -40.4566 -40.4144 -40.3927
    14.0889  14.5654  14.7547  15.3069  15.9852  16.4379  16.6948  17.7046
    17.9121  18.2516  19.9896  24.0265  26.8138

     occupation numbers 
     1.0000   1.0000   1.0000   1.0000   1.0000   1.0000   1.0000   1.0000
     1.0000   1.0000   1.0000   1.0000   1.0000   1.0000   1.0000   1.0000
     1.0000   1.0000   0.0000   0.0000   0.0000

          k = 0.1667 0.4811 0.2046 (  2834 PWs)   bands (ev):

   -77.2015 -77.1921 -40.6104 -40.5853 -40.4762 -40.4427 -40.4138 -40.3856
    14.0448  14.4834  14.9518  15.4934  15.8787  16.5681  16.9249  17.3970
    17.8961  18.3266  20.2950  22.4913  26.9151

     occupation numbers 
     1.0000   1.0000   1.0000   1.0000   1.0000   1.0000   1.0000   1.0000
     1.0000   1.0000   1.0000   1.0000   1.0000   1.0000   1.0000   1.0000
     1.0000   1.0000   0.0000   0.0000   0.0000

          k = 0.1667 0.4811-0.3069 (  2818 PWs)   bands (ev):

   -77.1968 -77.1968 -40.6070 -40.6070 -40.4559 -40.4559 -40.3940 -40.3940
    14.2000  14.2000  15.2923  15.2923  16.2892  16.2892  17.0842  17.0842
    18.1974  18.1974  21.0926  21.0926  27.7903

     occupation numbers 
     1.0000   1.0000   1.0000   1.0000   1.0000   1.0000   1.0000   1.0000
     1.0000   1.0000   1.0000   1.0000   1.0000   1.0000   1.0000   1.0000
     1.0000   1.0000   0.0000   0.0000   0.0000

          k = 0.1667 0.5774 0.0000 (  2838 PWs)   bands (ev):

   -77.2015 -77.1878 -40.5932 -40.5430 -40.5072 -40.4717 -40.4284 -40.4026
    14.4067  14.4094  14.4256  15.7203  15.9613  16.1778  16.7025  18.0082
    18.1030  18.1608  21.1754  22.7683  29.2378

     occupation numbers 
     1.0000   1.0000   1.0000   1.0000   1.0000   1.0000   1.0000   1.0000
     1.0000   1.0000   1.0000   1.0000   1.0000   1.0000   1.0000   1.0000
     1.0000   1.0000   0.0000   0.0000   0.0000

          k = 0.1667 0.5774 0.1023 (  2839 PWs)   bands (ev):

   -77.2005 -77.1887 -40.6051 -40.5610 -40.5004 -40.4532 -40.4285 -40.3978
    14.1109  14.4802  14.9214  15.2870  15.9064  16.5603  16.7878  17.8846
    18.0049  18.2113  21.2690  22.7128  28.0956

     occupation numbers 
     1.0000   1.0000   1.0000   1.0000   1.0000   1.0000   1.0000   1.0000
     1.0000   1.0000   1.0000   1.0000   1.0000   1.0000   1.0000   1.0000
     1.0000   1.0000   0.0000   0.0000   0.0000

          k = 0.1667 0.5774 0.2046 (  2841 PWs)   bands (ev):

   -77.1980 -77.1912 -40.6192 -40.5934 -40.4839 -40.4411 -40.4192 -40.3889
    14.0412  14.4952  14.9900  15.4479  15.7955  16.7693  17.0512  17.4673
    18.0216  18.2502  21.5643  22.4974  26.8349

     occupation numbers 
     1.0000   1.0000   1.0000   1.0000   1.0000   1.0000   1.0000   1.0000
     1.0000   1.0000   1.0000   1.0000   1.0000   1.0000   1.0000   1.0000
     1.0000   1.0000   0.0000   0.0000   0.0000

          k = 0.1667 0.5774-0.3069 (  2830 PWs)   bands (ev):

   -77.1946 -77.1946 -40.6161 -40.6161 -40.4622 -40.4622 -40.3945 -40.3945
    14.2029  14.2029  15.2514  15.2514  16.3286  16.3286  17.2921  17.2921
    18.1343  18.1343  22.0542  22.0542  26.3585

     occupation numbers 
     1.0000   1.0000   1.0000   1.0000   1.0000   1.0000   1.0000   1.0000
     1.0000   1.0000   1.0000   1.0000   1.0000   1.0000   1.0000   1.0000
     1.0000   1.0000   0.0000   0.0000   0.0000

          k = 0.2500 0.4330 0.0000 (  2860 PWs)   bands (ev):

   -77.2062 -77.1874 -40.5587 -40.5377 -40.5242 -40.4625 -40.4164 -40.4152
    14.3905  14.5515  14.9162  14.9545  15.8616  16.3216  16.6240  17.4756
    18.0613  18.1937  19.9221  26.3555  27.1681

     occupation numbers 
     1.0000   1.0000   1.0000   1.0000   1.0000   1.0000   1.0000   1.0000
     1.0000   1.0000   1.0000   1.0000   1.0000   1.0000   1.0000   1.0000
     1.0000   1.0000   0.0000   0.0000   0.0000

          k = 0.2500 0.4330 0.1023 (  2841 PWs)   bands (ev):

   -77.2049 -77.1886 -40.5714 -40.5631 -40.4850 -40.4761 -40.4191 -40.4000
    14.3918  14.5028  14.9655  15.0957  16.0128  16.1733  16.6224  17.5163
    17.8568  18.2585  20.0447  24.7904  27.4483

     occupation numbers 
     1.0000   1.0000   1.0000   1.0000   1.0000   1.0000   1.0000   1.0000
     1.0000   1.0000   1.0000   1.0000   1.0000   1.0000   1.0000   1.0000
     1.0000   1.0000   0.0000   0.0000   0.0000

          k = 0.2500 0.4330 0.2046 (  2824 PWs)   bands (ev):

   -77.2015 -77.1921 -40.5938 -40.5789 -40.4809 -40.4601 -40.4137 -40.3868
    14.3850  14.4470  15.1316  15.4784  15.8448  16.1224  16.6639  17.3057
    17.8632  18.3344  20.4154  22.7685  28.2235

     occupation numbers 
     1.0000   1.0000   1.0000   1.0000   1.0000   1.0000   1.0000   1.0000
     1.0000   1.0000   1.0000   1.0000   1.0000   1.0000   1.0000   1.0000
     1.0000   1.0000   0.0000   0.0000   0.0000

          k = 0.2500 0.4330-0.3069 (  2818 PWs)   bands (ev):

   -77.1968 -77.1968 -40.5946 -40.5946 -40.4693 -40.4693 -40.3931 -40.3931
    14.4038  14.4038  15.4514  15.4514  15.9072  15.9072  16.8777  16.8777
    18.2172  18.2172  21.2532  21.2532  29.2409

     occupation numbers 
     1.0000   1.0000   1.0000   1.0000   1.0000   1.0000   1.0000   1.0000
     1.0000   1.0000   1.0000   1.0000   1.0000   1.0000   1.0000   1.0000
     1.0000   1.0000   0.0000   0.0000   0.0000

          k = 0.2500 0.5292 0.0000 (  2848 PWs)   bands (ev):

   -77.1982 -77.1886 -40.5716 -40.5288 -40.4947 -40.4931 -40.4387 -40.4380
    14.4821  14.6819  14.7755  15.2769  15.8792  16.1134  16.7939  17.7616
    18.0314  18.1260  21.5894  24.1721  26.5123

     occupation numbers 
     1.0000   1.0000   1.0000   1.0000   1.0000   1.0000   1.0000   1.0000
     1.0000   1.0000   1.0000   1.0000   1.0000   1.0000   1.0000   1.0000
     1.0000   1.0000   0.0000   0.0000   0.0000

          k = 0.2500 0.5292 0.1023 (  2844 PWs)   bands (ev):

   -77.1976 -77.1892 -40.5784 -40.5520 -40.5123 -40.4635 -40.4430 -40.4156
    14.4256  14.8051  14.8986  15.1706  15.9050  16.1180  16.8046  17.7682
    17.8334  18.1715  21.7744  24.1832  26.5382

     occupation numbers 
     1.0000   1.0000   1.0000   1.0000   1.0000   1.0000   1.0000   1.0000
     1.0000   1.0000   1.0000   1.0000   1.0000   1.0000   1.0000   1.0000
     1.0000   1.0000   0.0000   0.0000   0.0000

          k = 0.2500 0.5292 0.2046 (  2831 PWs)   bands (ev):

   -77.1958 -77.1910 -40.5945 -40.5799 -40.5108 -40.4708 -40.4141 -40.3943
    14.4406  14.7965  15.0565  15.3597  15.7640  16.1397  16.8580  17.3297
    17.9370  18.2150  22.2650  23.8684  26.4568

     occupation numbers 
     1.0000   1.0000   1.0000   1.0000   1.0000   1.0000   1.0000   1.0000
     1.0000   1.0000   1.0000   1.0000   1.0000   1.0000   1.0000   1.0000
     1.0000   1.0000   0.0000   0.0000   0.0000

          k = 0.2500 0.5292-0.3069 (  2828 PWs)   bands (ev):

   -77.1934 -77.1934 -40.5971 -40.5971 -40.4920 -40.4920 -40.3929 -40.3929
    14.5774  14.5774  15.3482  15.3482  15.9130  15.9130  16.9907  16.9907
    18.1264  18.1264  23.0257  23.0257  27.0004

     occupation numbers 
     1.0000   1.0000   1.0000   1.0000   1.0000   1.0000   1.0000   1.0000
     1.0000   1.0000   1.0000   1.0000   1.0000   1.0000   1.0000   1.0000
     1.0000   1.0000   0.0000   0.0000   0.0000

          k = 0.3333 0.5774 0.0000 (  2850 PWs)   bands (ev):

   -77.1922 -77.1922 -40.5613 -40.5137 -40.5137 -40.4656 -40.4656 -40.4636
    14.4943  14.8804  14.8804  15.1540  15.9464  15.9464  16.8944  17.9118
    17.9118  18.0018  23.3344  24.1768  24.1768

     occupation numbers 
     1.0000   1.0000   1.0000   1.0000   1.0000   1.0000   1.0000   1.0000
     1.0000   1.0000   1.0000   1.0000   1.0000   1.0000   1.0000   1.0000
     1.0000   1.0000   0.0000   0.0000   0.0000

          k = 0.3333 0.5774 0.1023 (  2841 PWs)   bands (ev):

   -77.1922 -77.1922 -40.5548 -40.5424 -40.5424 -40.4702 -40.4367 -40.4367
    14.5887  14.8998  14.8998  15.1722  15.9217  15.9217  16.8679  17.7706
    17.9554  17.9554  23.7308  24.2466  24.2466

     occupation numbers 
     1.0000   1.0000   1.0000   1.0000   1.0000   1.0000   1.0000   1.0000
     1.0000   1.0000   1.0000   1.0000   1.0000   1.0000   1.0000   1.0000
     1.0000   1.0000   0.0000   0.0000   0.0000

          k = 0.3333 0.5774 0.2046 (  2841 PWs)   bands (ev):

   -77.1922 -77.1922 -40.5744 -40.5744 -40.5370 -40.4882 -40.4045 -40.4045
    14.8297  14.9365  14.9365  15.1843  15.8791  15.8791  16.8348  17.2956
    18.0389  18.0389  24.4196  24.4196  24.7481

     occupation numbers 
     1.0000   1.0000   1.0000   1.0000   1.0000   1.0000   1.0000   1.0000
     1.0000   1.0000   1.0000   1.0000   1.0000   1.0000   1.0000   1.0000
     1.0000   1.0000   0.0000   0.0000   0.0000

          k = 0.3333 0.5774-0.3069 (  2832 PWs)   bands (ev):

   -77.1921 -77.1921 -40.5865 -40.5865 -40.5126 -40.5126 -40.3923 -40.3923
    14.9536  14.9536  15.0796  15.0796  15.8612  15.8612  16.9355  16.9355
    18.0789  18.0789  24.5308  24.5308  26.1500

     occupation numbers 
     1.0000   1.0000   1.0000   1.0000   1.0000   1.0000   1.0000   1.0000
     1.0000   1.0000   1.0000   1.0000   1.0000   1.0000   1.0000   1.0000
     1.0000   1.0000   0.0000   0.0000   0.0000

 ------ SPIN DOWN ----------


          k = 0.0000 0.0000 0.0000 (  2803 PWs)   bands (ev):

   -75.1448 -75.0836 -38.6211 -38.3012 -38.3012 -38.2600 -38.2506 -38.2506
     9.8264  14.5914  17.8490  17.9335  17.9335  18.2988  18.2988  18.4898
    18.7598  18.7598  19.9769  19.9769  26.2048

     occupation numbers 
     1.0000   1.0000   1.0000   1.0000   1.0000   1.0000   1.0000   1.0000
     1.0000   1.0000   1.0000   1.0000   1.0000   1.0000   1.0000   1.0000
     1.0000   1.0000   0.0000   0.0000   0.0000

          k = 0.0000 0.0000 0.1023 (  2839 PWs)   bands (ev):

   -75.1407 -75.0877 -38.5973 -38.2978 -38.2978 -38.2845 -38.2540 -38.2540
    10.1041  14.3540  17.7568  17.8703  17.8703  17.9194  18.2167  18.2167
    18.9338  18.9338  19.9597  19.9597  27.5071

     occupation numbers 
     1.0000   1.0000   1.0000   1.0000   1.0000   1.0000   1.0000   1.0000
     1.0000   1.0000   1.0000   1.0000   1.0000   1.0000   1.0000   1.0000
     0.0000   0.0000   0.0000   0.0000   0.0000

          k = 0.0000 0.0000 0.2046 (  2828 PWs)   bands (ev):

   -75.1295 -75.0989 -38.5319 -38.3513 -38.2885 -38.2885 -38.2633 -38.2633
    10.9069  13.4613  17.3017  17.5228  17.8160  17.8160  18.0359  18.0359
    19.2883  19.2883  19.8630  19.8630  30.4640

     occupation numbers 
     1.0000   1.0000   1.0000   1.0000   1.0000   1.0000   1.0000   1.0000
     1.0000   1.0000   1.0000   1.0000   1.0000   1.0000   1.0000   1.0000
     0.0000   0.0000   0.0000   0.0000   0.0000

          k = 0.0000 0.0000-0.3069 (  2834 PWs)   bands (ev):

   -75.1142 -75.1142 -38.4420 -38.4420 -38.2759 -38.2759 -38.2759 -38.2759
    12.1232  12.1232  17.2817  17.2817  17.8753  17.8753  17.8753  17.8753
    19.6319  19.6319  19.6319  19.6319  34.1008

     occupation numbers 
     1.0000   1.0000   1.0000   1.0000   1.0000   1.0000   1.0000   1.0000
[...]
    20.1464  20.1818  21.3417  23.8737  28.7390

     occupation numbers 
     1.0000   1.0000   1.0000   1.0000   1.0000   1.0000   1.0000   1.0000
     1.0000   1.0000   1.0000   1.0000   1.0000   1.0000   1.0000   0.0000
     0.0000   0.0000   0.0000   0.0000   0.0000

          k = 0.0833 0.5292 0.1023 (  2833 PWs)   bands (ev):

   -75.0831 -75.0658 -38.5781 -38.5263 -38.4389 -38.3837 -38.3422 -38.3136
    14.7964  15.4104  15.9617  16.5121  17.7605  18.2529  18.2960  19.9159
    20.0811  20.1844  21.2032  23.5262  27.7247

     occupation numbers 
     1.0000   1.0000   1.0000   1.0000   1.0000   1.0000   1.0000   1.0000
     1.0000   1.0000   1.0000   1.0000   1.0000   1.0000   1.0000   0.0000
     0.0000   0.0000   0.0000   0.0000   0.0000

          k = 0.0833 0.5292 0.2046 (  2832 PWs)   bands (ev):

   -75.0795 -75.0694 -38.5925 -38.5602 -38.4009 -38.3622 -38.3479 -38.3188
    14.7696  15.2494  16.2654  16.5780  17.8061  18.5780  18.7751  19.4524
    20.0332  20.2670  20.9859  22.5767  27.2051

     occupation numbers 
     1.0000   1.0000   1.0000   1.0000   1.0000   1.0000   1.0000   1.0000
     1.0000   1.0000   1.0000   1.0000   1.0000   1.0000   1.0000   0.0000
     0.0000   0.0000   0.0000   0.0000   0.0000

          k = 0.0833 0.5292-0.3069 (  2834 PWs)   bands (ev):

   -75.0744 -75.0744 -38.5864 -38.5864 -38.3712 -38.3712 -38.3336 -38.3336
    14.9463  14.9463  16.5257  16.5257  18.3133  18.3133  19.0979  19.0979
    20.1177  20.1177  21.5173  21.5173  27.4647

     occupation numbers 
     1.0000   1.0000   1.0000   1.0000   1.0000   1.0000   1.0000   1.0000
     1.0000   1.0000   1.0000   1.0000   1.0000   1.0000   0.0000   0.0000
     0.0000   0.0000   0.0000   0.0000   0.0000

          k = 0.1667 0.2887 0.0000 (  2820 PWs)   bands (ev):

   -75.1097 -75.0690 -38.5375 -38.4436 -38.4342 -38.3472 -38.2996 -38.2982
    12.5235  15.9303  16.2327  16.6219  17.8139  17.8596  18.3979  18.7533
    19.3501  19.7114  20.0994  24.8451  26.6516

     occupation numbers 
     1.0000   1.0000   1.0000   1.0000   1.0000   1.0000   1.0000   1.0000
     1.0000   1.0000   1.0000   1.0000   1.0000   1.0000   1.0000   1.0000
     0.0000   0.0000   0.0000   0.0000   0.0000

          k = 0.1667 0.2887 0.1023 (  2817 PWs)   bands (ev):

   -75.1070 -75.0718 -38.5374 -38.4419 -38.4260 -38.3542 -38.3039 -38.2970
    12.7351  15.8423  16.1521  16.6887  17.7163  17.8849  18.2916  18.8528
    19.4779  19.5828  20.1111  23.1974  28.8433

     occupation numbers 
     1.0000   1.0000   1.0000   1.0000   1.0000   1.0000   1.0000   1.0000
     1.0000   1.0000   1.0000   1.0000   1.0000   1.0000   1.0000   0.2192
     0.0000   0.0000   0.0000   0.0000   0.0000

          k = 0.1667 0.2887 0.2046 (  2822 PWs)   bands (ev):

   -75.0996 -75.0792 -38.5277 -38.4680 -38.3887 -38.3576 -38.3142 -38.3045
    13.3349  15.1490  16.4119  16.8592  17.4457  17.7197  18.3480  18.9509
    19.5709  19.7045  20.0668  21.4790  32.0935

     occupation numbers 
     1.0000   1.0000   1.0000   1.0000   1.0000   1.0000   1.0000   1.0000
     1.0000   1.0000   1.0000   1.0000   1.0000   1.0000   1.0000   0.0000
     0.0000   0.0000   0.0000   0.0000   0.0000

          k = 0.1667 0.2887-0.3069 (  2824 PWs)   bands (ev):

   -75.0894 -75.0894 -38.5022 -38.5022 -38.3595 -38.3595 -38.3187 -38.3187
    14.2095  14.2095  16.7924  16.7924  17.4037  17.4037  18.6558  18.6558
    19.8943  19.8943  20.2958  20.2958  34.0082

     occupation numbers 
     1.0000   1.0000   1.0000   1.0000   1.0000   1.0000   1.0000   1.0000
     1.0000   1.0000   1.0000   1.0000   1.0000   1.0000   1.0000   1.0000
     0.0000   0.0000   0.0000   0.0000   0.0000

          k = 0.1667 0.3849 0.0000 (  2830 PWs)   bands (ev):

   -75.0960 -75.0655 -38.4997 -38.4962 -38.4721 -38.3783 -38.3228 -38.3202
    13.7852  15.9349  16.0026  16.4342  17.6063  17.9947  18.1554  19.1057
    19.8620  20.0900  20.4495  26.6227  26.9106

     occupation numbers 
     1.0000   1.0000   1.0000   1.0000   1.0000   1.0000   1.0000   1.0000
     1.0000   1.0000   1.0000   1.0000   1.0000   1.0000   1.0000   0.0000
     0.0000   0.0000   0.0000   0.0000   0.0000

          k = 0.1667 0.3849 0.1023 (  2828 PWs)   bands (ev):

   -75.0940 -75.0675 -38.5310 -38.4909 -38.4419 -38.3840 -38.3294 -38.3121
    13.9312  15.7970  16.1056  16.5376  17.5758  17.9664  18.1113  19.1509
    19.8260  19.9644  20.5531  24.2993  29.0815

     occupation numbers 
     1.0000   1.0000   1.0000   1.0000   1.0000   1.0000   1.0000   1.0000
     1.0000   1.0000   1.0000   1.0000   1.0000   1.0000   1.0000   0.0000
     0.0000   0.0000   0.0000   0.0000   0.0000

          k = 0.1667 0.3849 0.2046 (  2830 PWs)   bands (ev):

   -75.0884 -75.0731 -38.5455 -38.5131 -38.4007 -38.3814 -38.3375 -38.3111
    14.3313  15.4172  16.3887  16.7531  17.4324  17.6876  18.3045  19.1271
    19.6788  20.1485  20.6349  22.3077  30.0690

     occupation numbers 
     1.0000   1.0000   1.0000   1.0000   1.0000   1.0000   1.0000   1.0000
     1.0000   1.0000   1.0000   1.0000   1.0000   1.0000   1.0000   0.0000
     0.0000   0.0000   0.0000   0.0000   0.0000

          k = 0.1667 0.3849-0.3069 (  2822 PWs)   bands (ev):

   -75.0808 -75.0808 -38.5371 -38.5371 -38.3810 -38.3810 -38.3266 -38.3266
    14.8780  14.8780  16.7332  16.7332  17.4102  17.4102  18.6740  18.6740
    20.1398  20.1398  20.9836  20.9836  31.1718

     occupation numbers 
     1.0000   1.0000   1.0000   1.0000   1.0000   1.0000   1.0000   1.0000
     1.0000   1.0000   1.0000   1.0000   1.0000   1.0000   1.0000   1.0000
     0.0000   0.0000   0.0000   0.0000   0.0000

          k = 0.1667 0.4811 0.0000 (  2842 PWs)   bands (ev):

   -75.0845 -75.0644 -38.5377 -38.4915 -38.4634 -38.4074 -38.3450 -38.3386
    14.8913  15.7621  15.7760  16.4914  17.5457  17.8825  18.2330  19.5751
    20.0821  20.1205  21.3735  25.3617  28.5366

     occupation numbers 
     1.0000   1.0000   1.0000   1.0000   1.0000   1.0000   1.0000   1.0000
     1.0000   1.0000   1.0000   1.0000   1.0000   1.0000   1.0000   0.0000
     0.0000   0.0000   0.0000   0.0000   0.0000

          k = 0.1667 0.4811 0.1023 (  2834 PWs)   bands (ev):

   -75.0832 -75.0657 -38.5519 -38.5113 -38.4407 -38.4005 -38.3519 -38.3272
    14.9022  15.7181  15.9445  16.5222  17.5588  17.8601  18.3060  19.5684
    19.8468  20.1952  21.4228  24.7251  27.5818

     occupation numbers 
     1.0000   1.0000   1.0000   1.0000   1.0000   1.0000   1.0000   1.0000
     1.0000   1.0000   1.0000   1.0000   1.0000   1.0000   1.0000   0.0000
     0.0000   0.0000   0.0000   0.0000   0.0000

          k = 0.1667 0.4811 0.2046 (  2834 PWs)   bands (ev):

   -75.0795 -75.0694 -38.5678 -38.5412 -38.4202 -38.3832 -38.3525 -38.3183
    14.9977  15.5162  16.2781  16.7902  17.3867  17.8403  18.5312  19.2466
    19.7889  20.2912  21.5708  23.2715  27.7260

     occupation numbers 
     1.0000   1.0000   1.0000   1.0000   1.0000   1.0000   1.0000   1.0000
     1.0000   1.0000   1.0000   1.0000   1.0000   1.0000   1.0000   0.0000
     0.0000   0.0000   0.0000   0.0000   0.0000

          k = 0.1667 0.4811-0.3069 (  2818 PWs)   bands (ev):

   -75.0744 -75.0744 -38.5642 -38.5642 -38.3992 -38.3992 -38.3282 -38.3282
    15.2210  15.2210  16.6879  16.6879  17.5743  17.5743  18.8120  18.8120
    20.1310  20.1310  22.0960  22.0960  28.5318

     occupation numbers 
     1.0000   1.0000   1.0000   1.0000   1.0000   1.0000   1.0000   1.0000
     1.0000   1.0000   1.0000   1.0000   1.0000   1.0000   0.9997   0.9997
     0.0000   0.0000   0.0000   0.0000   0.0000

          k = 0.1667 0.5774 0.0000 (  2838 PWs)   bands (ev):

   -75.0795 -75.0648 -38.5527 -38.4976 -38.4450 -38.4194 -38.3591 -38.3443
    15.3541  15.6359  15.7064  16.5598  17.5980  17.7075  18.3395  19.9061
    20.0789  20.0938  22.2868  23.7934  29.6620

     occupation numbers 
     1.0000   1.0000   1.0000   1.0000   1.0000   1.0000   1.0000   1.0000
     1.0000   1.0000   1.0000   1.0000   1.0000   1.0000   1.0000   0.0000
     0.0000   0.0000   0.0000   0.0000   0.0000

          k = 0.1667 0.5774 0.1023 (  2839 PWs)   bands (ev):

   -75.0785 -75.0658 -38.5640 -38.5159 -38.4435 -38.3950 -38.3654 -38.3340
    15.1915  15.6808  16.0913  16.3719  17.5160  17.8949  18.4218  19.8189
    19.9047  20.1544  22.3131  23.6907  28.7040

     occupation numbers 
     1.0000   1.0000   1.0000   1.0000   1.0000   1.0000   1.0000   1.0000
     1.0000   1.0000   1.0000   1.0000   1.0000   1.0000   1.0000   0.0000
     0.0000   0.0000   0.0000   0.0000   0.0000

          k = 0.1667 0.5774 0.2046 (  2841 PWs)   bands (ev):

   -75.0758 -75.0685 -38.5780 -38.5500 -38.4291 -38.3827 -38.3557 -38.3220
    15.1449  15.5779  16.3458  16.7026  17.2972  18.0175  18.6811  19.3174
    19.9320  20.2009  22.4359  23.3531  27.6306

     occupation numbers 
     1.0000   1.0000   1.0000   1.0000   1.0000   1.0000   1.0000   1.0000
     1.0000   1.0000   1.0000   1.0000   1.0000   1.0000   1.0000   0.0000
     0.0000   0.0000   0.0000   0.0000   0.0000

          k = 0.1667 0.5774-0.3069 (  2830 PWs)   bands (ev):

   -75.0721 -75.0721 -38.5743 -38.5743 -38.4062 -38.4062 -38.3281 -38.3281
    15.3016  15.3016  16.6770  16.6770  17.6288  17.6288  18.9786  18.9786
    20.0653  20.0653  22.8320  22.8320  27.2606

     occupation numbers 
     1.0000   1.0000   1.0000   1.0000   1.0000   1.0000   1.0000   1.0000
     1.0000   1.0000   1.0000   1.0000   1.0000   1.0000   0.0000   0.0000
     0.0000   0.0000   0.0000   0.0000   0.0000

          k = 0.2500 0.4330 0.0000 (  2860 PWs)   bands (ev):

   -75.0846 -75.0643 -38.5150 -38.4917 -38.4636 -38.4096 -38.3594 -38.3447
    14.9045  15.8396  16.1255  16.1599  17.4484  17.9117  18.2383  19.3203
    20.0313  20.1216  21.4165  26.9234  27.7857

     occupation numbers 
     1.0000   1.0000   1.0000   1.0000   1.0000   1.0000   1.0000   1.0000
     1.0000   1.0000   1.0000   1.0000   1.0000   1.0000   1.0000   0.0000
     0.0000   0.0000   0.0000   0.0000   0.0000

          k = 0.2500 0.4330 0.1023 (  2841 PWs)   bands (ev):

   -75.0832 -75.0657 -38.5238 -38.5191 -38.4258 -38.4223 -38.3619 -38.3308
    14.9810  15.7572  16.1936  16.3455  17.4918  17.7304  18.2464  19.3651
    19.7865  20.2028  21.5184  25.4507  28.0716

     occupation numbers 
     1.0000   1.0000   1.0000   1.0000   1.0000   1.0000   1.0000   1.0000
     1.0000   1.0000   1.0000   1.0000   1.0000   1.0000   1.0000   0.0000
     0.0000   0.0000   0.0000   0.0000   0.0000

          k = 0.2500 0.4330 0.2046 (  2824 PWs)   bands (ev):

   -75.0795 -75.0694 -38.5484 -38.5346 -38.4275 -38.4026 -38.3521 -38.3183
    15.1767  15.6151  16.4152  16.7044  17.3403  17.4648  18.3358  19.1450
    19.7464  20.3005  21.7521  23.5889  28.8467

     occupation numbers 
     1.0000   1.0000   1.0000   1.0000   1.0000   1.0000   1.0000   1.0000
     1.0000   1.0000   1.0000   1.0000   1.0000   1.0000   1.0000   0.0000
     0.0000   0.0000   0.0000   0.0000   0.0000

          k = 0.2500 0.4330-0.3069 (  2818 PWs)   bands (ev):

   -75.0744 -75.0744 -38.5502 -38.5502 -38.4149 -38.4149 -38.3266 -38.3266
    15.4137  15.4137  16.7575  16.7575  17.2356  17.2356  18.6397  18.6397
    20.1552  20.1552  22.3141  22.3141  29.8517

     occupation numbers 
     1.0000   1.0000   1.0000   1.0000   1.0000   1.0000   1.0000   1.0000
     1.0000   1.0000   1.0000   1.0000   1.0000   1.0000   1.0000   1.0000
     0.0000   0.0000   0.0000   0.0000   0.0000

          k = 0.2500 0.5292 0.0000 (  2848 PWs)   bands (ev):

   -75.0760 -75.0656 -38.5290 -38.4820 -38.4430 -38.4314 -38.3829 -38.3703
    15.6217  15.8121  15.9662  16.2482  17.4488  17.6592  18.4407  19.6380
    19.9967  20.0510  22.7134  24.9818  27.0949

     occupation numbers 
     1.0000   1.0000   1.0000   1.0000   1.0000   1.0000   1.0000   1.0000
     1.0000   1.0000   1.0000   1.0000   1.0000   1.0000   1.0000   0.0000
     0.0000   0.0000   0.0000   0.0000   0.0000

          k = 0.2500 0.5292 0.1023 (  2844 PWs)   bands (ev):

   -75.0753 -75.0663 -38.5349 -38.5050 -38.4610 -38.4043 -38.3844 -38.3488
    15.5716  15.9395  16.0498  16.3112  17.4242  17.5601  18.4541  19.6590
    19.7496  20.1071  22.8734  24.9507  27.1508

     occupation numbers 
     1.0000   1.0000   1.0000   1.0000   1.0000   1.0000   1.0000   1.0000
     1.0000   1.0000   1.0000   1.0000   1.0000   1.0000   1.0000   0.0000
     0.0000   0.0000   0.0000   0.0000   0.0000

          k = 0.2500 0.5292 0.2046 (  2831 PWs)   bands (ev):

   -75.0734 -75.0682 -38.5503 -38.5346 -38.4605 -38.4171 -38.3489 -38.3264
    15.6019  15.8956  16.3288  16.6561  17.1681  17.4230  18.5290  19.1771
    19.8405  20.1596  23.2523  24.5719  27.2144

     occupation numbers 
     1.0000   1.0000   1.0000   1.0000   1.0000   1.0000   1.0000   1.0000
     1.0000   1.0000   1.0000   1.0000   1.0000   1.0000   1.0000   0.0000
     0.0000   0.0000   0.0000   0.0000   0.0000

          k = 0.2500 0.5292-0.3069 (  2828 PWs)   bands (ev):

   -75.0708 -75.0708 -38.5528 -38.5528 -38.4406 -38.4406 -38.3254 -38.3254
    15.7336  15.7336  16.7240  16.7240  17.1382  17.1382  18.7404  18.7404
    20.0546  20.0546  23.8398  23.8398  27.7589

     occupation numbers 
     1.0000   1.0000   1.0000   1.0000   1.0000   1.0000   1.0000   1.0000
     1.0000   1.0000   1.0000   1.0000   1.0000   1.0000   1.0000   1.0000
     0.0000   0.0000   0.0000   0.0000   0.0000

          k = 0.3333 0.5774 0.0000 (  2850 PWs)   bands (ev):

   -75.0695 -75.0695 -38.5175 -38.4656 -38.4656 -38.4107 -38.3996 -38.3996
    15.8502  15.9730  15.9730  16.1653  17.4856  17.4856  18.5507  19.8113
    19.8113  19.9629  24.1694  24.9814  24.9814

     occupation numbers 
     1.0000   1.0000   1.0000   1.0000   1.0000   1.0000   1.0000   1.0000
     1.0000   1.0000   1.0000   1.0000   1.0000   1.0000   1.0000   0.0000
     0.0000   0.0000   0.0000   0.0000   0.0000

          k = 0.3333 0.5774 0.1023 (  2841 PWs)   bands (ev):

   -75.0695 -75.0695 -38.5104 -38.4936 -38.4936 -38.4179 -38.3714 -38.3714
    15.9244  16.0445  16.0445  16.1965  17.4000  17.4000  18.5308  19.6899
    19.8628  19.8628  24.5815  25.0266  25.0266

     occupation numbers 
     1.0000   1.0000   1.0000   1.0000   1.0000   1.0000   1.0000   1.0000
     1.0000   1.0000   1.0000   1.0000   1.0000   1.0000   1.0000   0.0000
     0.0000   0.0000   0.0000   0.0000   0.0000

          k = 0.3333 0.5774 0.2046 (  2841 PWs)   bands (ev):

   -75.0695 -75.0695 -38.5274 -38.5274 -38.4909 -38.4375 -38.3374 -38.3374
    16.0981  16.2144  16.2144  16.2534  17.2101  17.2101  18.5315  19.1445
    19.9577  19.9577  25.1384  25.1384  25.5865

     occupation numbers 
     1.0000   1.0000   1.0000   1.0000   1.0000   1.0000   1.0000   1.0000
     1.0000   1.0000   1.0000   1.0000   1.0000   1.0000   1.0000   0.0000
     0.0000   0.0000   0.0000   0.0000   0.0000

          k = 0.3333 0.5774-0.3069 (  2832 PWs)   bands (ev):

   -75.0695 -75.0695 -38.5403 -38.5403 -38.4642 -38.4642 -38.3243 -38.3243
    16.2395  16.2395  16.3243  16.3243  17.0936  17.0936  18.7061  18.7061
    20.0016  20.0016  25.2092  25.2092  26.9143

     occupation numbers 
     1.0000   1.0000   1.0000   1.0000   1.0000   1.0000   1.0000   1.0000
     1.0000   1.0000   1.0000   1.0000   1.0000   1.0000   1.0000   1.0000
     0.0000   0.0000   0.0000   0.0000   0.0000

     the Fermi energy is    18.8454 ev

!    total energy              =    -753.45507048 Ry
     total all-electron energy =     -5573.811762 Ry
     estimated scf accuracy    <       0.00000067 Ry
     smearing contrib. (-TS)   =      -0.00002722 Ry
     internal energy E=F+TS    =    -753.45504325 Ry

     The total energy is F=E-TS. E is the sum of the following terms:
     one-electron contribution =    -281.12778845 Ry
     hartree contribution      =     164.40856592 Ry
     xc contribution           =     -61.41122404 Ry
     ewald contribution        =    -400.14931958 Ry
     one-center paw contrib.   =    -175.17527711 Ry
      -> PAW hartree energy AE =     222.05021999 Ry
      -> PAW hartree energy PS =    -220.99458580 Ry
      -> PAW xc energy AE      =    -117.67317445 Ry
      -> PAW xc energy PS      =      29.02990170 Ry
      -> total E_H with PAW    =     165.46420011 Ry
      -> total E_XC with PAW   =    -150.05449678 Ry

     total magnetization       =     3.31 Bohr mag/cell
     absolute magnetization    =     3.63 Bohr mag/cell

     convergence has been achieved in  10 iterations

     Writing all to output data dir ./out/Co.save/
 
     init_run     :      0.41s CPU      0.50s WALL (       1 calls)
     electrons    :     25.89s CPU     27.30s WALL (       1 calls)

     Called by init_run:
     wfcinit      :      0.27s CPU      0.35s WALL (       1 calls)
     potinit      :      0.09s CPU      0.10s WALL (       1 calls)
     hinit0       :      0.03s CPU      0.03s WALL (       1 calls)

     Called by electrons:
     c_bands      :     23.15s CPU     24.30s WALL (      10 calls)
     sum_band     :      1.84s CPU      1.94s WALL (      10 calls)
     v_of_rho     :      0.03s CPU      0.03s WALL (      11 calls)
     v_h          :      0.00s CPU      0.00s WALL (      11 calls)
     v_xc         :      0.03s CPU      0.03s WALL (      11 calls)
     newd         :      0.05s CPU      0.05s WALL (      11 calls)
     PAW_pot      :      0.89s CPU      1.05s WALL (      11 calls)
     mix_rho      :      0.01s CPU      0.01s WALL (      10 calls)

     Called by c_bands:
     init_us_2    :      0.11s CPU      0.11s WALL (    3040 calls)
     init_us_2:cp :      0.10s CPU      0.11s WALL (    3040 calls)
     cegterg      :     22.49s CPU     23.53s WALL (    1540 calls)

     Called by sum_band:
     sum_band:wei :      0.01s CPU      0.01s WALL (      10 calls)
     sum_band:loo :      1.74s CPU      1.84s WALL (      10 calls)
     sum_band:buf :      0.01s CPU      0.01s WALL (    1520 calls)
     sum_band:ini :      0.06s CPU      0.05s WALL (    1520 calls)
     sum_band:cal :      0.15s CPU      0.14s WALL (    1520 calls)
     sum_band:bec :      0.00s CPU      0.01s WALL (    1520 calls)
     addusdens    :      0.07s CPU      0.07s WALL (      10 calls)
                                        0.00s GPU  (      10 calls)
     addusd:skk   :      0.00s CPU      0.00s WALL (      10 calls)
                                        0.00s GPU  (      10 calls)

     Called by *egterg:
     cdiaghg      :      5.67s CPU      5.83s WALL (   11253 calls)
     cegterg:over :      0.78s CPU      0.75s WALL (    9885 calls)
     cegterg:upda :      0.09s CPU      0.18s WALL (    9885 calls)
     cegterg:last :      0.32s CPU      0.35s WALL (    6638 calls)
     h_psi        :     14.69s CPU     15.49s WALL (   11425 calls)
     s_psi        :      0.30s CPU      0.25s WALL (   11425 calls)
     g_psi        :      0.04s CPU      0.06s WALL (    9885 calls)

     Called by h_psi:
     h_psi:calbec :      0.77s CPU      0.76s WALL (   11425 calls)
     vloc_psi     :     13.73s CPU     14.40s WALL (   11425 calls)
     add_vuspsi   :      0.16s CPU      0.26s WALL (   11425 calls)

     General routines
     calbec       :      0.91s CPU      0.88s WALL (   12945 calls)
     fft          :      0.02s CPU      0.02s WALL (     269 calls)
     ffts         :      0.00s CPU      0.00s WALL (      42 calls)
     fftw         :     14.43s CPU     14.90s WALL (  335108 calls)
     interpolate  :      0.00s CPU      0.00s WALL (      22 calls)
 
     Parallel routines

     PAW routines
     PAW_pot      :      0.89s CPU      1.05s WALL (      11 calls)
     PAW_symme    :      0.01s CPU      0.01s WALL (      20 calls)
 
     PWSCF        :     26.62s CPU     28.57s WALL

 
   This run was terminated on:   7:51:50  22Mar2024            

=------------------------------------------------------------------------------=
   JOB DONE.
=------------------------------------------------------------------------------=
