
     Program PWSCF v.7.2 starts on 22Mar2024 at  9:51:51 

     This program is part of the open-source Quantum ESPRESSO suite
     for quantum simulation of materials; please cite
         "P. Giannozzi et al., J. Phys.:Condens. Matter 21 395502 (2009);
         "P. Giannozzi et al., J. Phys.:Condens. Matter 29 465901 (2017);
         "P. Giannozzi et al., J. Chem. Phys. 152 154105 (2020);
          URL http://www.quantum-espresso.org", 
     in publications or presentations arising from this work. More details at
     http://www.quantum-espresso.org/quote

     Parallel version (MPI), running on    20 processors

     MPI processes distributed on     1 nodes
     241341 MiB available memory on the printing compute node when the environment starts
 
     Waiting for input...
     Reading input from standard input

     Current dimensions of program PWSCF are:
     Max number of different atomic species (ntypx) = 10
     Max number of k-points (npk) = 120000
     Max angular momentum in pseudopotentials (lmaxx) =  4
     file Co.pbe-spn-kjpaw_psl.0.3.1.UPF: wavefunction(s)  3P 3D renormalized
 
     R & G space division:  proc/nbgrp/npool/nimage =      20
     Subspace diagonalization in iterative solution of the eigenvalue problem:
     a serial algorithm will be used

 
     Parallelization info
     --------------------
     sticks:   dense  smooth     PW     G-vecs:    dense   smooth      PW
     Min          33      32      9                 1157     1116     181
     Max          35      33     10                 1161     1125     186
     Sum         673     649    199                23175    22395    3695
 
     Using Slab Decomposition
 


     bravais-lattice index     =            4
     lattice parameter (alat)  =       4.6487  a.u.
     unit-cell volume          =     143.5898 (a.u.)^3
     number of atoms/cell      =            2
     number of atomic types    =            1
     number of electrons       =        34.00
     number of Kohn-Sham states=           21
     kinetic-energy cutoff     =     110.0000  Ry
     charge density cutoff     =     450.0000  Ry
     scf convergence threshold =      1.0E-06
     mixing beta               =       0.7000
     number of iterations used =            8  plain     mixing
     Exchange-correlation= SLA  PW   PBX  PBC
                           (   1   4   3   4   0   0   0)

     celldm(1)=   4.648726  celldm(2)=   0.000000  celldm(3)=   1.650407
     celldm(4)=   0.000000  celldm(5)=   0.000000  celldm(6)=   0.000000

     crystal axes: (cart. coord. in units of alat)
               a(1) = (   1.000000   0.000000   0.000000 )  
               a(2) = (  -0.500000   0.866025   0.000000 )  
               a(3) = (   0.000000   0.000000   1.650407 )  

     reciprocal axes: (cart. coord. in units 2 pi/alat)
               b(1) = (  1.000000  0.577350  0.000000 )  
               b(2) = (  0.000000  1.154701  0.000000 )  
               b(3) = (  0.000000  0.000000  0.605911 )  


     PseudoPot. # 1 for Co read from file:
     /truba/home/amuhaymin/ZnS/pseudo/QE/Co.pbe-spn-kjpaw_psl.0.3.1.UPF
     MD5 check sum: b0a1ad65bf214e88c1f3d33b20c7d919
     Pseudo is Projector augmented-wave + core cor, Zval = 17.0
     Generated using &quot;atomic&quot; code by A. Dal Corso  v.6.2.2
     Shape of augmentation charge: PSQ
     Using radial grid of 1193 points,  6 beta functions with: 
                l(1) =   0
                l(2) =   0
                l(3) =   1
                l(4) =   1
                l(5) =   2
                l(6) =   2
     Q(r) pseudized with 0 coefficients 


     atomic species   valence    mass     pseudopotential
        Co            17.00    58.93300     Co( 1.00)

     Starting magnetic structure 
     atomic species   magnetization
        Co           0.294

     24 Sym. Ops., with inversion, found (12 have fractional translation)


                                    s                        frac. trans.

      isym =  1     identity                                     

 cryst.   s( 1) = (     1          0          0      )
                  (     0          1          0      )
                  (     0          0          1      )

 cart.    s( 1) = (  1.0000000  0.0000000  0.0000000 )
                  (  0.0000000  1.0000000  0.0000000 )
                  (  0.0000000  0.0000000  1.0000000 )


      isym =  2     180 deg rotation - cart. axis [0,0,1]        

 cryst.   s( 2) = (    -1          0          0      )    f =(  0.0000000 )
                  (     0         -1          0      )       ( -0.0000000 )
                  (     0          0          1      )       (  0.5000000 )

 cart.    s( 2) = ( -1.0000000  0.0000000  0.0000000 )    f =(  0.0000000 )
                  (  0.0000000 -1.0000000  0.0000000 )       ( -0.0000000 )
                  (  0.0000000  0.0000000  1.0000000 )       (  0.8252033 )


      isym =  3     180 deg rotation - cart. axis [0,1,0]        

 cryst.   s( 3) = (    -1          0          0      )    f =(  0.0000000 )
                  (     1          1          0      )       (  0.0000000 )
                  (     0          0         -1      )       ( -0.5000000 )

 cart.    s( 3) = ( -1.0000000  0.0000000  0.0000000 )    f =(  0.0000000 )
                  (  0.0000000  1.0000000  0.0000000 )       (  0.0000000 )
                  (  0.0000000  0.0000000 -1.0000000 )       ( -0.8252033 )


      isym =  4     180 deg rotation - cart. axis [1,0,0]        

 cryst.   s( 4) = (     1          0          0      )
                  (    -1         -1          0      )
                  (     0          0         -1      )

 cart.    s( 4) = (  1.0000000  0.0000000  0.0000000 )
                  (  0.0000000 -1.0000000  0.0000000 )
                  (  0.0000000  0.0000000 -1.0000000 )


      isym =  5      60 deg rotation - cryst. axis [0,0,1]       

 cryst.   s( 5) = (     1          1          0      )    f =(  0.0000000 )
                  (    -1          0          0      )       ( -0.0000000 )
                  (     0          0          1      )       (  0.5000000 )

 cart.    s( 5) = (  0.5000000 -0.8660254  0.0000000 )    f =(  0.0000000 )
                  (  0.8660254  0.5000000  0.0000000 )       ( -0.0000000 )
                  (  0.0000000  0.0000000  1.0000000 )       (  0.8252033 )


      isym =  6      60 deg rotation - cryst. axis [0,0,-1]      

 cryst.   s( 6) = (     0         -1          0      )    f =(  0.0000000 )
                  (     1          1          0      )       ( -0.0000000 )
                  (     0          0          1      )       (  0.5000000 )

 cart.    s( 6) = (  0.5000000  0.8660254  0.0000000 )    f =(  0.0000000 )
                  ( -0.8660254  0.5000000  0.0000000 )       ( -0.0000000 )
                  (  0.0000000  0.0000000  1.0000000 )       (  0.8252033 )


      isym =  7     120 deg rotation - cryst. axis [0,0,1]       

 cryst.   s( 7) = (     0          1          0      )
                  (    -1         -1          0      )
                  (     0          0          1      )

 cart.    s( 7) = ( -0.5000000 -0.8660254  0.0000000 )
                  (  0.8660254 -0.5000000  0.0000000 )
                  (  0.0000000  0.0000000  1.0000000 )


      isym =  8     120 deg rotation - cryst. axis [0,0,-1]      

 cryst.   s( 8) = (    -1         -1          0      )
                  (     1          0          0      )
                  (     0          0          1      )

 cart.    s( 8) = ( -0.5000000  0.8660254  0.0000000 )
                  ( -0.8660254 -0.5000000  0.0000000 )
                  (  0.0000000  0.0000000  1.0000000 )


      isym =  9     180 deg rotation - cryst. axis [1,-1,0]      

 cryst.   s( 9) = (     0         -1          0      )    f =( -0.0000000 )
                  (    -1          0          0      )       ( -0.0000000 )
                  (     0          0         -1      )       ( -0.5000000 )

 cart.    s( 9) = (  0.5000000 -0.8660254  0.0000000 )    f =( -0.0000000 )
                  ( -0.8660254 -0.5000000  0.0000000 )       ( -0.0000000 )
                  (  0.0000000  0.0000000 -1.0000000 )       ( -0.8252033 )


      isym = 10     180 deg rotation - cryst. axis [2,1,0]       

 cryst.   s(10) = (     1          1          0      )    f =(  0.0000000 )
                  (     0         -1          0      )       ( -0.0000000 )
                  (     0          0         -1      )       ( -0.5000000 )

 cart.    s(10) = (  0.5000000  0.8660254  0.0000000 )    f =(  0.0000000 )
                  (  0.8660254 -0.5000000  0.0000000 )       ( -0.0000000 )
                  (  0.0000000  0.0000000 -1.0000000 )       ( -0.8252033 )


      isym = 11     180 deg rotation - cryst. axis [0,1,0]       

 cryst.   s(11) = (    -1         -1          0      )
                  (     0          1          0      )
                  (     0          0         -1      )

 cart.    s(11) = ( -0.5000000 -0.8660254  0.0000000 )
                  ( -0.8660254  0.5000000  0.0000000 )
                  (  0.0000000  0.0000000 -1.0000000 )


      isym = 12     180 deg rotation - cryst. axis [1,1,0]       

 cryst.   s(12) = (     0          1          0      )
                  (     1          0          0      )
                  (     0          0         -1      )

 cart.    s(12) = ( -0.5000000  0.8660254  0.0000000 )
                  (  0.8660254  0.5000000  0.0000000 )
                  (  0.0000000  0.0000000 -1.0000000 )


      isym = 13     inversion                                    

 cryst.   s(13) = (    -1          0          0      )
                  (     0         -1          0      )
                  (     0          0         -1      )

 cart.    s(13) = ( -1.0000000  0.0000000  0.0000000 )
                  (  0.0000000 -1.0000000  0.0000000 )
                  (  0.0000000  0.0000000 -1.0000000 )


      isym = 14     inv. 180 deg rotation - cart. axis [0,0,1]   

 cryst.   s(14) = (     1          0          0      )    f =(  0.0000000 )
                  (     0          1          0      )       (  0.0000000 )
                  (     0          0         -1      )       ( -0.5000000 )

 cart.    s(14) = (  1.0000000  0.0000000  0.0000000 )    f =(  0.0000000 )
                  (  0.0000000  1.0000000  0.0000000 )       (  0.0000000 )
                  (  0.0000000  0.0000000 -1.0000000 )       ( -0.8252033 )


      isym = 15     inv. 180 deg rotation - cart. axis [0,1,0]   

 cryst.   s(15) = (     1          0          0      )    f =(  0.0000000 )
                  (    -1         -1          0      )       ( -0.0000000 )
                  (     0          0          1      )       (  0.5000000 )

 cart.    s(15) = (  1.0000000  0.0000000  0.0000000 )    f =(  0.0000000 )
                  (  0.0000000 -1.0000000  0.0000000 )       ( -0.0000000 )
                  (  0.0000000  0.0000000  1.0000000 )       (  0.8252033 )


      isym = 16     inv. 180 deg rotation - cart. axis [1,0,0]   

 cryst.   s(16) = (    -1          0          0      )
                  (     1          1          0      )
                  (     0          0          1      )

 cart.    s(16) = ( -1.0000000  0.0000000  0.0000000 )
                  (  0.0000000  1.0000000  0.0000000 )
                  (  0.0000000  0.0000000  1.0000000 )


      isym = 17     inv.  60 deg rotation - cryst. axis [0,0,1]  

 cryst.   s(17) = (    -1         -1          0      )    f =(  0.0000000 )
                  (     1          0          0      )       ( -0.0000000 )
                  (     0          0         -1      )       ( -0.5000000 )

 cart.    s(17) = ( -0.5000000  0.8660254  0.0000000 )    f =(  0.0000000 )
                  ( -0.8660254 -0.5000000  0.0000000 )       ( -0.0000000 )
                  (  0.0000000  0.0000000 -1.0000000 )       ( -0.8252033 )


      isym = 18     inv.  60 deg rotation - cryst. axis [0,0,-1] 

 cryst.   s(18) = (     0          1          0      )    f =( -0.0000000 )
                  (    -1         -1          0      )       ( -0.0000000 )
                  (     0          0         -1      )       ( -0.5000000 )

 cart.    s(18) = ( -0.5000000 -0.8660254  0.0000000 )    f =(  0.0000000 )
                  (  0.8660254 -0.5000000  0.0000000 )       ( -0.0000000 )
                  (  0.0000000  0.0000000 -1.0000000 )       ( -0.8252033 )


      isym = 19     inv. 120 deg rotation - cryst. axis [0,0,1]  

 cryst.   s(19) = (     0         -1          0      )
                  (     1          1          0      )
                  (     0          0         -1      )

 cart.    s(19) = (  0.5000000  0.8660254  0.0000000 )
                  ( -0.8660254  0.5000000  0.0000000 )
                  (  0.0000000  0.0000000 -1.0000000 )


      isym = 20     inv. 120 deg rotation - cryst. axis [0,0,-1] 

 cryst.   s(20) = (     1          1          0      )
                  (    -1          0          0      )
                  (     0          0         -1      )

 cart.    s(20) = (  0.5000000 -0.8660254  0.0000000 )
                  (  0.8660254  0.5000000  0.0000000 )
                  (  0.0000000  0.0000000 -1.0000000 )


      isym = 21     inv. 180 deg rotation - cryst. axis [1,-1,0] 

 cryst.   s(21) = (     0          1          0      )    f =(  0.0000000 )
                  (     1          0          0      )       ( -0.0000000 )
                  (     0          0          1      )       (  0.5000000 )

 cart.    s(21) = ( -0.5000000  0.8660254  0.0000000 )    f =(  0.0000000 )
                  (  0.8660254  0.5000000  0.0000000 )       ( -0.0000000 )
                  (  0.0000000  0.0000000  1.0000000 )       (  0.8252033 )


      isym = 22     inv. 180 deg rotation - cryst. axis [2,1,0]  

 cryst.   s(22) = (    -1         -1          0      )    f =(  0.0000000 )
                  (     0          1          0      )       ( -0.0000000 )
                  (     0          0          1      )       (  0.5000000 )

 cart.    s(22) = ( -0.5000000 -0.8660254  0.0000000 )    f =(  0.0000000 )
                  ( -0.8660254  0.5000000  0.0000000 )       ( -0.0000000 )
                  (  0.0000000  0.0000000  1.0000000 )       (  0.8252033 )


      isym = 23     inv. 180 deg rotation - cryst. axis [0,1,0]  

 cryst.   s(23) = (     1          1          0      )
                  (     0         -1          0      )
                  (     0          0          1      )

 cart.    s(23) = (  0.5000000  0.8660254  0.0000000 )
                  (  0.8660254 -0.5000000  0.0000000 )
                  (  0.0000000  0.0000000  1.0000000 )


      isym = 24     inv. 180 deg rotation - cryst. axis [1,1,0]  

 cryst.   s(24) = (     0         -1          0      )
                  (    -1          0          0      )
                  (     0          0          1      )

 cart.    s(24) = (  0.5000000 -0.8660254  0.0000000 )
                  ( -0.8660254 -0.5000000  0.0000000 )
                  (  0.0000000  0.0000000  1.0000000 )


     point group D_6h(6/mmm)
     there are 12 classes
     the character table:

       E     2C6   2C3   C2    3C2'  3C2'' i     2S3   2S6   s_h   3s_d  3s_v 
A_1g   1.00  1.00  1.00  1.00  1.00  1.00  1.00  1.00  1.00  1.00  1.00  1.00
A_2g   1.00  1.00  1.00  1.00 -1.00 -1.00  1.00  1.00  1.00  1.00 -1.00 -1.00
B_1g   1.00 -1.00  1.00 -1.00  1.00 -1.00  1.00 -1.00  1.00 -1.00  1.00 -1.00
B_2g   1.00 -1.00  1.00 -1.00 -1.00  1.00  1.00 -1.00  1.00 -1.00 -1.00  1.00
E_1g   2.00  1.00 -1.00 -2.00  0.00  0.00  2.00  1.00 -1.00 -2.00  0.00  0.00
E_2g   2.00 -1.00 -1.00  2.00  0.00  0.00  2.00 -1.00 -1.00  2.00  0.00  0.00
A_1u   1.00  1.00  1.00  1.00  1.00  1.00 -1.00 -1.00 -1.00 -1.00 -1.00 -1.00
A_2u   1.00  1.00  1.00  1.00 -1.00 -1.00 -1.00 -1.00 -1.00 -1.00  1.00  1.00
B_1u   1.00 -1.00  1.00 -1.00  1.00 -1.00 -1.00  1.00 -1.00  1.00 -1.00  1.00
B_2u   1.00 -1.00  1.00 -1.00 -1.00  1.00 -1.00  1.00 -1.00  1.00  1.00 -1.00
E_1u   2.00  1.00 -1.00 -2.00  0.00  0.00 -2.00 -1.00  1.00  2.00  0.00  0.00
E_2u   2.00 -1.00 -1.00  2.00  0.00  0.00 -2.00  1.00  1.00 -2.00  0.00  0.00

     the symmetry operations in each class and the name of the first element:

     E        1
          identity                                               
     2C6      5    6
           60 deg rotation - cryst. axis [0,0,1]                 
     2C3      7    8
          120 deg rotation - cryst. axis [0,0,1]                 
     C2       2
          180 deg rotation - cart. axis [0,0,1]                  
     3C2'     4   12   11
          180 deg rotation - cart. axis [1,0,0]                  
     3C2''    3    9   10
          180 deg rotation - cart. axis [0,1,0]                  
     i       13
          inversion                                              
     2S3     17   18
          inv.  60 deg rotation - cryst. axis [0,0,1]            
     2S6     19   20
          inv. 120 deg rotation - cryst. axis [0,0,1]            
     s_h     14
          inv. 180 deg rotation - cart. axis [0,0,1]             
     3s_d    16   24   23
          inv. 180 deg rotation - cart. axis [1,0,0]             
     3s_v    15   21   22
          inv. 180 deg rotation - cart. axis [0,1,0]             

   Cartesian axes

     site n.     atom                  positions (alat units)
         1           Co  tau(   1) = (  -0.0000000   0.5773503   0.4126016  )
         2           Co  tau(   2) = (   0.5000000   0.2886751   1.2378049  )

   Crystallographic axes

     site n.     atom                  positions (cryst. coord.)
         1           Co  tau(   1) = (  0.3333333  0.6666667  0.2500000  )
         2           Co  tau(   2) = (  0.6666667  0.3333333  0.7500000  )

     number of k points=    76  Gaussian smearing, width (Ry)=  0.0010
                       cart. coord. in units 2pi/alat
        k(    1) = (   0.0000000   0.0000000   0.0000000), wk =   0.0011574
        k(    2) = (   0.0000000   0.0000000   0.1009852), wk =   0.0023148
        k(    3) = (   0.0000000   0.0000000   0.2019704), wk =   0.0023148
        k(    4) = (   0.0000000   0.0000000  -0.3029557), wk =   0.0011574
        k(    5) = (   0.0000000   0.0962250   0.0000000), wk =   0.0069444
        k(    6) = (   0.0000000   0.0962250   0.1009852), wk =   0.0138889
        k(    7) = (   0.0000000   0.0962250   0.2019704), wk =   0.0138889
        k(    8) = (   0.0000000   0.0962250  -0.3029557), wk =   0.0069444
        k(    9) = (   0.0000000   0.1924501   0.0000000), wk =   0.0069444
        k(   10) = (   0.0000000   0.1924501   0.1009852), wk =   0.0138889
        k(   11) = (   0.0000000   0.1924501   0.2019704), wk =   0.0138889
        k(   12) = (   0.0000000   0.1924501  -0.3029557), wk =   0.0069444
        k(   13) = (   0.0000000   0.2886751   0.0000000), wk =   0.0069444
        k(   14) = (   0.0000000   0.2886751   0.1009852), wk =   0.0138889
        k(   15) = (   0.0000000   0.2886751   0.2019704), wk =   0.0138889
        k(   16) = (   0.0000000   0.2886751  -0.3029557), wk =   0.0069444
        k(   17) = (   0.0000000   0.3849002   0.0000000), wk =   0.0069444
        k(   18) = (   0.0000000   0.3849002   0.1009852), wk =   0.0138889
        k(   19) = (   0.0000000   0.3849002   0.2019704), wk =   0.0138889
        k(   20) = (   0.0000000   0.3849002  -0.3029557), wk =   0.0069444
        k(   21) = (   0.0000000   0.4811252   0.0000000), wk =   0.0069444
        k(   22) = (   0.0000000   0.4811252   0.1009852), wk =   0.0138889
        k(   23) = (   0.0000000   0.4811252   0.2019704), wk =   0.0138889
        k(   24) = (   0.0000000   0.4811252  -0.3029557), wk =   0.0069444
        k(   25) = (   0.0000000  -0.5773503   0.0000000), wk =   0.0034722
        k(   26) = (   0.0000000  -0.5773503   0.1009852), wk =   0.0069444
        k(   27) = (   0.0000000  -0.5773503   0.2019704), wk =   0.0069444
        k(   28) = (   0.0000000  -0.5773503  -0.3029557), wk =   0.0034722
        k(   29) = (   0.0833333   0.1443376   0.0000000), wk =   0.0069444
        k(   30) = (   0.0833333   0.1443376   0.1009852), wk =   0.0138889
        k(   31) = (   0.0833333   0.1443376   0.2019704), wk =   0.0138889
        k(   32) = (   0.0833333   0.1443376  -0.3029557), wk =   0.0069444
        k(   33) = (   0.0833333   0.2405626   0.0000000), wk =   0.0138889
        k(   34) = (   0.0833333   0.2405626   0.1009852), wk =   0.0277778
        k(   35) = (   0.0833333   0.2405626   0.2019704), wk =   0.0277778
        k(   36) = (   0.0833333   0.2405626  -0.3029557), wk =   0.0138889
        k(   37) = (   0.0833333   0.3367877   0.0000000), wk =   0.0138889
        k(   38) = (   0.0833333   0.3367877   0.1009852), wk =   0.0277778
        k(   39) = (   0.0833333   0.3367877   0.2019704), wk =   0.0277778
        k(   40) = (   0.0833333   0.3367877  -0.3029557), wk =   0.0138889
        k(   41) = (   0.0833333   0.4330127   0.0000000), wk =   0.0138889
        k(   42) = (   0.0833333   0.4330127   0.1009852), wk =   0.0277778
        k(   43) = (   0.0833333   0.4330127   0.2019704), wk =   0.0277778
        k(   44) = (   0.0833333   0.4330127  -0.3029557), wk =   0.0138889
        k(   45) = (   0.0833333   0.5292377   0.0000000), wk =   0.0138889
        k(   46) = (   0.0833333   0.5292377   0.1009852), wk =   0.0277778
        k(   47) = (   0.0833333   0.5292377   0.2019704), wk =   0.0277778
        k(   48) = (   0.0833333   0.5292377  -0.3029557), wk =   0.0138889
        k(   49) = (   0.1666667   0.2886751   0.0000000), wk =   0.0069444
        k(   50) = (   0.1666667   0.2886751   0.1009852), wk =   0.0138889
        k(   51) = (   0.1666667   0.2886751   0.2019704), wk =   0.0138889
        k(   52) = (   0.1666667   0.2886751  -0.3029557), wk =   0.0069444
        k(   53) = (   0.1666667   0.3849002   0.0000000), wk =   0.0138889
        k(   54) = (   0.1666667   0.3849002   0.1009852), wk =   0.0277778
        k(   55) = (   0.1666667   0.3849002   0.2019704), wk =   0.0277778
        k(   56) = (   0.1666667   0.3849002  -0.3029557), wk =   0.0138889
        k(   57) = (   0.1666667   0.4811252   0.0000000), wk =   0.0138889
        k(   58) = (   0.1666667   0.4811252   0.1009852), wk =   0.0277778
        k(   59) = (   0.1666667   0.4811252   0.2019704), wk =   0.0277778
        k(   60) = (   0.1666667   0.4811252  -0.3029557), wk =   0.0138889
        k(   61) = (   0.1666667   0.5773503   0.0000000), wk =   0.0069444
        k(   62) = (   0.1666667   0.5773503   0.1009852), wk =   0.0138889
        k(   63) = (   0.1666667   0.5773503   0.2019704), wk =   0.0138889
        k(   64) = (   0.1666667   0.5773503  -0.3029557), wk =   0.0069444
        k(   65) = (   0.2500000   0.4330127   0.0000000), wk =   0.0069444
        k(   66) = (   0.2500000   0.4330127   0.1009852), wk =   0.0138889
        k(   67) = (   0.2500000   0.4330127   0.2019704), wk =   0.0138889
        k(   68) = (   0.2500000   0.4330127  -0.3029557), wk =   0.0069444
        k(   69) = (   0.2500000   0.5292377   0.0000000), wk =   0.0138889
        k(   70) = (   0.2500000   0.5292377   0.1009852), wk =   0.0277778
        k(   71) = (   0.2500000   0.5292377   0.2019704), wk =   0.0277778
        k(   72) = (   0.2500000   0.5292377  -0.3029557), wk =   0.0138889
        k(   73) = (   0.3333333   0.5773503   0.0000000), wk =   0.0023148
        k(   74) = (   0.3333333   0.5773503   0.1009852), wk =   0.0046296
        k(   75) = (   0.3333333   0.5773503   0.2019704), wk =   0.0046296
        k(   76) = (   0.3333333   0.5773503  -0.3029557), wk =   0.0023148

                       cryst. coord.
        k(    1) = (   0.0000000   0.0000000   0.0000000), wk =   0.0011574
        k(    2) = (   0.0000000   0.0000000   0.1666667), wk =   0.0023148
        k(    3) = (   0.0000000   0.0000000   0.3333333), wk =   0.0023148
        k(    4) = (   0.0000000   0.0000000  -0.5000000), wk =   0.0011574
        k(    5) = (   0.0000000   0.0833333   0.0000000), wk =   0.0069444
        k(    6) = (   0.0000000   0.0833333   0.1666667), wk =   0.0138889
        k(    7) = (   0.0000000   0.0833333   0.3333333), wk =   0.0138889
        k(    8) = (   0.0000000   0.0833333  -0.5000000), wk =   0.0069444
        k(    9) = (   0.0000000   0.1666667   0.0000000), wk =   0.0069444
        k(   10) = (   0.0000000   0.1666667   0.1666667), wk =   0.0138889
        k(   11) = (   0.0000000   0.1666667   0.3333333), wk =   0.0138889
        k(   12) = (   0.0000000   0.1666667  -0.5000000), wk =   0.0069444
        k(   13) = (   0.0000000   0.2500000   0.0000000), wk =   0.0069444
        k(   14) = (   0.0000000   0.2500000   0.1666667), wk =   0.0138889
        k(   15) = (   0.0000000   0.2500000   0.3333333), wk =   0.0138889
        k(   16) = (   0.0000000   0.2500000  -0.5000000), wk =   0.0069444
        k(   17) = (   0.0000000   0.3333333   0.0000000), wk =   0.0069444
        k(   18) = (   0.0000000   0.3333333   0.1666667), wk =   0.0138889
        k(   19) = (   0.0000000   0.3333333   0.3333333), wk =   0.0138889
        k(   20) = (   0.0000000   0.3333333  -0.5000000), wk =   0.0069444
        k(   21) = (   0.0000000   0.4166667   0.0000000), wk =   0.0069444
        k(   22) = (   0.0000000   0.4166667   0.1666667), wk =   0.0138889
        k(   23) = (   0.0000000   0.4166667   0.3333333), wk =   0.0138889
        k(   24) = (   0.0000000   0.4166667  -0.5000000), wk =   0.0069444
        k(   25) = (   0.0000000  -0.5000000   0.0000000), wk =   0.0034722
        k(   26) = (   0.0000000  -0.5000000   0.1666667), wk =   0.0069444
        k(   27) = (   0.0000000  -0.5000000   0.3333333), wk =   0.0069444
        k(   28) = (   0.0000000  -0.5000000  -0.5000000), wk =   0.0034722
        k(   29) = (   0.0833333   0.0833333   0.0000000), wk =   0.0069444
        k(   30) = (   0.0833333   0.0833333   0.1666667), wk =   0.0138889
        k(   31) = (   0.0833333   0.0833333   0.3333333), wk =   0.0138889
        k(   32) = (   0.0833333   0.0833333  -0.5000000), wk =   0.0069444
        k(   33) = (   0.0833333   0.1666667   0.0000000), wk =   0.0138889
        k(   34) = (   0.0833333   0.1666667   0.1666667), wk =   0.0277778
        k(   35) = (   0.0833333   0.1666667   0.3333333), wk =   0.0277778
        k(   36) = (   0.0833333   0.1666667  -0.5000000), wk =   0.0138889
        k(   37) = (   0.0833333   0.2500000   0.0000000), wk =   0.0138889
        k(   38) = (   0.0833333   0.2500000   0.1666667), wk =   0.0277778
        k(   39) = (   0.0833333   0.2500000   0.3333333), wk =   0.0277778
        k(   40) = (   0.0833333   0.2500000  -0.5000000), wk =   0.0138889
        k(   41) = (   0.0833333   0.3333333   0.0000000), wk =   0.0138889
        k(   42) = (   0.0833333   0.3333333   0.1666667), wk =   0.0277778
        k(   43) = (   0.0833333   0.3333333   0.3333333), wk =   0.0277778
        k(   44) = (   0.0833333   0.3333333  -0.5000000), wk =   0.0138889
        k(   45) = (   0.0833333   0.4166667   0.0000000), wk =   0.0138889
        k(   46) = (   0.0833333   0.4166667   0.1666667), wk =   0.0277778
        k(   47) = (   0.0833333   0.4166667   0.3333333), wk =   0.0277778
        k(   48) = (   0.0833333   0.4166667  -0.5000000), wk =   0.0138889
        k(   49) = (   0.1666667   0.1666667   0.0000000), wk =   0.0069444
        k(   50) = (   0.1666667   0.1666667   0.1666667), wk =   0.0138889
        k(   51) = (   0.1666667   0.1666667   0.3333333), wk =   0.0138889
        k(   52) = (   0.1666667   0.1666667  -0.5000000), wk =   0.0069444
        k(   53) = (   0.1666667   0.2500000   0.0000000), wk =   0.0138889
        k(   54) = (   0.1666667   0.2500000   0.1666667), wk =   0.0277778
        k(   55) = (   0.1666667   0.2500000   0.3333333), wk =   0.0277778
        k(   56) = (   0.1666667   0.2500000  -0.5000000), wk =   0.0138889
        k(   57) = (   0.1666667   0.3333333   0.0000000), wk =   0.0138889
        k(   58) = (   0.1666667   0.3333333   0.1666667), wk =   0.0277778
        k(   59) = (   0.1666667   0.3333333   0.3333333), wk =   0.0277778
        k(   60) = (   0.1666667   0.3333333  -0.5000000), wk =   0.0138889
        k(   61) = (   0.1666667   0.4166667   0.0000000), wk =   0.0069444
        k(   62) = (   0.1666667   0.4166667   0.1666667), wk =   0.0138889
        k(   63) = (   0.1666667   0.4166667   0.3333333), wk =   0.0138889
        k(   64) = (   0.1666667   0.4166667  -0.5000000), wk =   0.0069444
        k(   65) = (   0.2500000   0.2500000   0.0000000), wk =   0.0069444
        k(   66) = (   0.2500000   0.2500000   0.1666667), wk =   0.0138889
        k(   67) = (   0.2500000   0.2500000   0.3333333), wk =   0.0138889
        k(   68) = (   0.2500000   0.2500000  -0.5000000), wk =   0.0069444
        k(   69) = (   0.2500000   0.3333333   0.0000000), wk =   0.0138889
        k(   70) = (   0.2500000   0.3333333   0.1666667), wk =   0.0277778
        k(   71) = (   0.2500000   0.3333333   0.3333333), wk =   0.0277778
        k(   72) = (   0.2500000   0.3333333  -0.5000000), wk =   0.0138889
        k(   73) = (   0.3333333   0.3333333   0.0000000), wk =   0.0023148
        k(   74) = (   0.3333333   0.3333333   0.1666667), wk =   0.0046296
        k(   75) = (   0.3333333   0.3333333   0.3333333), wk =   0.0046296
        k(   76) = (   0.3333333   0.3333333  -0.5000000), wk =   0.0023148

     Dense  grid:    23175 G-vectors     FFT dimensions: (  32,  32,  54)

     Smooth grid:    22395 G-vectors     FFT dimensions: (  32,  32,  54)

     Dynamical RAM for                 wfc:       0.04 MB

     Dynamical RAM for     wfc (w. buffer):       6.81 MB

     Dynamical RAM for           str. fact:       0.02 MB

     Dynamical RAM for           local pot:       0.00 MB

     Dynamical RAM for          nlocal pot:       0.08 MB

     Dynamical RAM for                qrad:       1.70 MB

     Dynamical RAM for          rho,v,vnew:       0.25 MB

     Dynamical RAM for               rhoin:       0.08 MB

     Dynamical RAM for            rho*nmix:       0.57 MB

     Dynamical RAM for           G-vectors:       0.07 MB

     Dynamical RAM for          h,s,v(r/c):       0.08 MB

     Dynamical RAM for          <psi|beta>:       0.01 MB

     Dynamical RAM for                 psi:       0.09 MB

     Dynamical RAM for                hpsi:       0.09 MB

     Dynamical RAM for                spsi:       0.09 MB

     Dynamical RAM for      wfcinit/wfcrot:       0.10 MB

     Dynamical RAM for           addusdens:       3.34 MB

     Estimated static dynamical RAM per process >       9.19 MB

     Estimated max dynamical RAM per process >      13.10 MB

     Estimated total dynamical RAM >     261.98 MB

     Check: negative core charge=   -0.000043
     Generating pointlists ...
     new r_m :   0.4125 (alat units)  1.9176 (a.u.) for type    1

     The initial density is read from file :
     ./out2/Co.save/charge-density


     starting charge      34.0419, renormalised to      34.0000
     Starting wfcs from file
     Checking if some PAW data can be deallocated... 

     total cpu time spent up to now is        0.6 secs

     Self-consistent Calculation

     iteration #  1     ecut=   110.00 Ry     beta= 0.70
     Davidson diagonalization with overlap

---- Real-time Memory Report at c_bands before calling an iterative solver
            56 MiB given to the printing process from OS
             0 MiB allocation reported by mallinfo(arena+hblkhd)
        240768 MiB available memory on the node where the printing process lives
------------------
     ethr =  1.00E-05,  avg # of iterations =  2.7

     total cpu time spent up to now is        2.6 secs

     total energy              =    -753.45343555 Ry
     estimated scf accuracy    <       0.00096949 Ry

     total magnetization       =     3.24 Bohr mag/cell
     absolute magnetization    =     3.55 Bohr mag/cell

     iteration #  2     ecut=   110.00 Ry     beta= 0.70
     Davidson diagonalization with overlap

---- Real-time Memory Report at c_bands before calling an iterative solver
            76 MiB given to the printing process from OS
             0 MiB allocation reported by mallinfo(arena+hblkhd)
        240550 MiB available memory on the node where the printing process lives
------------------
     ethr =  2.85E-06,  avg # of iterations =  4.5

     total cpu time spent up to now is        4.8 secs

     total energy              =    -753.45376996 Ry
     estimated scf accuracy    <       0.00244255 Ry

     total magnetization       =     3.26 Bohr mag/cell
     absolute magnetization    =     3.57 Bohr mag/cell

     iteration #  3     ecut=   110.00 Ry     beta= 0.70
     Davidson diagonalization with overlap

---- Real-time Memory Report at c_bands before calling an iterative solver
            77 MiB given to the printing process from OS
             0 MiB allocation reported by mallinfo(arena+hblkhd)
        240536 MiB available memory on the node where the printing process lives
------------------
     ethr =  2.85E-06,  avg # of iterations =  4.0

     total cpu time spent up to now is        6.7 secs

     total energy              =    -753.45435046 Ry
     estimated scf accuracy    <       0.00000315 Ry

     total magnetization       =     3.25 Bohr mag/cell
     absolute magnetization    =     3.56 Bohr mag/cell

     iteration #  4     ecut=   110.00 Ry     beta= 0.70
     Davidson diagonalization with overlap

---- Real-time Memory Report at c_bands before calling an iterative solver
            78 MiB given to the printing process from OS
             0 MiB allocation reported by mallinfo(arena+hblkhd)
        240526 MiB available memory on the node where the printing process lives
------------------
     ethr =  9.26E-09,  avg # of iterations =  9.4

     total cpu time spent up to now is       10.4 secs

     total energy              =    -753.45437277 Ry
     estimated scf accuracy    <       0.00000751 Ry

     total magnetization       =     3.25 Bohr mag/cell
     absolute magnetization    =     3.56 Bohr mag/cell

     iteration #  5     ecut=   110.00 Ry     beta= 0.70
     Davidson diagonalization with overlap

---- Real-time Memory Report at c_bands before calling an iterative solver
            79 MiB given to the printing process from OS
             0 MiB allocation reported by mallinfo(arena+hblkhd)
        240517 MiB available memory on the node where the printing process lives
------------------
     ethr =  9.26E-09,  avg # of iterations =  3.0
 
     Magnetic moment per site  (integrated on atomic sphere of radius R)
     atom   1 (R=0.413)  charge= 15.5712  magn=  1.6971
     atom   2 (R=0.413)  charge= 15.5712  magn=  1.6971

     total cpu time spent up to now is       12.0 secs

     End of self-consistent calculation

 ------ SPIN UP ------------


          k = 0.0000 0.0000 0.0000 (  2779 PWs)   bands (ev):

   -76.9967 -76.9403 -40.4044 -40.0849 -40.0849 -40.0716 -40.0396 -40.0396
    10.0140  13.8290  16.3615  16.5030  16.5030  16.8044  16.8044  17.2310
    17.2310  18.2941  18.2941  18.6527  25.3117

     occupation numbers 
     1.0000   1.0000   1.0000   1.0000   1.0000   1.0000   1.0000   1.0000
     1.0000   1.0000   1.0000   1.0000   1.0000   1.0000   1.0000   1.0000
     1.0000   1.0000   1.0000   1.0000   0.0000

          k = 0.0000 0.0000 0.1010 (  2791 PWs)   bands (ev):

   -76.9930 -76.9441 -40.3825 -40.0942 -40.0818 -40.0818 -40.0426 -40.0426
    10.2873  13.7481  16.2938  16.4496  16.4496  16.7372  16.7372  17.3791
    17.3791  17.7464  18.2742  18.2742  26.7856

     occupation numbers 
     1.0000   1.0000   1.0000   1.0000   1.0000   1.0000   1.0000   1.0000
     1.0000   1.0000   1.0000   1.0000   1.0000   1.0000   1.0000   1.0000
     1.0000   1.0000   1.0000   1.0000   0.0000

          k = 0.0000 0.0000 0.2020 (  2834 PWs)   bands (ev):

   -76.9827 -76.9544 -40.3222 -40.1557 -40.0736 -40.0736 -40.0509 -40.0509
    11.0710  13.2823  16.1380  16.4033  16.4033  16.4940  16.5877  16.5877
    17.6822  17.6822  18.1819  18.1819  29.9340

     occupation numbers 
     1.0000   1.0000   1.0000   1.0000   1.0000   1.0000   1.0000   1.0000
     1.0000   1.0000   1.0000   1.0000   1.0000   1.0000   1.0000   1.0000
     1.0000   1.0000   1.0000   1.0000   0.0000

          k = 0.0000 0.0000-0.3030 (  2810 PWs)   bands (ev):

   -76.9686 -76.9686 -40.2392 -40.2392 -40.0623 -40.0623 -40.0623 -40.0623
    12.2143  12.2143  16.0655  16.0655  16.4532  16.4532  16.4532  16.4532
    17.9782  17.9782  17.9782  17.9782  33.7102

     occupation numbers 
     1.0000   1.0000   1.0000   1.0000   1.0000   1.0000   1.0000   1.0000
     1.0000   1.0000   1.0000   1.0000   1.0000   1.0000   1.0000   1.0000
     1.0000   1.0000   1.0000   1.0000   0.0000

          k = 0.0000 0.0962 0.0000 (  2801 PWs)   bands (ev):

   -76.9931 -76.9384 -40.3969 -40.1028 -40.0905 -40.0743 -40.0581 -40.0428
    10.2629  13.9845  16.2214  16.6088  16.6227  16.7484  16.9117  17.0348
    17.1581  17.4043  18.3228  19.8987  25.3503

     occupation numbers 
     1.0000   1.0000   1.0000   1.0000   1.0000   1.0000   1.0000   1.0000
     1.0000   1.0000   1.0000   1.0000   1.0000   1.0000   1.0000   1.0000
     1.0000   1.0000   1.0000   0.0000   0.0000

          k = 0.0000 0.0962 0.1010 (  2806 PWs)   bands (ev):

   -76.9895 -76.9421 -40.3761 -40.1007 -40.0985 -40.0873 -40.0574 -40.0460
    10.5319  13.9179  16.2194  16.4529  16.5551  16.5611  16.8390  17.0643
    17.3301  17.3784  18.2957  19.1896  26.8952

     occupation numbers 
     1.0000   1.0000   1.0000   1.0000   1.0000   1.0000   1.0000   1.0000
     1.0000   1.0000   1.0000   1.0000   1.0000   1.0000   1.0000   1.0000
     1.0000   1.0000   1.0000   0.0000   0.0000

          k = 0.0000 0.0962 0.2020 (  2814 PWs)   bands (ev):

   -76.9795 -76.9521 -40.3190 -40.1605 -40.0898 -40.0786 -40.0646 -40.0547
    11.3030  13.4787  16.0941  16.1294  16.3155  16.5011  16.6877  16.6983
    17.6536  17.6940  18.1869  18.4749  30.0918

     occupation numbers 
     1.0000   1.0000   1.0000   1.0000   1.0000   1.0000   1.0000   1.0000
     1.0000   1.0000   1.0000   1.0000   1.0000   1.0000   1.0000   1.0000
     1.0000   1.0000   1.0000   1.0000   0.0000

          k = 0.0000 0.0962-0.3030 (  2800 PWs)   bands (ev):

   -76.9658 -76.9658 -40.2403 -40.2403 -40.0769 -40.0769 -40.0667 -40.0667
    12.4279  12.4279  15.9418  15.9418  16.4413  16.4413  16.5515  16.5515
    17.9654  17.9654  18.0670  18.0670  33.8856

     occupation numbers 
     1.0000   1.0000   1.0000   1.0000   1.0000   1.0000   1.0000   1.0000
     1.0000   1.0000   1.0000   1.0000   1.0000   1.0000   1.0000   1.0000
     1.0000   1.0000   1.0000   1.0000   0.0000

          k = 0.0000 0.1925 0.0000 (  2779 PWs)   bands (ev):

   -76.9831 -76.9334 -40.3755 -40.1521 -40.1082 -40.1057 -40.0826 -40.0517
    10.9819  14.3699  15.9645  16.2015  16.5434  16.9168  16.9609  16.9783
    17.1075  17.2127  18.3824  21.5212  25.4882

     occupation numbers 
     1.0000   1.0000   1.0000   1.0000   1.0000   1.0000   1.0000   1.0000
     1.0000   1.0000   1.0000   1.0000   1.0000   1.0000   1.0000   1.0000
     1.0000   1.0000   1.0000   0.0000   0.0000

          k = 0.0000 0.1925 0.1010 (  2795 PWs)   bands (ev):

   -76.9798 -76.9367 -40.3586 -40.1475 -40.1292 -40.1021 -40.0836 -40.0553
    11.2347  14.3473  15.9288  16.0072  16.4217  16.7930  16.8056  17.1045
    17.2934  17.3546  18.3397  20.4268  27.2537

     occupation numbers 
     1.0000   1.0000   1.0000   1.0000   1.0000   1.0000   1.0000   1.0000
     1.0000   1.0000   1.0000   1.0000   1.0000   1.0000   1.0000   1.0000
     1.0000   1.0000   1.0000   0.0000   0.0000

          k = 0.0000 0.1925 0.2020 (  2798 PWs)   bands (ev):

   -76.9707 -76.9459 -40.3120 -40.1820 -40.1315 -40.0942 -40.0922 -40.0652
    11.9560  13.9859  15.6006  16.0671  16.1382  16.6343  16.7423  16.9637
    17.6202  17.7659  18.1971  19.1137  30.5650

     occupation numbers 
     1.0000   1.0000   1.0000   1.0000   1.0000   1.0000   1.0000   1.0000
     1.0000   1.0000   1.0000   1.0000   1.0000   1.0000   1.0000   1.0000
     1.0000   1.0000   1.0000   0.3328   0.0000

          k = 0.0000 0.1925-0.3030 (  2798 PWs)   bands (ev):

   -76.9583 -76.9583 -40.2477 -40.2477 -40.1123 -40.1123 -40.0787 -40.0787
    13.0025  13.0025  15.7258  15.7258  16.3622  16.3622  16.8136  16.8136
    17.9461  17.9461  18.3077  18.3077  34.3744

     occupation numbers 
     1.0000   1.0000   1.0000   1.0000   1.0000   1.0000   1.0000   1.0000
     1.0000   1.0000   1.0000   1.0000   1.0000   1.0000   1.0000   1.0000
     1.0000   1.0000   1.0000   1.0000   0.0000

          k = 0.0000 0.2887 0.0000 (  2785 PWs)   bands (ev):

   -76.9690 -76.9270 -40.3435 -40.2199 -40.1757 -40.1258 -40.0966 -40.0643
    12.0666  14.6764  15.4603  15.8115  16.4243  16.7621  16.8867  17.3703
    17.4521  17.6453  18.4362  23.3382  25.7630

     occupation numbers 
     1.0000   1.0000   1.0000   1.0000   1.0000   1.0000   1.0000   1.0000
     1.0000   1.0000   1.0000   1.0000   1.0000   1.0000   1.0000   1.0000
     1.0000   1.0000   1.0000   0.0000   0.0000

          k = 0.0000 0.2887 0.1010 (  2787 PWs)   bands (ev):

   -76.9662 -76.9298 -40.3355 -40.2108 -40.1892 -40.1217 -40.1004 -40.0684
    12.2754  14.7067  15.3212  15.8657  16.2778  16.8019  16.8765  17.4909
    17.5074  17.6057  18.3808  21.7146  27.9062

     occupation numbers 
     1.0000   1.0000   1.0000   1.0000   1.0000   1.0000   1.0000   1.0000
     1.0000   1.0000   1.0000   1.0000   1.0000   1.0000   1.0000   1.0000
     1.0000   1.0000   1.0000   0.0000   0.0000

          k = 0.0000 0.2887 0.2020 (  2796 PWs)   bands (ev):

   -76.9585 -76.9375 -40.3116 -40.2314 -40.1776 -40.1158 -40.1105 -40.0797
    12.8574  14.4317  15.2700  15.8709  16.1733  16.7154  16.9250  17.3501
    17.7487  17.9156  18.2226  19.8833  31.2571

     occupation numbers 
     1.0000   1.0000   1.0000   1.0000   1.0000   1.0000   1.0000   1.0000
     1.0000   1.0000   1.0000   1.0000   1.0000   1.0000   1.0000   1.0000
     1.0000   1.0000   1.0000   0.0000   0.0000

          k = 0.0000 0.2887-0.3030 (  2792 PWs)   bands (ev):

   -76.9480 -76.9480 -40.2742 -40.2742 -40.1440 -40.1440 -40.0951 -40.0951
    13.6664  13.6664  15.5661  15.5661  16.4261  16.4261  17.1227  17.1227
    17.9924  17.9924  18.6485  18.6485  33.7921

     occupation numbers 
     1.0000   1.0000   1.0000   1.0000   1.0000   1.0000   1.0000   1.0000
     1.0000   1.0000   1.0000   1.0000   1.0000   1.0000   1.0000   1.0000
     1.0000   1.0000   1.0000   1.0000   0.0000

          k = 0.0000 0.3849 0.0000 (  2808 PWs)   bands (ev):

   -76.9540 -76.9215 -40.3063 -40.2883 -40.2418 -40.1455 -40.1159 -40.0774
    13.2416  14.5991  14.9322  15.9312  16.5534  16.5672  16.6796  17.9778
    18.1031  18.1133  18.4707  25.3158  25.8996

     occupation numbers 
     1.0000   1.0000   1.0000   1.0000   1.0000   1.0000   1.0000   1.0000
     1.0000   1.0000   1.0000   1.0000   1.0000   1.0000   1.0000   1.0000
     1.0000   1.0000   1.0000   0.0000   0.0000

          k = 0.0000 0.3849 0.1010 (  2791 PWs)   bands (ev):

   -76.9518 -76.9237 -40.3274 -40.2643 -40.2434 -40.1409 -40.1171 -40.0819
    13.3336  14.6137  14.9785  15.7612  16.5000  16.6595  17.0385  17.9858
    18.0254  18.0394  18.4265  22.9667  28.2261

     occupation numbers 
     1.0000   1.0000   1.0000   1.0000   1.0000   1.0000   1.0000   1.0000
     1.0000   1.0000   1.0000   1.0000   1.0000   1.0000   1.0000   1.0000
     1.0000   1.0000   1.0000   0.0000   0.0000

          k = 0.0000 0.3849 0.2020 (  2795 PWs)   bands (ev):

   -76.9459 -76.9296 -40.3347 -40.2910 -40.1988 -40.1285 -40.1279 -40.0944
    13.5969  14.4155  15.1353  15.6381  16.6343  16.9196  17.3724  17.6955
    18.0932  18.1505  18.3263  20.7738  29.4896

     occupation numbers 
     1.0000   1.0000   1.0000   1.0000   1.0000   1.0000   1.0000   1.0000
     1.0000   1.0000   1.0000   1.0000   1.0000   1.0000   1.0000   1.0000
     1.0000   1.0000   1.0000   0.0000   0.0000

          k = 0.0000 0.3849-0.3030 (  2806 PWs)   bands (ev):

   -76.9378 -76.9378 -40.3203 -40.3203 -40.1558 -40.1558 -40.1115 -40.1115
    13.9913  13.9913  15.4183  15.4183  17.0585  17.0585  17.2953  17.2953
    18.2066  18.2066  19.1304  19.1304  30.5888

     occupation numbers 
     1.0000   1.0000   1.0000   1.0000   1.0000   1.0000   1.0000   1.0000
     1.0000   1.0000   1.0000   1.0000   1.0000   1.0000   1.0000   1.0000
     1.0000   1.0000   0.0151   0.0151   0.0000

          k = 0.0000 0.4811 0.0000 (  2800 PWs)   bands (ev):

   -76.9417 -76.9187 -40.3385 -40.2896 -40.2720 -40.1597 -40.1370 -40.0870
    13.9996  14.4011  14.6187  16.3009  16.4339  16.5317  16.7758  18.3736
    18.4877  18.4988  19.2716  24.2535  27.3578

     occupation numbers 
     1.0000   1.0000   1.0000   1.0000   1.0000   1.0000   1.0000   1.0000
     1.0000   1.0000   1.0000   1.0000   1.0000   1.0000   1.0000   1.0000
     1.0000   1.0000   0.0000   0.0000   0.0000

          k = 0.0000 0.4811 0.1010 (  2796 PWs)   bands (ev):

   -76.9402 -76.9202 -40.3547 -40.3056 -40.2422 -40.1548 -40.1344 -40.0919
    13.8824  14.3827  14.9413  15.6439  16.5458  16.7907  17.4141  18.2594
    18.3973  18.5463  19.1059  23.3878  26.8563

     occupation numbers 
     1.0000   1.0000   1.0000   1.0000   1.0000   1.0000   1.0000   1.0000
     1.0000   1.0000   1.0000   1.0000   1.0000   1.0000   1.0000   1.0000
     1.0000   1.0000   0.6488   0.0000   0.0000

          k = 0.0000 0.4811 0.2020 (  2798 PWs)   bands (ev):

   -76.9360 -76.9245 -40.3682 -40.3361 -40.1953 -40.1416 -40.1371 -40.1053
    13.8402  14.3045  15.1173  15.4235  16.8630  17.0748  17.8394  18.4162
    18.4316  18.5264  18.7564  21.6337  27.0636

     occupation numbers 
     1.0000   1.0000   1.0000   1.0000   1.0000   1.0000   1.0000   1.0000
     1.0000   1.0000   1.0000   1.0000   1.0000   1.0000   1.0000   1.0000
     1.0000   1.0000   1.0000   0.0000   0.0000

          k = 0.0000 0.4811-0.3030 (  2812 PWs)   bands (ev):

   -76.9302 -76.9302 -40.3612 -40.3612 -40.1572 -40.1572 -40.1235 -40.1235
    14.0182  14.0182  15.2848  15.2848  17.3279  17.3279  17.8050  17.8050
    18.4807  18.4807  19.9765  19.9765  27.8327

     occupation numbers 
     1.0000   1.0000   1.0000   1.0000   1.0000   1.0000   1.0000   1.0000
     1.0000   1.0000   1.0000   1.0000   1.0000   1.0000   1.0000   1.0000
     1.0000   1.0000   0.0000   0.0000   0.0000

          k = 0.0000-0.5774 0.0000 (  2798 PWs)   bands (ev):

   -76.9367 -76.9182 -40.3570 -40.3069 -40.2560 -40.1649 -40.1481 -40.0906
    14.2400  14.2688  14.5151  16.3868  16.4782  16.5655  16.8492  18.4926
    18.5170  18.6547  20.4607  22.5377  28.6846

     occupation numbers 
     1.0000   1.0000   1.0000   1.0000   1.0000   1.0000   1.0000   1.0000
     1.0000   1.0000   1.0000   1.0000   1.0000   1.0000   1.0000   1.0000
     1.0000   1.0000   0.0000   0.0000   0.0000

          k = 0.0000-0.5774 0.1010 (  2798 PWs)   bands (ev):

   -76.9355 -76.9195 -40.3698 -40.3221 -40.2325 -40.1599 -40.1434 -40.0956
    13.9766  14.2854  14.9712  15.6146  16.5043  16.8768  17.6285  18.3026
    18.5461  18.6474  20.2342  22.3402  27.8958

     occupation numbers 
     1.0000   1.0000   1.0000   1.0000   1.0000   1.0000   1.0000   1.0000
     1.0000   1.0000   1.0000   1.0000   1.0000   1.0000   1.0000   1.0000
     1.0000   1.0000   0.0000   0.0000   0.0000

          k = 0.0000-0.5774 0.2020 (  2792 PWs)   bands (ev):

   -76.9321 -76.9228 -40.3827 -40.3527 -40.1905 -40.1463 -40.1416 -40.1092
    13.8569  14.2600  15.1484  15.3215  16.8377  17.2179  17.8660  18.5405
    18.5704  18.6272  19.8642  21.6916  26.9082

     occupation numbers 
     1.0000   1.0000   1.0000   1.0000   1.0000   1.0000   1.0000   1.0000
     1.0000   1.0000   1.0000   1.0000   1.0000   1.0000   1.0000   1.0000
     1.0000   1.0000   0.0000   0.0000   0.0000

          k = 0.0000-0.5774-0.3030 (  2804 PWs)   bands (ev):

   -76.9275 -76.9275 -40.3769 -40.3769 -40.1568 -40.1568 -40.1278 -40.1278
    14.0008  14.0008  15.2337  15.2337  17.3273  17.3273  18.0491  18.0491
    18.5993  18.5993  20.6452  20.6452  26.5557

     occupation numbers 
     1.0000   1.0000   1.0000   1.0000   1.0000   1.0000   1.0000   1.0000
     1.0000   1.0000   1.0000   1.0000   1.0000   1.0000   1.0000   1.0000
     1.0000   1.0000   0.0000   0.0000   0.0000

          k = 0.0833 0.1443 0.0000 (  2787 PWs)   bands (ev):

   -76.9863 -76.9349 -40.3825 -40.1335 -40.1099 -40.0841 -40.0798 -40.0511
    10.7478  14.2614  16.0196  16.4556  16.6329  16.7523  16.8672  16.9330
    17.1455  17.2502  18.3551  21.0687  25.4405

     occupation numbers 
     1.0000   1.0000   1.0000   1.0000   1.0000   1.0000   1.0000   1.0000
     1.0000   1.0000   1.0000   1.0000   1.0000   1.0000   1.0000   1.0000
     1.0000   1.0000   1.0000   0.0000   0.0000

          k = 0.0833 0.1443 0.1010 (  2800 PWs)   bands (ev):

   -76.9829 -76.9384 -40.3641 -40.1290 -40.1205 -40.0990 -40.0742 -40.0545
    11.0067  14.2245  16.0502  16.1213  16.4716  16.7214  16.7952  17.0160
    17.2980  17.3711  18.3201  20.0910  27.1313

     occupation numbers 
     1.0000   1.0000   1.0000   1.0000   1.0000   1.0000   1.0000   1.0000
     1.0000   1.0000   1.0000   1.0000   1.0000   1.0000   1.0000   1.0000
     1.0000   1.0000   1.0000   0.0000   0.0000

          k = 0.0833 0.1443 0.2020 (  2800 PWs)   bands (ev):

   -76.9735 -76.9478 -40.3138 -40.1735 -40.1169 -40.0951 -40.0792 -40.0638
    11.7474  13.8373  15.7242  16.1044  16.1598  16.6240  16.6938  16.8800
    17.6506  17.7170  18.1955  18.9288  30.4099

     occupation numbers 
     1.0000   1.0000   1.0000   1.0000   1.0000   1.0000   1.0000   1.0000
     1.0000   1.0000   1.0000   1.0000   1.0000   1.0000   1.0000   1.0000
     1.0000   1.0000   1.0000   1.0000   0.0000

          k = 0.0833 0.1443-0.3030 (  2818 PWs)   bands (ev):

   -76.9607 -76.9607 -40.2444 -40.2444 -40.1015 -40.1015 -40.0755 -40.0755
    12.8258  12.8258  15.7827  15.7827  16.3661  16.3661  16.7441  16.7441
    17.9517  17.9517  18.2329  18.2329  34.2253

     occupation numbers 
     1.0000   1.0000   1.0000   1.0000   1.0000   1.0000   1.0000   1.0000
     1.0000   1.0000   1.0000   1.0000   1.0000   1.0000   1.0000   1.0000
     1.0000   1.0000   1.0000   1.0000   0.0000

          k = 0.0833 0.2406 0.0000 (  2787 PWs)   bands (ev):

   -76.9743 -76.9293 -40.3557 -40.1879 -40.1590 -40.1122 -40.0910 -40.0653
    11.6589  14.6577  15.7297  15.7501  16.4849  16.6899  17.0241  17.0990
    17.3131  17.5857  18.3926  22.6842  25.6681

     occupation numbers 
     1.0000   1.0000   1.0000   1.0000   1.0000   1.0000   1.0000   1.0000
     1.0000   1.0000   1.0000   1.0000   1.0000   1.0000   1.0000   1.0000
     1.0000   1.0000   1.0000   0.0000   0.0000

          k = 0.0833 0.2406 0.1010 (  2787 PWs)   bands (ev):

   -76.9713 -76.9323 -40.3434 -40.1817 -40.1692 -40.1171 -40.0910 -40.0689
    11.8898  14.6797  15.5211  15.8026  16.3752  16.6555  16.9247  17.2066
    17.4981  17.5599  18.3535  21.2728  27.6581

     occupation numbers 
     1.0000   1.0000   1.0000   1.0000   1.0000   1.0000   1.0000   1.0000
     1.0000   1.0000   1.0000   1.0000   1.0000   1.0000   1.0000   1.0000
     1.0000   1.0000   1.0000   0.0000   0.0000

          k = 0.0833 0.2406 0.2020 (  2792 PWs)   bands (ev):

   -76.9630 -76.9405 -40.3091 -40.2098 -40.1588 -40.1194 -40.0960 -40.0788
    12.5428  14.3720  15.3560  15.9154  16.0928  16.5274  16.8972  17.2167
    17.7399  17.8372  18.2309  19.6176  31.0364

     occupation numbers 
     1.0000   1.0000   1.0000   1.0000   1.0000   1.0000   1.0000   1.0000
     1.0000   1.0000   1.0000   1.0000   1.0000   1.0000   1.0000   1.0000
     1.0000   1.0000   1.0000   0.0000   0.0000

          k = 0.0833 0.2406-0.3030 (  2804 PWs)   bands (ev):

   -76.9518 -76.9518 -40.2606 -40.2606 -40.1344 -40.1344 -40.0912 -40.0912
    13.4756  13.4756  15.6318  15.6318  16.2496  16.2496  17.0411  17.0411
    17.9967  17.9967  18.5272  18.5272  34.7335

     occupation numbers 
     1.0000   1.0000   1.0000   1.0000   1.0000   1.0000   1.0000   1.0000
     1.0000   1.0000   1.0000   1.0000   1.0000   1.0000   1.0000   1.0000
     1.0000   1.0000   1.0000   1.0000   0.0000

          k = 0.0833 0.3368 0.0000 (  2787 PWs)   bands (ev):

   -76.9596 -76.9234 -40.3208 -40.2543 -40.2177 -40.1392 -40.1079 -40.0807
    12.8285  14.7807  15.1515  15.6939  16.4778  16.4887  16.8805  17.4656
    17.8422  18.1814  18.4227  24.5432  26.0328

     occupation numbers 
     1.0000   1.0000   1.0000   1.0000   1.0000   1.0000   1.0000   1.0000
     1.0000   1.0000   1.0000   1.0000   1.0000   1.0000   1.0000   1.0000
     1.0000   1.0000   1.0000   0.0000   0.0000

          k = 0.0833 0.3368 0.1010 (  2792 PWs)   bands (ev):

   -76.9572 -76.9258 -40.3239 -40.2422 -40.2227 -40.1394 -40.1084 -40.0842
    12.9867  14.8307  15.0681  15.7384  16.2829  16.7184  16.8430  17.5068
    17.9246  18.0320  18.4434  22.5462  28.4397

     occupation numbers 
     1.0000   1.0000   1.0000   1.0000   1.0000   1.0000   1.0000   1.0000
     1.0000   1.0000   1.0000   1.0000   1.0000   1.0000   1.0000   1.0000
     1.0000   1.0000   1.0000   0.0000   0.0000

          k = 0.0833 0.3368 0.2020 (  2790 PWs)   bands (ev):

   -76.9506 -76.9325 -40.3188 -40.2648 -40.1916 -40.1374 -40.1141 -40.0942
    13.4162  14.5565  15.2018  15.7825  16.2115  16.7037  16.9507  17.5477
    17.9656  18.1408  18.4183  20.4755  31.0996

     occupation numbers 
     1.0000   1.0000   1.0000   1.0000   1.0000   1.0000   1.0000   1.0000
     1.0000   1.0000   1.0000   1.0000   1.0000   1.0000   1.0000   1.0000
     1.0000   1.0000   1.0000   0.0000   0.0000

          k = 0.0833 0.3368-0.3030 (  2798 PWs)   bands (ev):

   -76.9415 -76.9415 -40.2972 -40.2972 -40.1551 -40.1551 -40.1083 -40.1083
    13.9943  13.9943  15.5363  15.5363  16.4431  16.4431  17.2319  17.2319
    18.2185  18.2185  18.9890  18.9890  32.3231

     occupation numbers 
     1.0000   1.0000   1.0000   1.0000   1.0000   1.0000   1.0000   1.0000
     1.0000   1.0000   1.0000   1.0000   1.0000   1.0000   1.0000   1.0000
     1.0000   1.0000   1.0000   1.0000   0.0000

          k = 0.0833 0.4330 0.0000 (  2798 PWs)   bands (ev):

   -76.9458 -76.9194 -40.3130 -40.2840 -40.2684 -40.1612 -40.1291 -40.0939
    13.8462  14.5920  14.7638  15.9354  16.3659  16.6548  16.6830  18.0268
    18.2911  18.4396  19.0071  25.5403  26.5621

     occupation numbers 
     1.0000   1.0000   1.0000   1.0000   1.0000   1.0000   1.0000   1.0000
     1.0000   1.0000   1.0000   1.0000   1.0000   1.0000   1.0000   1.0000
     1.0000   1.0000   1.0000   0.0000   0.0000

          k = 0.0833 0.4330 0.1010 (  2796 PWs)   bands (ev):

   -76.9440 -76.9212 -40.3351 -40.2866 -40.2448 -40.1584 -40.1275 -40.0973
    13.8294  14.5974  14.9317  15.6615  16.4419  16.7564  16.9986  17.9785
    18.2622  18.3489  19.0026  23.6587  27.4479

     occupation numbers 
     1.0000   1.0000   1.0000   1.0000   1.0000   1.0000   1.0000   1.0000
     1.0000   1.0000   1.0000   1.0000   1.0000   1.0000   1.0000   1.0000
     1.0000   1.0000   1.0000   0.0000   0.0000

          k = 0.0833 0.4330 0.2020 (  2800 PWs)   bands (ev):

   -76.9392 -76.9260 -40.3485 -40.3150 -40.1990 -40.1502 -40.1306 -40.1063
    13.8974  14.4584  15.1270  15.5896  16.5487  16.9927  17.4166  17.7284
    18.1489  18.4932  19.0580  21.5151  28.2002

     occupation numbers 
     1.0000   1.0000   1.0000   1.0000   1.0000   1.0000   1.0000   1.0000
     1.0000   1.0000   1.0000   1.0000   1.0000   1.0000   1.0000   1.0000
     1.0000   1.0000   1.0000   0.0000   0.0000

          k = 0.0833 0.4330-0.3030 (  2810 PWs)   bands (ev):

   -76.9326 -76.9326 -40.3402 -40.3402 -40.1631 -40.1631 -40.1215 -40.1215
    14.1321  14.1321  15.4024  15.4024  16.9901  16.9901  17.3978  17.3978
    18.4382  18.4382  19.8592  19.8592  29.2223

     occupation numbers 
     1.0000   1.0000   1.0000   1.0000   1.0000   1.0000   1.0000   1.0000
     1.0000   1.0000   1.0000   1.0000   1.0000   1.0000   1.0000   1.0000
     1.0000   1.0000   0.0000   0.0000   0.0000

          k = 0.0833 0.5292 0.0000 (  2800 PWs)   bands (ev):

   -76.9367 -76.9182 -40.3469 -40.2977 -40.2562 -40.1735 -40.1479 -40.1016
    14.2861  14.4247  14.5711  16.3178  16.3365  16.4881  16.8477  18.4382
    18.4461  18.5229  20.3096  23.3211  28.4915

     occupation numbers 
     1.0000   1.0000   1.0000   1.0000   1.0000   1.0000   1.0000   1.0000
     1.0000   1.0000   1.0000   1.0000   1.0000   1.0000   1.0000   1.0000
     1.0000   1.0000   0.0000   0.0000   0.0000

          k = 0.0833 0.5292 0.1010 (  2803 PWs)   bands (ev):

   -76.9355 -76.9194 -40.3600 -40.3133 -40.2336 -40.1676 -40.1442 -40.1049
    14.0631  14.4229  15.0140  15.6007  16.3800  16.9327  17.2882  18.2421
    18.4471  18.5502  20.2334  23.0245  27.3334

     occupation numbers 
     1.0000   1.0000   1.0000   1.0000   1.0000   1.0000   1.0000   1.0000
     1.0000   1.0000   1.0000   1.0000   1.0000   1.0000   1.0000   1.0000
     1.0000   1.0000   0.0000   0.0000   0.0000

          k = 0.0833 0.5292 0.2020 (  2803 PWs)   bands (ev):

   -76.9321 -76.9228 -40.3731 -40.3438 -40.1962 -40.1529 -40.1445 -40.1130
    13.9654  14.3920  15.1581  15.4375  16.5508  17.2948  17.6946  17.9878
    18.4061  18.6053  20.2519  22.1123  26.6927

     occupation numbers 
     1.0000   1.0000   1.0000   1.0000   1.0000   1.0000   1.0000   1.0000
     1.0000   1.0000   1.0000   1.0000   1.0000   1.0000   1.0000   1.0000
     1.0000   1.0000   0.0000   0.0000   0.0000

          k = 0.0833 0.5292-0.3030 (  2794 PWs)   bands (ev):

   -76.9275 -76.9275 -40.3676 -40.3676 -40.1665 -40.1665 -40.1276 -40.1276
    14.1188  14.1188  15.3117  15.3117  17.0974  17.0974  17.8416  17.8416
    18.4806  18.4806  20.9728  20.9728  26.9790

     occupation numbers 
     1.0000   1.0000   1.0000   1.0000   1.0000   1.0000   1.0000   1.0000
     1.0000   1.0000   1.0000   1.0000   1.0000   1.0000   1.0000   1.0000
     1.0000   1.0000   0.0000   0.0000   0.0000

          k = 0.1667 0.2887 0.0000 (  2792 PWs)   bands (ev):

   -76.9616 -76.9241 -40.3259 -40.2282 -40.2193 -40.1326 -40.1053 -40.0895
    12.6831  14.9815  15.2684  15.4463  16.4066  16.4878  16.9922  17.1962
    17.8274  18.2089  18.3783  24.2833  26.0659

     occupation numbers 
     1.0000   1.0000   1.0000   1.0000   1.0000   1.0000   1.0000   1.0000
     1.0000   1.0000   1.0000   1.0000   1.0000   1.0000   1.0000   1.0000
     1.0000   1.0000   1.0000   0.0000   0.0000

          k = 0.1667 0.2887 0.1010 (  2791 PWs)   bands (ev):

   -76.9591 -76.9266 -40.3239 -40.2274 -40.2140 -40.1413 -40.1010 -40.0933
    12.8639  15.0738  15.1201  15.5004  16.3502  16.4968  16.8868  17.3131
    17.9403  18.0187  18.4580  22.4094  28.4084

     occupation numbers 
     1.0000   1.0000   1.0000   1.0000   1.0000   1.0000   1.0000   1.0000
     1.0000   1.0000   1.0000   1.0000   1.0000   1.0000   1.0000   1.0000
     1.0000   1.0000   1.0000   0.0000   0.0000

          k = 0.1667 0.2887 0.2020 (  2793 PWs)   bands (ev):

   -76.9523 -76.9335 -40.3122 -40.2533 -40.1825 -40.1471 -40.1036 -40.1025
    13.3598  14.6789  15.3261  15.6536  16.1440  16.3635  16.8980  17.4820
    17.9626  18.1357  18.4957  20.4017  31.7692

     occupation numbers 
     1.0000   1.0000   1.0000   1.0000   1.0000   1.0000   1.0000   1.0000
     1.0000   1.0000   1.0000   1.0000   1.0000   1.0000   1.0000   1.0000
     1.0000   1.0000   1.0000   0.0000   0.0000

          k = 0.1667 0.2887-0.3030 (  2800 PWs)   bands (ev):

   -76.9429 -76.9429 -40.2865 -40.2865 -40.1550 -40.1550 -40.1092 -40.1092
    14.0317  14.0317  15.6428  15.6428  16.0883  16.0883  17.1769  17.1769
    18.2683  18.2683  18.9726  18.9726  34.0514

     occupation numbers 
     1.0000   1.0000   1.0000   1.0000   1.0000   1.0000   1.0000   1.0000
     1.0000   1.0000   1.0000   1.0000   1.0000   1.0000   1.0000   1.0000
     1.0000   1.0000   1.0000   1.0000   0.0000

          k = 0.1667 0.3849 0.0000 (  2797 PWs)   bands (ev):

   -76.9481 -76.9199 -40.2906 -40.2801 -40.2583 -40.1632 -40.1250 -40.1130
    13.8018  14.9139  14.9533  15.4351  16.2346  16.6318  16.7785  17.5333
    18.2830  18.3621  19.0535  26.1658  26.5280

     occupation numbers 
     1.0000   1.0000   1.0000   1.0000   1.0000   1.0000   1.0000   1.0000
     1.0000   1.0000   1.0000   1.0000   1.0000   1.0000   1.0000   1.0000
     1.0000   1.0000   1.0000   0.0000   0.0000

          k = 0.1667 0.3849 0.1010 (  2798 PWs)   bands (ev):

   -76.9462 -76.9218 -40.3154 -40.2761 -40.2342 -40.1698 -40.1227 -40.1121
    13.8712  14.8477  15.0462  15.5141  16.2685  16.6355  16.7381  17.5832
    18.1587  18.3690  19.1288  23.7255  28.8587

     occupation numbers 
     1.0000   1.0000   1.0000   1.0000   1.0000   1.0000   1.0000   1.0000
     1.0000   1.0000   1.0000   1.0000   1.0000   1.0000   1.0000   1.0000
     1.0000   1.0000   0.0231   0.0000   0.0000

          k = 0.1667 0.3849 0.2020 (  2803 PWs)   bands (ev):

   -76.9410 -76.9269 -40.3276 -40.2969 -40.1953 -40.1710 -40.1278 -40.1115
    14.0658  14.6421  15.2884  15.7295  16.1761  16.4874  16.8864  17.5878
    18.0712  18.5147  19.2998  21.5393  29.9362

     occupation numbers 
     1.0000   1.0000   1.0000   1.0000   1.0000   1.0000   1.0000   1.0000
     1.0000   1.0000   1.0000   1.0000   1.0000   1.0000   1.0000   1.0000
     1.0000   1.0000   0.0000   0.0000   0.0000

          k = 0.1667 0.3849-0.3030 (  2800 PWs)   bands (ev):

   -76.9340 -76.9340 -40.3193 -40.3193 -40.1733 -40.1733 -40.1224 -40.1224
    14.3468  14.3468  15.6214  15.6214  16.2698  16.2698  17.1734  17.1734
    18.4859  18.4859  19.9666  19.9666  31.0629

     occupation numbers 
     1.0000   1.0000   1.0000   1.0000   1.0000   1.0000   1.0000   1.0000
     1.0000   1.0000   1.0000   1.0000   1.0000   1.0000   1.0000   1.0000
     1.0000   1.0000   0.0000   0.0000   0.0000

          k = 0.1667 0.4811 0.0000 (  2800 PWs)   bands (ev):

   -76.9368 -76.9182 -40.3208 -40.2793 -40.2567 -40.1910 -40.1475 -40.1292
    14.4966  14.6983  14.7393  15.7645  16.1930  16.5388  16.8431  17.9843
    18.3501  18.4964  20.2664  25.0109  28.2066

     occupation numbers 
     1.0000   1.0000   1.0000   1.0000   1.0000   1.0000   1.0000   1.0000
     1.0000   1.0000   1.0000   1.0000   1.0000   1.0000   1.0000   1.0000
     1.0000   1.0000   0.0000   0.0000   0.0000

          k = 0.1667 0.4811 0.1010 (  2799 PWs)   bands (ev):

   -76.9355 -76.9194 -40.3343 -40.2974 -40.2333 -40.1876 -40.1471 -40.1247
    14.3179  14.7874  14.9875  15.5547  16.2427  16.6851  16.9421  17.9744
    18.1622  18.5555  20.3419  24.3700  27.1956

     occupation numbers 
     1.0000   1.0000   1.0000   1.0000   1.0000   1.0000   1.0000   1.0000
     1.0000   1.0000   1.0000   1.0000   1.0000   1.0000   1.0000   1.0000
     1.0000   1.0000   0.0000   0.0000   0.0000

          k = 0.1667 0.4811 0.2020 (  2802 PWs)   bands (ev):

   -76.9321 -76.9228 -40.3490 -40.3247 -40.2093 -40.1763 -40.1462 -40.1188
    14.2656  14.6998  15.1821  15.7114  16.1394  16.8277  17.1929  17.6660
    18.1709  18.6267  20.6357  22.8048  27.3444

     occupation numbers 
     1.0000   1.0000   1.0000   1.0000   1.0000   1.0000   1.0000   1.0000
     1.0000   1.0000   1.0000   1.0000   1.0000   1.0000   1.0000   1.0000
     1.0000   1.0000   0.0000   0.0000   0.0000

          k = 0.1667 0.4811-0.3030 (  2804 PWs)   bands (ev):

   -76.9275 -76.9275 -40.3456 -40.3456 -40.1891 -40.1891 -40.1273 -40.1273
    14.4169  14.4169  15.5109  15.5109  16.5480  16.5480  17.3599  17.3599
    18.4891  18.4891  21.4171  21.4171  28.2115

     occupation numbers 
     1.0000   1.0000   1.0000   1.0000   1.0000   1.0000   1.0000   1.0000
     1.0000   1.0000   1.0000   1.0000   1.0000   1.0000   1.0000   1.0000
     1.0000   1.0000   0.0000   0.0000   0.0000

          k = 0.1667 0.5774 0.0000 (  2808 PWs)   bands (ev):

   -76.9319 -76.9183 -40.3356 -40.2862 -40.2396 -40.2023 -40.1604 -40.1350
    14.6266  14.6330  14.6682  15.9971  16.2323  16.3968  16.9338  18.2930
    18.3456  18.4567  21.5465  23.1736  29.6518

     occupation numbers 
     1.0000   1.0000   1.0000   1.0000   1.0000   1.0000   1.0000   1.0000
     1.0000   1.0000   1.0000   1.0000   1.0000   1.0000   1.0000   1.0000
     1.0000   1.0000   0.0000   0.0000   0.0000

          k = 0.1667 0.5774 0.1010 (  2798 PWs)   bands (ev):

   -76.9309 -76.9192 -40.3462 -40.3027 -40.2330 -40.1851 -40.1619 -40.1301
    14.3343  14.7025  15.1548  15.5334  16.1619  16.8123  17.0394  18.1357
    18.2904  18.5032  21.6310  23.1083  28.4442

     occupation numbers 
     1.0000   1.0000   1.0000   1.0000   1.0000   1.0000   1.0000   1.0000
     1.0000   1.0000   1.0000   1.0000   1.0000   1.0000   1.0000   1.0000
     1.0000   1.0000   0.0000   0.0000   0.0000

          k = 0.1667 0.5774 0.2020 (  2804 PWs)   bands (ev):

   -76.9285 -76.9217 -40.3590 -40.3335 -40.2167 -40.1747 -40.1525 -40.1221
    14.2599  14.7108  15.2231  15.6608  16.0564  17.0288  17.3274  17.7359
    18.3090  18.5409  21.9085  22.8646  27.2178

     occupation numbers 
     1.0000   1.0000   1.0000   1.0000   1.0000   1.0000   1.0000   1.0000
     1.0000   1.0000   1.0000   1.0000   1.0000   1.0000   1.0000   1.0000
     1.0000   1.0000   0.0000   0.0000   0.0000

          k = 0.1667 0.5774-0.3030 (  2794 PWs)   bands (ev):

   -76.9251 -76.9251 -40.3555 -40.3555 -40.1954 -40.1954 -40.1283 -40.1283
    14.4197  14.4197  15.4693  15.4693  16.5862  16.5862  17.5739  17.5739
    18.4243  18.4243  22.3957  22.3957  26.7599

     occupation numbers 
     1.0000   1.0000   1.0000   1.0000   1.0000   1.0000   1.0000   1.0000
     1.0000   1.0000   1.0000   1.0000   1.0000   1.0000   1.0000   1.0000
     1.0000   1.0000   0.0000   0.0000   0.0000

          k = 0.2500 0.4330 0.0000 (  2806 PWs)   bands (ev):

   -76.9368 -76.9181 -40.2982 -40.2776 -40.2569 -40.1951 -40.1498 -40.1473
    14.6503  14.7727  15.1746  15.1905  16.1078  16.5689  16.8517  17.7223
    18.3003  18.4965  20.2857  26.7334  27.6424

     occupation numbers 
     1.0000   1.0000   1.0000   1.0000   1.0000   1.0000   1.0000   1.0000
     1.0000   1.0000   1.0000   1.0000   1.0000   1.0000   1.0000   1.0000
     1.0000   1.0000   0.0000   0.0000   0.0000

          k = 0.2500 0.4330 0.1010 (  2801 PWs)   bands (ev):

   -76.9356 -76.9194 -40.3082 -40.3026 -40.2210 -40.2077 -40.1521 -40.1331
    14.6437  14.7239  15.2000  15.3500  16.2585  16.4149  16.8615  17.7731
    18.1019  18.5611  20.4027  25.0956  27.9168

     occupation numbers 
     1.0000   1.0000   1.0000   1.0000   1.0000   1.0000   1.0000   1.0000
     1.0000   1.0000   1.0000   1.0000   1.0000   1.0000   1.0000   1.0000
     1.0000   1.0000   0.0000   0.0000   0.0000

          k = 0.2500 0.4330 0.2020 (  2793 PWs)   bands (ev):

   -76.9321 -76.9228 -40.3303 -40.3175 -40.2131 -40.1959 -40.1469 -40.1208
    14.6198  14.6654  15.3648  15.7254  16.0829  16.3651  16.9191  17.5672
    18.1354  18.6353  20.7624  23.0797  28.6767

     occupation numbers 
     1.0000   1.0000   1.0000   1.0000   1.0000   1.0000   1.0000   1.0000
     1.0000   1.0000   1.0000   1.0000   1.0000   1.0000   1.0000   1.0000
     1.0000   1.0000   0.0000   0.0000   0.0000

          k = 0.2500 0.4330-0.3030 (  2796 PWs)   bands (ev):

   -76.9275 -76.9275 -40.3318 -40.3318 -40.2031 -40.2031 -40.1273 -40.1273
    14.6257  14.6257  15.6817  15.6817  16.1541  16.1541  17.1410  17.1410
    18.5093  18.5093  21.5829  21.5829  29.6764

     occupation numbers 
     1.0000   1.0000   1.0000   1.0000   1.0000   1.0000   1.0000   1.0000
     1.0000   1.0000   1.0000   1.0000   1.0000   1.0000   1.0000   1.0000
     1.0000   1.0000   0.0000   0.0000   0.0000

          k = 0.2500 0.5292 0.0000 (  2805 PWs)   bands (ev):

   -76.9285 -76.9189 -40.3113 -40.2691 -40.2279 -40.2270 -40.1737 -40.1706
    14.7121  14.9377  15.0226  15.5363  16.1240  16.3469  17.0254  18.0238
    18.2642  18.4126  21.9812  24.6032  26.9768

     occupation numbers 
     1.0000   1.0000   1.0000   1.0000   1.0000   1.0000   1.0000   1.0000
     1.0000   1.0000   1.0000   1.0000   1.0000   1.0000   1.0000   1.0000
     1.0000   1.0000   0.0000   0.0000   0.0000

          k = 0.2500 0.5292 0.1010 (  2804 PWs)   bands (ev):

   -76.9279 -76.9195 -40.3175 -40.2903 -40.2460 -40.1988 -40.1777 -40.1491
    14.6569  15.0530  15.1431  15.4216  16.1457  16.3570  17.0454  18.0235
    18.0862  18.4598  22.1600  24.5979  26.9726

     occupation numbers 
     1.0000   1.0000   1.0000   1.0000   1.0000   1.0000   1.0000   1.0000
     1.0000   1.0000   1.0000   1.0000   1.0000   1.0000   1.0000   1.0000
     1.0000   1.0000   0.0000   0.0000   0.0000

          k = 0.2500 0.5292 0.2020 (  2785 PWs)   bands (ev):

   -76.9261 -76.9213 -40.3320 -40.3175 -40.2451 -40.2069 -40.1487 -40.1287
    14.6680  15.0292  15.2922  15.6131  15.9919  16.3857  17.1129  17.5832
    18.2182  18.5076  22.6385  24.2399  26.8634

     occupation numbers 
     1.0000   1.0000   1.0000   1.0000   1.0000   1.0000   1.0000   1.0000
     1.0000   1.0000   1.0000   1.0000   1.0000   1.0000   1.0000   1.0000
     1.0000   1.0000   0.0000   0.0000   0.0000

          k = 0.2500 0.5292-0.3030 (  2790 PWs)   bands (ev):

   -76.9237 -76.9237 -40.3342 -40.3342 -40.2275 -40.2275 -40.1277 -40.1277
    14.8034  14.8034  15.5826  15.5826  16.1564  16.1564  17.2503  17.2503
    18.4185  18.4185  23.3877  23.3877  27.4057

     occupation numbers 
     1.0000   1.0000   1.0000   1.0000   1.0000   1.0000   1.0000   1.0000
     1.0000   1.0000   1.0000   1.0000   1.0000   1.0000   1.0000   1.0000
     1.0000   1.0000   0.0000   0.0000   0.0000

          k = 0.3333 0.5774 0.0000 (  2820 PWs)   bands (ev):

   -76.9223 -76.9223 -40.2984 -40.2518 -40.2518 -40.2027 -40.1976 -40.1976
    14.7322  15.1440  15.1440  15.3976  16.1808  16.1808  17.1270  18.1810
    18.1810  18.2300  23.7449  24.6194  24.6194

     occupation numbers 
     1.0000   1.0000   1.0000   1.0000   1.0000   1.0000   1.0000   1.0000
     1.0000   1.0000   1.0000   1.0000   1.0000   1.0000   1.0000   1.0000
     1.0000   1.0000   0.0000   0.0000   0.0000

          k = 0.3333 0.5774 0.1010 (  2817 PWs)   bands (ev):

   -76.9223 -76.9223 -40.2920 -40.2785 -40.2785 -40.2091 -40.1707 -40.1707
    14.8257  15.1570  15.1570  15.4134  16.1579  16.1579  17.1033  18.0061
    18.2303  18.2303  24.1335  24.6812  24.6812

     occupation numbers 
     1.0000   1.0000   1.0000   1.0000   1.0000   1.0000   1.0000   1.0000
     1.0000   1.0000   1.0000   1.0000   1.0000   1.0000   1.0000   1.0000
     1.0000   1.0000   0.0000   0.0000   0.0000

          k = 0.3333 0.5774 0.2020 (  2799 PWs)   bands (ev):

   -76.9223 -76.9223 -40.3096 -40.3096 -40.2746 -40.2267 -40.1393 -40.1393
    15.0640  15.1806  15.1806  15.4199  16.1190  16.1190  17.0774  17.5422
    18.3258  18.3258  24.8333  24.8333  25.1369

     occupation numbers 
     1.0000   1.0000   1.0000   1.0000   1.0000   1.0000   1.0000   1.0000
     1.0000   1.0000   1.0000   1.0000   1.0000   1.0000   1.0000   1.0000
     1.0000   1.0000   0.0000   0.0000   0.0000

          k = 0.3333 0.5774-0.3030 (  2784 PWs)   bands (ev):

   -76.9223 -76.9223 -40.3214 -40.3214 -40.2506 -40.2506 -40.1273 -40.1273
    15.1911  15.1911  15.3118  15.3118  16.1029  16.1029  17.1848  17.1848
    18.3721  18.3721  24.9302  24.9302  26.5258

     occupation numbers 
     1.0000   1.0000   1.0000   1.0000   1.0000   1.0000   1.0000   1.0000
     1.0000   1.0000   1.0000   1.0000   1.0000   1.0000   1.0000   1.0000
     1.0000   1.0000   0.0000   0.0000   0.0000

 ------ SPIN DOWN ----------


          k = 0.0000 0.0000 0.0000 (  2779 PWs)   bands (ev):

   -74.9204 -74.8597 -38.3879 -38.0669 -38.0669 -38.0250 -38.0183 -38.0183
    10.0188  14.7548  17.9881  18.1540  18.1540  18.5072  18.5072  18.6014
    19.0552  19.0552  20.2359  20.2359  26.3712

     occupation numbers 
     1.0000   1.0000   1.0000   1.0000   1.0000   1.0000   1.0000   1.0000
     1.0000   1.0000   1.0000   1.0000   1.0000   1.0000   1.0000   1.0000
     1.0000   1.0000   0.0000   0.0000   0.0000

          k = 0.0000 0.0000 0.1010 (  2791 PWs)   bands (ev):

   -74.9163 -74.8637 -38.3639 -38.0636 -38.0636 -38.0497 -38.0215 -38.0215
    10.2936  14.5118  17.8988  18.0555  18.1010  18.1010  18.4316  18.4316
    19.2154  19.2154  20.2150  20.2150  27.6469

     occupation numbers 
     1.0000   1.0000   1.0000   1.0000   1.0000   1.0000   1.0000   1.0000
     1.0000   1.0000   1.0000   1.0000   1.0000   1.0000   1.0000   1.0000
     0.0000   0.0000   0.0000   0.0000   0.0000

          k = 0.0000 0.0000 0.2020 (  2834 PWs)   bands (ev):

   -74.9053 -74.8749 -38.2983 -38.1168 -38.0548 -38.0548 -38.0305 -38.0305
    11.0881  13.6171  17.4624  17.6728  18.0552  18.0552  18.2636  18.2636
    19.5519  19.5519  20.1135  20.1135  30.5600

     occupation numbers 
     1.0000   1.0000   1.0000   1.0000   1.0000   1.0000   1.0000   1.0000
     1.0000   1.0000   1.0000   1.0000   1.0000   1.0000   1.0000   1.0000
     0.0000   0.0000   0.0000   0.0000   0.0000

          k = 0.0000 0.0000-0.3030 (  2810 PWs)   bands (ev):

   -74.8901 -74.8901 -38.2079 -38.2079 -38.0426 -38.0426 -38.0426 -38.0426
    12.2913  12.2913  17.4412  17.4412  18.1127  18.1127  18.1127  18.1127
    19.8847  19.8847  19.8847  19.8847  34.1565

     occupation numbers 
     1.0000   1.0000   1.0000   1.0000   1.0000   1.0000   1.0000   1.0000
     1.0000   1.0000   1.0000   1.0000   1.0000   1.0000   1.0000   1.0000
     0.0000   0.0000   0.0000   0.0000   0.0000

          k = 0.0000 0.0962 0.0000 (  2801 PWs)   bands (ev):

   -74.9165 -74.8576 -38.3796 -38.0865 -38.0730 -38.0385 -38.0279 -38.0217
    10.2689  14.9311  17.8185  18.0412  18.2697  18.2854  18.4329  18.6251
    18.9648  18.9696  20.2704  21.0288  26.3864

     occupation numbers 
     1.0000   1.0000   1.0000   1.0000   1.0000   1.0000   1.0000   1.0000
     1.0000   1.0000   1.0000   1.0000   1.0000   1.0000   1.0000   1.0000
     1.0000   1.0000   0.0000   0.0000   0.0000

          k = 0.0000 0.0962 0.1010 (  2806 PWs)   bands (ev):

   -74.9126 -74.8616 -38.3570 -38.0827 -38.0696 -38.0607 -38.0327 -38.0251
    10.5400  14.7000  17.6399  17.8128  18.0968  18.2189  18.4359  18.5429
    19.1549  19.1592  20.2406  20.7074  27.7303

     occupation numbers 
     1.0000   1.0000   1.0000   1.0000   1.0000   1.0000   1.0000   1.0000
     1.0000   1.0000   1.0000   1.0000   1.0000   1.0000   1.0000   1.0000
     0.0000   0.0000   0.0000   0.0000   0.0000

          k = 0.0000 0.0962 0.2020 (  2814 PWs)   bands (ev):

   -74.9018 -74.8724 -38.2950 -38.1239 -38.0721 -38.0602 -38.0435 -38.0345
    11.3234  13.8199  17.2614  17.6724  17.9392  18.1640  18.2640  18.3727
    19.5156  19.5458  20.1187  20.3060  30.7016

     occupation numbers 
     1.0000   1.0000   1.0000   1.0000   1.0000   1.0000   1.0000   1.0000
     1.0000   1.0000   1.0000   1.0000   1.0000   1.0000   1.0000   1.0000
     0.0000   0.0000   0.0000   0.0000   0.0000

          k = 0.0000 0.0962-0.3030 (  2800 PWs)   bands (ev):

   -74.8871 -74.8871 -38.2097 -38.2097 -38.0578 -38.0578 -38.0474 -38.0474
    12.5101  12.5101  17.3634  17.3634  18.0567  18.0567  18.2209  18.2209
    19.8680  19.8680  19.9447  19.9447  34.3255

     occupation numbers 
     1.0000   1.0000   1.0000   1.0000   1.0000   1.0000   1.0000   1.0000
     1.0000   1.0000   1.0000   1.0000   1.0000   1.0000   1.0000   1.0000
     0.0000   0.0000   0.0000   0.0000   0.0000

          k = 0.0000 0.1925 0.0000 (  2779 PWs)   bands (ev):

   -74.9058 -74.8523 -38.3561 -38.1402 -38.0930 -38.0894 -38.0368 -38.0312
    10.9958  15.3849  17.2329  17.4842  18.1730  18.6009  18.6588  18.7601
    18.7655  18.9568  20.3410  22.4786  26.4506

     occupation numbers 
     1.0000   1.0000   1.0000   1.0000   1.0000   1.0000   1.0000   1.0000
     1.0000   1.0000   1.0000   1.0000   1.0000   1.0000   1.0000   1.0000
     1.0000   1.0000   0.0000   0.0000   0.0000

          k = 0.0000 0.1925 0.1010 (  2795 PWs)   bands (ev):

   -74.9022 -74.8559 -38.3381 -38.1345 -38.1081 -38.0856 -38.0460 -38.0351
    11.2535  15.1934  16.9973  17.5287  18.0559  18.3686  18.5011  18.8327
    19.0870  19.1120  20.2917  21.7115  28.0129

     occupation numbers 
     1.0000   1.0000   1.0000   1.0000   1.0000   1.0000   1.0000   1.0000
     1.0000   1.0000   1.0000   1.0000   1.0000   1.0000   1.0000   1.0000
     0.9905   0.4011   0.0000   0.0000   0.0000

          k = 0.0000 0.1925 0.2020 (  2798 PWs)   bands (ev):

   -74.8924 -74.8657 -38.2887 -38.1557 -38.1159 -38.0749 -38.0674 -38.0458
    11.9972  14.3634  16.8962  17.6270  17.6786  18.1811  18.4386  18.6745
    19.4639  19.5788  20.1272  20.7721  31.1299

     occupation numbers 
     1.0000   1.0000   1.0000   1.0000   1.0000   1.0000   1.0000   1.0000
     1.0000   1.0000   1.0000   1.0000   1.0000   1.0000   1.0000   1.0000
     0.0000   0.0000   0.0000   0.0000   0.0000

          k = 0.0000 0.1925-0.3030 (  2798 PWs)   bands (ev):

   -74.8791 -74.8791 -38.2215 -38.2215 -38.0926 -38.0926 -38.0604 -38.0604
    13.1205  13.1205  17.1890  17.1890  17.9102  17.9102  18.5117  18.5117
    19.8383  19.8383  20.1144  20.1144  34.7984

     occupation numbers 
     1.0000   1.0000   1.0000   1.0000   1.0000   1.0000   1.0000   1.0000
     1.0000   1.0000   1.0000   1.0000   1.0000   1.0000   1.0000   1.0000
     0.0000   0.0000   0.0000   0.0000   0.0000

          k = 0.0000 0.2887 0.0000 (  2785 PWs)   bands (ev):

   -74.8906 -74.8454 -38.3211 -38.2141 -38.1662 -38.1112 -38.0520 -38.0448
    12.1186  15.8283  16.5753  17.1834  17.9889  18.5031  18.5101  19.0679
    19.2073  19.4359  20.4038  24.1759  26.5946

     occupation numbers 
     1.0000   1.0000   1.0000   1.0000   1.0000   1.0000   1.0000   1.0000
     1.0000   1.0000   1.0000   1.0000   1.0000   1.0000   1.0000   1.0000
     0.0000   0.0000   0.0000   0.0000   0.0000

          k = 0.0000 0.2887 0.1010 (  2787 PWs)   bands (ev):

   -74.8876 -74.8485 -38.3147 -38.2020 -38.1779 -38.1068 -38.0591 -38.0493
    12.3454  15.6992  16.4726  17.2483  17.8576  18.4007  18.5452  19.2496
    19.2658  19.4041  20.3368  22.8250  28.5554

     occupation numbers 
     1.0000   1.0000   1.0000   1.0000   1.0000   1.0000   1.0000   1.0000
     1.0000   1.0000   1.0000   1.0000   1.0000   1.0000   1.0000   0.0000
     0.0000   0.0000   0.0000   0.0000   0.0000

          k = 0.0000 0.2887 0.2020 (  2796 PWs)   bands (ev):

   -74.8793 -74.8567 -38.2937 -38.2181 -38.1606 -38.0947 -38.0818 -38.0614
    12.9932  14.9901  16.6147  17.3253  17.6411  18.1691  18.6632  19.1037
    19.5800  19.7025  20.1467  21.3430  31.7660

     occupation numbers 
     1.0000   1.0000   1.0000   1.0000   1.0000   1.0000   1.0000   1.0000
     1.0000   1.0000   1.0000   1.0000   1.0000   1.0000   1.0000   0.7294
     0.0000   0.0000   0.0000   0.0000   0.0000

          k = 0.0000 0.2887-0.3030 (  2792 PWs)   bands (ev):

   -74.8680 -74.8680 -38.2587 -38.2587 -38.1185 -38.1185 -38.0781 -38.0781
    13.9510  13.9510  16.9959  16.9959  17.8490  17.8490  18.8649  18.8649
    19.8714  19.8715  20.3540  20.3540  34.2521

     occupation numbers 
     1.0000   1.0000   1.0000   1.0000   1.0000   1.0000   1.0000   1.0000
     1.0000   1.0000   1.0000   1.0000   1.0000   1.0000   1.0000   1.0000
     0.0000   0.0000   0.0000   0.0000   0.0000

          k = 0.0000 0.3849 0.0000 (  2808 PWs)   bands (ev):

   -74.8744 -74.8395 -38.2887 -38.2802 -38.2380 -38.1326 -38.0729 -38.0588
    13.4529  15.8551  16.1125  17.0823  18.0824  18.2456  18.2859  19.7719
    19.8048  19.9575  20.4435  26.0371  26.5663

     occupation numbers 
[...]
    20.4141  20.4166  21.6392  24.2212  29.0055

     occupation numbers 
     1.0000   1.0000   1.0000   1.0000   1.0000   1.0000   1.0000   1.0000
     1.0000   1.0000   1.0000   1.0000   1.0000   1.0000   1.0000   0.0000
     0.0000   0.0000   0.0000   0.0000   0.0000

          k = 0.0833 0.5292 0.1010 (  2803 PWs)   bands (ev):

   -74.8545 -74.8373 -38.3637 -38.3138 -38.2050 -38.1554 -38.1079 -38.0863
    15.0061  15.5919  16.1598  16.7455  18.0113  18.4824  18.5093  20.1638
    20.3274  20.4518  21.4988  23.8539  28.0594

     occupation numbers 
     1.0000   1.0000   1.0000   1.0000   1.0000   1.0000   1.0000   1.0000
     1.0000   1.0000   1.0000   1.0000   1.0000   1.0000   1.0000   0.0000
     0.0000   0.0000   0.0000   0.0000   0.0000

          k = 0.0833 0.5292 0.2020 (  2803 PWs)   bands (ev):

   -74.8509 -74.8409 -38.3757 -38.3447 -38.1703 -38.1334 -38.1184 -38.0893
    14.9676  15.4377  16.4621  16.7601  18.0508  18.8351  19.0254  19.7089
    20.2824  20.5233  21.2833  22.8782  27.5890

     occupation numbers 
     1.0000   1.0000   1.0000   1.0000   1.0000   1.0000   1.0000   1.0000
     1.0000   1.0000   1.0000   1.0000   1.0000   1.0000   1.0000   0.0000
     0.0000   0.0000   0.0000   0.0000   0.0000

          k = 0.0833 0.5292-0.3030 (  2794 PWs)   bands (ev):

   -74.8459 -74.8459 -38.3694 -38.3694 -38.1422 -38.1422 -38.1042 -38.1042
    15.1389  15.1389  16.7014  16.7014  18.5687  18.5687  19.3628  19.3628
    20.3724  20.3724  21.8104  21.8104  27.8557

     occupation numbers 
     1.0000   1.0000   1.0000   1.0000   1.0000   1.0000   1.0000   1.0000
     1.0000   1.0000   1.0000   1.0000   1.0000   1.0000   0.0000   0.0000
     0.0000   0.0000   0.0000   0.0000   0.0000

          k = 0.1667 0.2887 0.0000 (  2792 PWs)   bands (ev):

   -74.8827 -74.8423 -38.3017 -38.2229 -38.2138 -38.1187 -38.0722 -38.0614
    12.7590  16.1495  16.4085  16.8282  18.0338  18.0657  18.6613  18.9252
    19.6084  19.9693  20.3359  25.0843  26.8268

     occupation numbers 
     1.0000   1.0000   1.0000   1.0000   1.0000   1.0000   1.0000   1.0000
     1.0000   1.0000   1.0000   1.0000   1.0000   1.0000   1.0000   1.0000
     0.0000   0.0000   0.0000   0.0000   0.0000

          k = 0.1667 0.2887 0.1010 (  2791 PWs)   bands (ev):

   -74.8800 -74.8450 -38.3037 -38.2209 -38.2033 -38.1240 -38.0762 -38.0628
    12.9665  16.0314  16.3561  16.8950  17.9434  18.0571  18.5631  19.0579
    19.7345  19.8348  20.3505  23.4378  29.0127

     occupation numbers 
     1.0000   1.0000   1.0000   1.0000   1.0000   1.0000   1.0000   1.0000
     1.0000   1.0000   1.0000   1.0000   1.0000   1.0000   1.0000   1.0000
     0.0000   0.0000   0.0000   0.0000   0.0000

          k = 0.1667 0.2887 0.2020 (  2793 PWs)   bands (ev):

   -74.8726 -74.8524 -38.2970 -38.2439 -38.1634 -38.1273 -38.0859 -38.0737
    13.5548  15.3360  16.6213  17.0657  17.6449  17.9008  18.6195  19.2153
    19.8009  19.9580  20.3103  21.7269  32.2550

     occupation numbers 
     1.0000   1.0000   1.0000   1.0000   1.0000   1.0000   1.0000   1.0000
     1.0000   1.0000   1.0000   1.0000   1.0000   1.0000   1.0000   0.0000
     0.0000   0.0000   0.0000   0.0000   0.0000

          k = 0.1667 0.2887-0.3030 (  2800 PWs)   bands (ev):

   -74.8625 -74.8625 -38.2745 -38.2745 -38.1315 -38.1315 -38.0897 -38.0897
    14.4127  14.4127  16.9988  16.9988  17.5933  17.5933  18.9263  18.9263
    20.1434  20.1434  20.5379  20.5379  34.4721

     occupation numbers 
     1.0000   1.0000   1.0000   1.0000   1.0000   1.0000   1.0000   1.0000
     1.0000   1.0000   1.0000   1.0000   1.0000   1.0000   1.0000   1.0000
     0.0000   0.0000   0.0000   0.0000   0.0000

          k = 0.1667 0.3849 0.0000 (  2797 PWs)   bands (ev):

   -74.8681 -74.8378 -38.2797 -38.2630 -38.2557 -38.1519 -38.0976 -38.0827
    14.0334  16.1210  16.2135  16.6566  17.8461  18.1677  18.4035  19.2948
    20.1275  20.3173  20.7362  26.8750  27.1451

     occupation numbers 
     1.0000   1.0000   1.0000   1.0000   1.0000   1.0000   1.0000   1.0000
     1.0000   1.0000   1.0000   1.0000   1.0000   1.0000   1.0000   0.0000
     0.0000   0.0000   0.0000   0.0000   0.0000

          k = 0.1667 0.3849 0.1010 (  2798 PWs)   bands (ev):

   -74.8660 -74.8398 -38.3053 -38.2727 -38.2156 -38.1558 -38.1032 -38.0781
    14.1734  15.9829  16.3137  16.7587  17.7950  18.1585  18.3600  19.3581
    20.0621  20.2295  20.8300  24.5535  29.4646

     occupation numbers 
     1.0000   1.0000   1.0000   1.0000   1.0000   1.0000   1.0000   1.0000
     1.0000   1.0000   1.0000   1.0000   1.0000   1.0000   1.0000   0.0000
     0.0000   0.0000   0.0000   0.0000   0.0000

          k = 0.1667 0.3849 0.2020 (  2803 PWs)   bands (ev):

   -74.8605 -74.8453 -38.3206 -38.2930 -38.1732 -38.1532 -38.1107 -38.0801
    14.5577  15.6082  16.5900  16.9667  17.6341  17.8993  18.5523  19.3814
    19.9051  20.4116  20.9110  22.5725  30.5314

     occupation numbers 
     1.0000   1.0000   1.0000   1.0000   1.0000   1.0000   1.0000   1.0000
     1.0000   1.0000   1.0000   1.0000   1.0000   1.0000   1.0000   0.0000
     0.0000   0.0000   0.0000   0.0000   0.0000

          k = 0.1667 0.3849-0.3030 (  2800 PWs)   bands (ev):

   -74.8529 -74.8529 -38.3141 -38.3141 -38.1536 -38.1536 -38.0977 -38.0977
    15.0846  15.0846  16.9307  16.9307  17.6215  17.6215  18.9284  18.9284
    20.3917  20.3917  21.2555  21.2555  31.6175

     occupation numbers 
     1.0000   1.0000   1.0000   1.0000   1.0000   1.0000   1.0000   1.0000
     1.0000   1.0000   1.0000   1.0000   1.0000   1.0000   1.0000   1.0000
     0.0000   0.0000   0.0000   0.0000   0.0000

          k = 0.1667 0.4811 0.0000 (  2800 PWs)   bands (ev):

   -74.8559 -74.8359 -38.3241 -38.2785 -38.2260 -38.1822 -38.1151 -38.1071
    15.1342  15.9577  15.9747  16.7374  17.7807  18.1129  18.4116  19.7897
    20.3033  20.3803  21.6916  25.7403  28.8055

     occupation numbers 
     1.0000   1.0000   1.0000   1.0000   1.0000   1.0000   1.0000   1.0000
     1.0000   1.0000   1.0000   1.0000   1.0000   1.0000   1.0000   0.0000
     0.0000   0.0000   0.0000   0.0000   0.0000

          k = 0.1667 0.4811 0.1010 (  2799 PWs)   bands (ev):

   -74.8546 -74.8372 -38.3349 -38.2953 -38.2095 -38.1729 -38.1253 -38.0949
    15.1332  15.9134  16.1501  16.7533  17.7891  18.0802  18.5152  19.7925
    20.0718  20.4543  21.7373  25.0540  27.9563

     occupation numbers 
     1.0000   1.0000   1.0000   1.0000   1.0000   1.0000   1.0000   1.0000
     1.0000   1.0000   1.0000   1.0000   1.0000   1.0000   1.0000   0.0000
     0.0000   0.0000   0.0000   0.0000   0.0000

          k = 0.1667 0.4811 0.2020 (  2802 PWs)   bands (ev):

   -74.8509 -74.8409 -38.3482 -38.3231 -38.1927 -38.1565 -38.1247 -38.0874
    15.2110  15.7150  16.4771  16.9951  17.6097  18.0708  18.7693  19.4899
    20.0216  20.5492  21.8820  23.5768  28.1395

     occupation numbers 
     1.0000   1.0000   1.0000   1.0000   1.0000   1.0000   1.0000   1.0000
     1.0000   1.0000   1.0000   1.0000   1.0000   1.0000   1.0000   0.0000
     0.0000   0.0000   0.0000   0.0000   0.0000

          k = 0.1667 0.4811-0.3030 (  2804 PWs)   bands (ev):

   -74.8459 -74.8459 -38.3445 -38.3445 -38.1730 -38.1730 -38.0986 -38.0986
    15.4234  15.4234  16.8752  16.8752  17.8111  17.8111  19.0569  19.0569
    20.3824  20.3824  22.4038  22.4038  28.9402

     occupation numbers 
     1.0000   1.0000   1.0000   1.0000   1.0000   1.0000   1.0000   1.0000
     1.0000   1.0000   1.0000   1.0000   1.0000   1.0000   1.0000   1.0000
     0.0000   0.0000   0.0000   0.0000   0.0000

          k = 0.1667 0.5774 0.0000 (  2808 PWs)   bands (ev):

   -74.8506 -74.8361 -38.3401 -38.2859 -38.2073 -38.1945 -38.1214 -38.1212
    15.5837  15.8302  15.9059  16.8249  17.8554  17.9068  18.5200  20.1402
    20.2979  20.3418  22.6274  24.1688  30.1316

     occupation numbers 
     1.0000   1.0000   1.0000   1.0000   1.0000   1.0000   1.0000   1.0000
     1.0000   1.0000   1.0000   1.0000   1.0000   1.0000   1.0000   0.0000
     0.0000   0.0000   0.0000   0.0000   0.0000

          k = 0.1667 0.5774 0.1010 (  2798 PWs)   bands (ev):

   -74.8496 -74.8370 -38.3489 -38.3018 -38.2127 -38.1658 -38.1376 -38.1032
    15.4033  15.8736  16.3053  16.6137  17.7489  18.1143  18.6316  20.0473
    20.1410  20.3999  22.6484  24.0580  29.0496

     occupation numbers 
     1.0000   1.0000   1.0000   1.0000   1.0000   1.0000   1.0000   1.0000
     1.0000   1.0000   1.0000   1.0000   1.0000   1.0000   1.0000   0.0000
     0.0000   0.0000   0.0000   0.0000   0.0000

          k = 0.1667 0.5774 0.2020 (  2804 PWs)   bands (ev):

   -74.8470 -74.8397 -38.3602 -38.3328 -38.2019 -38.1573 -38.1261 -38.0914
    15.3472  15.7769  16.5518  16.9053  17.5217  18.2527  18.9227  19.5564
    20.1751  20.4502  22.7634  23.6996  28.0031

     occupation numbers 
     1.0000   1.0000   1.0000   1.0000   1.0000   1.0000   1.0000   1.0000
     1.0000   1.0000   1.0000   1.0000   1.0000   1.0000   1.0000   0.0000
     0.0000   0.0000   0.0000   0.0000   0.0000

          k = 0.1667 0.5774-0.3030 (  2794 PWs)   bands (ev):

   -74.8433 -74.8433 -38.3558 -38.3558 -38.1806 -38.1806 -38.0983 -38.0983
    15.5013  15.5013  16.8627  16.8627  17.8704  17.8704  19.2248  19.2248
    20.3162  20.3162  23.1609  23.1609  27.6467

     occupation numbers 
     1.0000   1.0000   1.0000   1.0000   1.0000   1.0000   1.0000   1.0000
     1.0000   1.0000   1.0000   1.0000   1.0000   1.0000   0.0000   0.0000
     0.0000   0.0000   0.0000   0.0000   0.0000

          k = 0.2500 0.4330 0.0000 (  2806 PWs)   bands (ev):

   -74.8560 -74.8359 -38.2995 -38.2766 -38.2262 -38.1867 -38.1375 -38.1069
    15.1600  16.0401  16.3341  16.3901  17.6780  18.1447  18.4169  19.5160
    20.2465  20.3774  21.7410  27.2891  28.2466

     occupation numbers 
     1.0000   1.0000   1.0000   1.0000   1.0000   1.0000   1.0000   1.0000
     1.0000   1.0000   1.0000   1.0000   1.0000   1.0000   1.0000   0.0000
     0.0000   0.0000   0.0000   0.0000   0.0000

          k = 0.2500 0.4330 0.1010 (  2801 PWs)   bands (ev):

   -74.8546 -74.8372 -38.3031 -38.3020 -38.1967 -38.1961 -38.1390 -38.0964
    15.2292  15.9571  16.4005  16.5720  17.7167  17.9529  18.4419  19.5770
    20.0066  20.4602  21.8380  25.7537  28.5264

     occupation numbers 
     1.0000   1.0000   1.0000   1.0000   1.0000   1.0000   1.0000   1.0000
     1.0000   1.0000   1.0000   1.0000   1.0000   1.0000   1.0000   0.0000
     0.0000   0.0000   0.0000   0.0000   0.0000

          k = 0.2500 0.4330 0.2020 (  2793 PWs)   bands (ev):

   -74.8509 -74.8409 -38.3256 -38.3159 -38.2017 -38.1782 -38.1245 -38.0871
    15.4064  15.8145  16.6187  16.9218  17.5556  17.6811  18.5545  19.3821
    19.9775  20.5594  22.0680  23.8929  29.2870

     occupation numbers 
     1.0000   1.0000   1.0000   1.0000   1.0000   1.0000   1.0000   1.0000
     1.0000   1.0000   1.0000   1.0000   1.0000   1.0000   1.0000   0.0000
     0.0000   0.0000   0.0000   0.0000   0.0000

          k = 0.2500 0.4330-0.3030 (  2796 PWs)   bands (ev):

   -74.8459 -74.8459 -38.3286 -38.3286 -38.1907 -38.1907 -38.0971 -38.0971
    15.6236  15.6236  16.9579  16.9579  17.4555  17.4555  18.8731  18.8731
    20.4075  20.4075  22.6260  22.6260  30.2755

     occupation numbers 
     1.0000   1.0000   1.0000   1.0000   1.0000   1.0000   1.0000   1.0000
     1.0000   1.0000   1.0000   1.0000   1.0000   1.0000   1.0000   1.0000
     0.0000   0.0000   0.0000   0.0000   0.0000

          k = 0.2500 0.5292 0.0000 (  2805 PWs)   bands (ev):

   -74.8470 -74.8367 -38.3135 -38.2673 -38.2225 -38.1936 -38.1634 -38.1322
    15.8666  16.0246  16.1791  16.4901  17.6758  17.8764  18.6222  19.8492
    20.2050  20.2881  23.0760  25.3931  27.5480

     occupation numbers 
     1.0000   1.0000   1.0000   1.0000   1.0000   1.0000   1.0000   1.0000
     1.0000   1.0000   1.0000   1.0000   1.0000   1.0000   1.0000   0.0000
     0.0000   0.0000   0.0000   0.0000   0.0000

          k = 0.2500 0.5292 0.1010 (  2804 PWs)   bands (ev):

   -74.8463 -74.8374 -38.3179 -38.2864 -38.2366 -38.1795 -38.1569 -38.1151
    15.7972  16.1667  16.2594  16.5469  17.6455  17.7742  18.6481  19.8814
    19.9636  20.3486  23.2311  25.3471  27.5763

     occupation numbers 
     1.0000   1.0000   1.0000   1.0000   1.0000   1.0000   1.0000   1.0000
     1.0000   1.0000   1.0000   1.0000   1.0000   1.0000   1.0000   0.0000
     0.0000   0.0000   0.0000   0.0000   0.0000

          k = 0.2500 0.5292 0.2020 (  2785 PWs)   bands (ev):

   -74.8444 -74.8393 -38.3297 -38.3141 -38.2374 -38.1963 -38.1190 -38.0954
    15.8151  16.1111  16.5389  16.8874  17.3712  17.6422  18.7423  19.4024
    20.0806  20.4109  23.6039  24.9326  27.6094

     occupation numbers 
     1.0000   1.0000   1.0000   1.0000   1.0000   1.0000   1.0000   1.0000
     1.0000   1.0000   1.0000   1.0000   1.0000   1.0000   1.0000   0.0000
     0.0000   0.0000   0.0000   0.0000   0.0000

          k = 0.2500 0.5292-0.3030 (  2790 PWs)   bands (ev):

   -74.8419 -74.8419 -38.3312 -38.3312 -38.2192 -38.2192 -38.0954 -38.0954
    15.9431  15.9431  16.9313  16.9313  17.3587  17.3587  18.9642  18.9642
    20.3087  20.3087  24.1884  24.1884  28.1509

     occupation numbers 
     1.0000   1.0000   1.0000   1.0000   1.0000   1.0000   1.0000   1.0000
     1.0000   1.0000   1.0000   1.0000   1.0000   1.0000   1.0000   1.0000
     0.0000   0.0000   0.0000   0.0000   0.0000

          k = 0.3333 0.5774 0.0000 (  2820 PWs)   bands (ev):

   -74.8404 -74.8404 -38.2993 -38.2486 -38.2486 -38.1948 -38.1616 -38.1616
    16.0721  16.2143  16.2143  16.3877  17.7021  17.7021  18.7329  20.0300
    20.0300  20.1661  24.5604  25.4054  25.4054

     occupation numbers 
     1.0000   1.0000   1.0000   1.0000   1.0000   1.0000   1.0000   1.0000
     1.0000   1.0000   1.0000   1.0000   1.0000   1.0000   1.0000   0.0000
     0.0000   0.0000   0.0000   0.0000   0.0000

          k = 0.3333 0.5774 0.1010 (  2817 PWs)   bands (ev):

   -74.8404 -74.8404 -38.2924 -38.2719 -38.2719 -38.2018 -38.1381 -38.1381
    16.1452  16.2809  16.2809  16.4169  17.6141  17.6141  18.7178  19.9007
    20.0908  20.0908  24.9641  25.4433  25.4433

     occupation numbers 
     1.0000   1.0000   1.0000   1.0000   1.0000   1.0000   1.0000   1.0000
     1.0000   1.0000   1.0000   1.0000   1.0000   1.0000   1.0000   0.0000
     0.0000   0.0000   0.0000   0.0000   0.0000

          k = 0.3333 0.5774 0.2020 (  2799 PWs)   bands (ev):

   -74.8404 -74.8404 -38.3031 -38.3031 -38.2733 -38.2210 -38.1066 -38.1066
    16.3156  16.4397  16.4397  16.4695  17.4211  17.4211  18.7309  19.3622
    20.2043  20.2043  25.5368  25.5368  25.9579

     occupation numbers 
     1.0000   1.0000   1.0000   1.0000   1.0000   1.0000   1.0000   1.0000
     1.0000   1.0000   1.0000   1.0000   1.0000   1.0000   1.0000   0.0000
     0.0000   0.0000   0.0000   0.0000   0.0000

          k = 0.3333 0.5774-0.3030 (  2784 PWs)   bands (ev):

   -74.8404 -74.8404 -38.3154 -38.3154 -38.2472 -38.2472 -38.0942 -38.0942
    16.4540  16.4540  16.5425  16.5425  17.3049  17.3049  18.9190  18.9190
    20.2578  20.2578  25.5956  25.5956  27.2786

     occupation numbers 
     1.0000   1.0000   1.0000   1.0000   1.0000   1.0000   1.0000   1.0000
     1.0000   1.0000   1.0000   1.0000   1.0000   1.0000   1.0000   1.0000
     0.0000   0.0000   0.0000   0.0000   0.0000

     the Fermi energy is    19.1096 ev

!    total energy              =    -753.45437416 Ry
     total all-electron energy =     -5573.811065 Ry
     estimated scf accuracy    <       0.00000097 Ry
     smearing contrib. (-TS)   =      -0.00002625 Ry
     internal energy E=F+TS    =    -753.45434791 Ry

     The total energy is F=E-TS. E is the sum of the following terms:
     one-electron contribution =    -278.74822970 Ry
     hartree contribution      =     163.54715547 Ry
     xc contribution           =     -61.42698468 Ry
     ewald contribution        =    -401.64981564 Ry
     one-center paw contrib.   =    -175.17647336 Ry
      -> PAW hartree energy AE =     222.15712758 Ry
      -> PAW hartree energy PS =    -221.10116089 Ry
      -> PAW xc energy AE      =    -117.67840366 Ry
      -> PAW xc energy PS      =      29.03420030 Ry
      -> total E_H with PAW    =     164.60312215 Ry
      -> total E_XC with PAW   =    -150.07118805 Ry

     total magnetization       =     3.25 Bohr mag/cell
     absolute magnetization    =     3.56 Bohr mag/cell

     convergence has been achieved in   5 iterations

     Writing all to output data dir ./out2/Co.save/
 
     init_run     :      0.36s CPU      0.50s WALL (       1 calls)
     electrons    :     10.78s CPU     11.46s WALL (       1 calls)

     Called by init_run:
     wfcinit      :      0.22s CPU      0.32s WALL (       1 calls)
     potinit      :      0.09s CPU      0.13s WALL (       1 calls)
     hinit0       :      0.03s CPU      0.04s WALL (       1 calls)

     Called by electrons:
     c_bands      :      9.30s CPU      9.77s WALL (       5 calls)
     sum_band     :      0.96s CPU      1.03s WALL (       5 calls)
     v_of_rho     :      0.02s CPU      0.02s WALL (       6 calls)
     v_h          :      0.00s CPU      0.00s WALL (       6 calls)
     v_xc         :      0.02s CPU      0.02s WALL (       6 calls)
     newd         :      0.02s CPU      0.03s WALL (       6 calls)
     PAW_pot      :      0.57s CPU      0.71s WALL (       6 calls)
     mix_rho      :      0.00s CPU      0.00s WALL (       5 calls)

     Called by c_bands:
     init_us_2    :      0.05s CPU      0.06s WALL (    1520 calls)
     init_us_2:cp :      0.05s CPU      0.06s WALL (    1520 calls)
     cegterg      :      8.92s CPU      9.32s WALL (     760 calls)

     Called by sum_band:
     sum_band:wei :      0.01s CPU      0.01s WALL (       5 calls)
     sum_band:loo :      0.90s CPU      0.97s WALL (       5 calls)
     sum_band:buf :      0.00s CPU      0.01s WALL (     760 calls)
     sum_band:ini :      0.03s CPU      0.03s WALL (     760 calls)
     sum_band:cal :      0.08s CPU      0.07s WALL (     760 calls)
     sum_band:bec :      0.00s CPU      0.01s WALL (     760 calls)
     addusdens    :      0.04s CPU      0.04s WALL (       5 calls)
                                        0.00s GPU  (       5 calls)
     addusd:skk   :      0.00s CPU      0.00s WALL (       5 calls)
                                        0.00s GPU  (       5 calls)

     Called by *egterg:
     cdiaghg      :      2.37s CPU      2.43s WALL (    4184 calls)
     cegterg:over :      0.31s CPU      0.29s WALL (    3576 calls)
     cegterg:upda :      0.03s CPU      0.08s WALL (    3576 calls)
     cegterg:last :      0.11s CPU      0.13s WALL (    2387 calls)
     h_psi        :      5.68s CPU      5.99s WALL (    4336 calls)
     s_psi        :      0.13s CPU      0.11s WALL (    4336 calls)
     g_psi        :      0.01s CPU      0.02s WALL (    3576 calls)

     Called by h_psi:
     h_psi:calbec :      0.30s CPU      0.27s WALL (    4336 calls)
     vloc_psi     :      5.29s CPU      5.57s WALL (    4336 calls)
     add_vuspsi   :      0.07s CPU      0.12s WALL (    4336 calls)

     General routines
     calbec       :      0.37s CPU      0.33s WALL (    5096 calls)
     fft          :      0.01s CPU      0.01s WALL (     144 calls)
     ffts         :      0.00s CPU      0.00s WALL (      22 calls)
     fftw         :      5.66s CPU      5.92s WALL (  128770 calls)
     interpolate  :      0.00s CPU      0.00s WALL (      12 calls)
 
     Parallel routines

     PAW routines
     PAW_pot      :      0.57s CPU      0.71s WALL (       6 calls)
     PAW_symme    :      0.01s CPU      0.01s WALL (      10 calls)
 
     PWSCF        :     11.45s CPU     12.72s WALL

 
   This run was terminated on:   9:52: 4  22Mar2024            

=------------------------------------------------------------------------------=
   JOB DONE.
=------------------------------------------------------------------------------=
