
     Program PWSCF v.7.2 starts on 22Mar2024 at  7:50: 5 

     This program is part of the open-source Quantum ESPRESSO suite
     for quantum simulation of materials; please cite
         "P. Giannozzi et al., J. Phys.:Condens. Matter 21 395502 (2009);
         "P. Giannozzi et al., J. Phys.:Condens. Matter 29 465901 (2017);
         "P. Giannozzi et al., J. Chem. Phys. 152 154105 (2020);
          URL http://www.quantum-espresso.org", 
     in publications or presentations arising from this work. More details at
     http://www.quantum-espresso.org/quote

     Parallel version (MPI), running on    20 processors

     MPI processes distributed on     1 nodes
     352932 MiB available memory on the printing compute node when the environment starts
 
     Waiting for input...
     Reading input from standard input

     Current dimensions of program PWSCF are:
     Max number of different atomic species (ntypx) = 10
     Max number of k-points (npk) = 120000
     Max angular momentum in pseudopotentials (lmaxx) =  4
     file Co.pbe-spn-kjpaw_psl.0.3.1.UPF: wavefunction(s)  3P 3D renormalized
 
     R & G space division:  proc/nbgrp/npool/nimage =      20
     Subspace diagonalization in iterative solution of the eigenvalue problem:
     a serial algorithm will be used

 
     Parallelization info
     --------------------
     sticks:   dense  smooth     PW     G-vecs:    dense   smooth      PW
     Min          33      33      9                 1165     1129     181
     Max          36      34     10                 1180     1135     188
     Sum         673     661    199                23427    22635    3719
 
     Using Slab Decomposition
 


     bravais-lattice index     =            4
     lattice parameter (alat)  =       4.6771  a.u.
     unit-cell volume          =     145.3462 (a.u.)^3
     number of atoms/cell      =            2
     number of atomic types    =            1
     number of electrons       =        34.00
     number of Kohn-Sham states=           21
     kinetic-energy cutoff     =     110.0000  Ry
     charge density cutoff     =     450.0000  Ry
     scf convergence threshold =      1.0E-06
     mixing beta               =       0.7000
     number of iterations used =            8  plain     mixing
     Exchange-correlation= SLA  PW   PBX  PBC
                           (   1   4   3   4   0   0   0)

     celldm(1)=   4.677072  celldm(2)=   0.000000  celldm(3)=   1.640404
     celldm(4)=   0.000000  celldm(5)=   0.000000  celldm(6)=   0.000000

     crystal axes: (cart. coord. in units of alat)
               a(1) = (   1.000000   0.000000   0.000000 )  
               a(2) = (  -0.500000   0.866025   0.000000 )  
               a(3) = (   0.000000   0.000000   1.640404 )  

     reciprocal axes: (cart. coord. in units 2 pi/alat)
               b(1) = (  1.000000  0.577350  0.000000 )  
               b(2) = (  0.000000  1.154701  0.000000 )  
               b(3) = (  0.000000  0.000000  0.609606 )  


     PseudoPot. # 1 for Co read from file:
     /truba/home/amuhaymin/ZnS/pseudo/QE/Co.pbe-spn-kjpaw_psl.0.3.1.UPF
     MD5 check sum: b0a1ad65bf214e88c1f3d33b20c7d919
     Pseudo is Projector augmented-wave + core cor, Zval = 17.0
     Generated using &quot;atomic&quot; code by A. Dal Corso  v.6.2.2
     Shape of augmentation charge: PSQ
     Using radial grid of 1193 points,  6 beta functions with: 
                l(1) =   0
                l(2) =   0
                l(3) =   1
                l(4) =   1
                l(5) =   2
                l(6) =   2
     Q(r) pseudized with 0 coefficients 


     atomic species   valence    mass     pseudopotential
        Co            17.00    58.93300     Co( 1.00)

     Starting magnetic structure 
     atomic species   magnetization
        Co           0.294

     24 Sym. Ops., with inversion, found (12 have fractional translation)


                                    s                        frac. trans.

      isym =  1     identity                                     

 cryst.   s( 1) = (     1          0          0      )
                  (     0          1          0      )
                  (     0          0          1      )

 cart.    s( 1) = (  1.0000000  0.0000000  0.0000000 )
                  (  0.0000000  1.0000000  0.0000000 )
                  (  0.0000000  0.0000000  1.0000000 )


      isym =  2     180 deg rotation - cart. axis [0,0,1]        

 cryst.   s( 2) = (    -1          0          0      )    f =(  0.0000000 )
                  (     0         -1          0      )       (  0.0000000 )
                  (     0          0          1      )       ( -0.5000000 )

 cart.    s( 2) = ( -1.0000000  0.0000000  0.0000000 )    f =(  0.0000000 )
                  (  0.0000000 -1.0000000  0.0000000 )       (  0.0000000 )
                  (  0.0000000  0.0000000  1.0000000 )       ( -0.8202020 )


      isym =  3     180 deg rotation - cart. axis [0,1,0]        

 cryst.   s( 3) = (    -1          0          0      )    f =(  0.0000000 )
                  (     1          1          0      )       (  0.0000000 )
                  (     0          0         -1      )       (  0.5000000 )

 cart.    s( 3) = ( -1.0000000  0.0000000  0.0000000 )    f =(  0.0000000 )
                  (  0.0000000  1.0000000  0.0000000 )       (  0.0000000 )
                  (  0.0000000  0.0000000 -1.0000000 )       (  0.8202020 )


      isym =  4     180 deg rotation - cart. axis [1,0,0]        

 cryst.   s( 4) = (     1          0          0      )
                  (    -1         -1          0      )
                  (     0          0         -1      )

 cart.    s( 4) = (  1.0000000  0.0000000  0.0000000 )
                  (  0.0000000 -1.0000000  0.0000000 )
                  (  0.0000000  0.0000000 -1.0000000 )


      isym =  5      60 deg rotation - cryst. axis [0,0,1]       

 cryst.   s( 5) = (     1          1          0      )    f =(  0.0000000 )
                  (    -1          0          0      )       ( -0.0000000 )
                  (     0          0          1      )       ( -0.5000000 )

 cart.    s( 5) = (  0.5000000 -0.8660254  0.0000000 )    f =(  0.0000000 )
                  (  0.8660254  0.5000000  0.0000000 )       ( -0.0000000 )
                  (  0.0000000  0.0000000  1.0000000 )       ( -0.8202020 )


      isym =  6      60 deg rotation - cryst. axis [0,0,-1]      

 cryst.   s( 6) = (     0         -1          0      )    f =(  0.0000000 )
                  (     1          1          0      )       ( -0.0000000 )
                  (     0          0          1      )       ( -0.5000000 )

 cart.    s( 6) = (  0.5000000  0.8660254  0.0000000 )    f =(  0.0000000 )
                  ( -0.8660254  0.5000000  0.0000000 )       ( -0.0000000 )
                  (  0.0000000  0.0000000  1.0000000 )       ( -0.8202020 )


      isym =  7     120 deg rotation - cryst. axis [0,0,1]       

 cryst.   s( 7) = (     0          1          0      )
                  (    -1         -1          0      )
                  (     0          0          1      )

 cart.    s( 7) = ( -0.5000000 -0.8660254  0.0000000 )
                  (  0.8660254 -0.5000000  0.0000000 )
                  (  0.0000000  0.0000000  1.0000000 )


      isym =  8     120 deg rotation - cryst. axis [0,0,-1]      

 cryst.   s( 8) = (    -1         -1          0      )
                  (     1          0          0      )
                  (     0          0          1      )

 cart.    s( 8) = ( -0.5000000  0.8660254  0.0000000 )
                  ( -0.8660254 -0.5000000  0.0000000 )
                  (  0.0000000  0.0000000  1.0000000 )


      isym =  9     180 deg rotation - cryst. axis [1,-1,0]      

 cryst.   s( 9) = (     0         -1          0      )    f =(  0.0000000 )
                  (    -1          0          0      )       (  0.0000000 )
                  (     0          0         -1      )       (  0.5000000 )

 cart.    s( 9) = (  0.5000000 -0.8660254  0.0000000 )    f =(  0.0000000 )
                  ( -0.8660254 -0.5000000  0.0000000 )       (  0.0000000 )
                  (  0.0000000  0.0000000 -1.0000000 )       (  0.8202020 )


      isym = 10     180 deg rotation - cryst. axis [2,1,0]       

 cryst.   s(10) = (     1          1          0      )    f =(  0.0000000 )
                  (     0         -1          0      )       ( -0.0000000 )
                  (     0          0         -1      )       (  0.5000000 )

 cart.    s(10) = (  0.5000000  0.8660254  0.0000000 )    f =(  0.0000000 )
                  (  0.8660254 -0.5000000  0.0000000 )       ( -0.0000000 )
                  (  0.0000000  0.0000000 -1.0000000 )       (  0.8202020 )


      isym = 11     180 deg rotation - cryst. axis [0,1,0]       

 cryst.   s(11) = (    -1         -1          0      )
                  (     0          1          0      )
                  (     0          0         -1      )

 cart.    s(11) = ( -0.5000000 -0.8660254  0.0000000 )
                  ( -0.8660254  0.5000000  0.0000000 )
                  (  0.0000000  0.0000000 -1.0000000 )


      isym = 12     180 deg rotation - cryst. axis [1,1,0]       

 cryst.   s(12) = (     0          1          0      )
                  (     1          0          0      )
                  (     0          0         -1      )

 cart.    s(12) = ( -0.5000000  0.8660254  0.0000000 )
                  (  0.8660254  0.5000000  0.0000000 )
                  (  0.0000000  0.0000000 -1.0000000 )


      isym = 13     inversion                                    

 cryst.   s(13) = (    -1          0          0      )
                  (     0         -1          0      )
                  (     0          0         -1      )

 cart.    s(13) = ( -1.0000000  0.0000000  0.0000000 )
                  (  0.0000000 -1.0000000  0.0000000 )
                  (  0.0000000  0.0000000 -1.0000000 )


      isym = 14     inv. 180 deg rotation - cart. axis [0,0,1]   

 cryst.   s(14) = (     1          0          0      )    f =(  0.0000000 )
                  (     0          1          0      )       (  0.0000000 )
                  (     0          0         -1      )       (  0.5000000 )

 cart.    s(14) = (  1.0000000  0.0000000  0.0000000 )    f =(  0.0000000 )
                  (  0.0000000  1.0000000  0.0000000 )       (  0.0000000 )
                  (  0.0000000  0.0000000 -1.0000000 )       (  0.8202020 )


      isym = 15     inv. 180 deg rotation - cart. axis [0,1,0]   

 cryst.   s(15) = (     1          0          0      )    f =(  0.0000000 )
                  (    -1         -1          0      )       (  0.0000000 )
                  (     0          0          1      )       ( -0.5000000 )

 cart.    s(15) = (  1.0000000  0.0000000  0.0000000 )    f =(  0.0000000 )
                  (  0.0000000 -1.0000000  0.0000000 )       (  0.0000000 )
                  (  0.0000000  0.0000000  1.0000000 )       ( -0.8202020 )


      isym = 16     inv. 180 deg rotation - cart. axis [1,0,0]   

 cryst.   s(16) = (    -1          0          0      )
                  (     1          1          0      )
                  (     0          0          1      )

 cart.    s(16) = ( -1.0000000  0.0000000  0.0000000 )
                  (  0.0000000  1.0000000  0.0000000 )
                  (  0.0000000  0.0000000  1.0000000 )


      isym = 17     inv.  60 deg rotation - cryst. axis [0,0,1]  

 cryst.   s(17) = (    -1         -1          0      )    f =(  0.0000000 )
                  (     1          0          0      )       (  0.0000000 )
                  (     0          0         -1      )       (  0.5000000 )

 cart.    s(17) = ( -0.5000000  0.8660254  0.0000000 )    f =(  0.0000000 )
                  ( -0.8660254 -0.5000000  0.0000000 )       (  0.0000000 )
                  (  0.0000000  0.0000000 -1.0000000 )       (  0.8202020 )


      isym = 18     inv.  60 deg rotation - cryst. axis [0,0,-1] 

 cryst.   s(18) = (     0          1          0      )    f =(  0.0000000 )
                  (    -1         -1          0      )       ( -0.0000000 )
                  (     0          0         -1      )       (  0.5000000 )

 cart.    s(18) = ( -0.5000000 -0.8660254  0.0000000 )    f =(  0.0000000 )
                  (  0.8660254 -0.5000000  0.0000000 )       ( -0.0000000 )
                  (  0.0000000  0.0000000 -1.0000000 )       (  0.8202020 )


      isym = 19     inv. 120 deg rotation - cryst. axis [0,0,1]  

 cryst.   s(19) = (     0         -1          0      )
                  (     1          1          0      )
                  (     0          0         -1      )

 cart.    s(19) = (  0.5000000  0.8660254  0.0000000 )
                  ( -0.8660254  0.5000000  0.0000000 )
                  (  0.0000000  0.0000000 -1.0000000 )


      isym = 20     inv. 120 deg rotation - cryst. axis [0,0,-1] 

 cryst.   s(20) = (     1          1          0      )
                  (    -1          0          0      )
                  (     0          0         -1      )

 cart.    s(20) = (  0.5000000 -0.8660254  0.0000000 )
                  (  0.8660254  0.5000000  0.0000000 )
                  (  0.0000000  0.0000000 -1.0000000 )


      isym = 21     inv. 180 deg rotation - cryst. axis [1,-1,0] 

 cryst.   s(21) = (     0          1          0      )    f =(  0.0000000 )
                  (     1          0          0      )       ( -0.0000000 )
                  (     0          0          1      )       ( -0.5000000 )

 cart.    s(21) = ( -0.5000000  0.8660254  0.0000000 )    f =(  0.0000000 )
                  (  0.8660254  0.5000000  0.0000000 )       ( -0.0000000 )
                  (  0.0000000  0.0000000  1.0000000 )       ( -0.8202020 )


      isym = 22     inv. 180 deg rotation - cryst. axis [2,1,0]  

 cryst.   s(22) = (    -1         -1          0      )    f =(  0.0000000 )
                  (     0          1          0      )       ( -0.0000000 )
                  (     0          0          1      )       ( -0.5000000 )

 cart.    s(22) = ( -0.5000000 -0.8660254  0.0000000 )    f =(  0.0000000 )
                  ( -0.8660254  0.5000000  0.0000000 )       ( -0.0000000 )
                  (  0.0000000  0.0000000  1.0000000 )       ( -0.8202020 )


      isym = 23     inv. 180 deg rotation - cryst. axis [0,1,0]  

 cryst.   s(23) = (     1          1          0      )
                  (     0         -1          0      )
                  (     0          0          1      )

 cart.    s(23) = (  0.5000000  0.8660254  0.0000000 )
                  (  0.8660254 -0.5000000  0.0000000 )
                  (  0.0000000  0.0000000  1.0000000 )


      isym = 24     inv. 180 deg rotation - cryst. axis [1,1,0]  

 cryst.   s(24) = (     0         -1          0      )
                  (    -1          0          0      )
                  (     0          0          1      )

 cart.    s(24) = (  0.5000000 -0.8660254  0.0000000 )
                  ( -0.8660254 -0.5000000  0.0000000 )
                  (  0.0000000  0.0000000  1.0000000 )


     point group D_6h(6/mmm)
     there are 12 classes
     the character table:

       E     2C6   2C3   C2    3C2'  3C2'' i     2S3   2S6   s_h   3s_d  3s_v 
A_1g   1.00  1.00  1.00  1.00  1.00  1.00  1.00  1.00  1.00  1.00  1.00  1.00
A_2g   1.00  1.00  1.00  1.00 -1.00 -1.00  1.00  1.00  1.00  1.00 -1.00 -1.00
B_1g   1.00 -1.00  1.00 -1.00  1.00 -1.00  1.00 -1.00  1.00 -1.00  1.00 -1.00
B_2g   1.00 -1.00  1.00 -1.00 -1.00  1.00  1.00 -1.00  1.00 -1.00 -1.00  1.00
E_1g   2.00  1.00 -1.00 -2.00  0.00  0.00  2.00  1.00 -1.00 -2.00  0.00  0.00
E_2g   2.00 -1.00 -1.00  2.00  0.00  0.00  2.00 -1.00 -1.00  2.00  0.00  0.00
A_1u   1.00  1.00  1.00  1.00  1.00  1.00 -1.00 -1.00 -1.00 -1.00 -1.00 -1.00
A_2u   1.00  1.00  1.00  1.00 -1.00 -1.00 -1.00 -1.00 -1.00 -1.00  1.00  1.00
B_1u   1.00 -1.00  1.00 -1.00  1.00 -1.00 -1.00  1.00 -1.00  1.00 -1.00  1.00
B_2u   1.00 -1.00  1.00 -1.00 -1.00  1.00 -1.00  1.00 -1.00  1.00  1.00 -1.00
E_1u   2.00  1.00 -1.00 -2.00  0.00  0.00 -2.00 -1.00  1.00  2.00  0.00  0.00
E_2u   2.00 -1.00 -1.00  2.00  0.00  0.00 -2.00  1.00  1.00 -2.00  0.00  0.00

     the symmetry operations in each class and the name of the first element:

     E        1
          identity                                               
     2C6      5    6
           60 deg rotation - cryst. axis [0,0,1]                 
     2C3      7    8
          120 deg rotation - cryst. axis [0,0,1]                 
     C2       2
          180 deg rotation - cart. axis [0,0,1]                  
     3C2'     4   12   11
          180 deg rotation - cart. axis [1,0,0]                  
     3C2''    3    9   10
          180 deg rotation - cart. axis [0,1,0]                  
     i       13
          inversion                                              
     2S3     17   18
          inv.  60 deg rotation - cryst. axis [0,0,1]            
     2S6     19   20
          inv. 120 deg rotation - cryst. axis [0,0,1]            
     s_h     14
          inv. 180 deg rotation - cart. axis [0,0,1]             
     3s_d    16   24   23
          inv. 180 deg rotation - cart. axis [1,0,0]             
     3s_v    15   21   22
          inv. 180 deg rotation - cart. axis [0,1,0]             

   Cartesian axes

     site n.     atom                  positions (alat units)
         1           Co  tau(   1) = (  -0.0000000   0.5773503   0.4101010  )
         2           Co  tau(   2) = (   0.5000000   0.2886751   1.2303030  )

   Crystallographic axes

     site n.     atom                  positions (cryst. coord.)
         1           Co  tau(   1) = (  0.3333333  0.6666667  0.2500000  )
         2           Co  tau(   2) = (  0.6666667  0.3333333  0.7500000  )

     number of k points=    76  Gaussian smearing, width (Ry)=  0.0010
                       cart. coord. in units 2pi/alat
        k(    1) = (   0.0000000   0.0000000   0.0000000), wk =   0.0011574
        k(    2) = (   0.0000000   0.0000000   0.1016010), wk =   0.0023148
        k(    3) = (   0.0000000   0.0000000   0.2032020), wk =   0.0023148
        k(    4) = (   0.0000000   0.0000000  -0.3048030), wk =   0.0011574
        k(    5) = (   0.0000000   0.0962250   0.0000000), wk =   0.0069444
        k(    6) = (   0.0000000   0.0962250   0.1016010), wk =   0.0138889
        k(    7) = (   0.0000000   0.0962250   0.2032020), wk =   0.0138889
        k(    8) = (   0.0000000   0.0962250  -0.3048030), wk =   0.0069444
        k(    9) = (   0.0000000   0.1924501   0.0000000), wk =   0.0069444
        k(   10) = (   0.0000000   0.1924501   0.1016010), wk =   0.0138889
        k(   11) = (   0.0000000   0.1924501   0.2032020), wk =   0.0138889
        k(   12) = (   0.0000000   0.1924501  -0.3048030), wk =   0.0069444
        k(   13) = (   0.0000000   0.2886751   0.0000000), wk =   0.0069444
        k(   14) = (   0.0000000   0.2886751   0.1016010), wk =   0.0138889
        k(   15) = (   0.0000000   0.2886751   0.2032020), wk =   0.0138889
        k(   16) = (   0.0000000   0.2886751  -0.3048030), wk =   0.0069444
        k(   17) = (   0.0000000   0.3849002   0.0000000), wk =   0.0069444
        k(   18) = (   0.0000000   0.3849002   0.1016010), wk =   0.0138889
        k(   19) = (   0.0000000   0.3849002   0.2032020), wk =   0.0138889
        k(   20) = (   0.0000000   0.3849002  -0.3048030), wk =   0.0069444
        k(   21) = (   0.0000000   0.4811252   0.0000000), wk =   0.0069444
        k(   22) = (   0.0000000   0.4811252   0.1016010), wk =   0.0138889
        k(   23) = (   0.0000000   0.4811252   0.2032020), wk =   0.0138889
        k(   24) = (   0.0000000   0.4811252  -0.3048030), wk =   0.0069444
        k(   25) = (   0.0000000  -0.5773503   0.0000000), wk =   0.0034722
        k(   26) = (   0.0000000  -0.5773503   0.1016010), wk =   0.0069444
        k(   27) = (   0.0000000  -0.5773503   0.2032020), wk =   0.0069444
        k(   28) = (   0.0000000  -0.5773503  -0.3048030), wk =   0.0034722
        k(   29) = (   0.0833333   0.1443376   0.0000000), wk =   0.0069444
        k(   30) = (   0.0833333   0.1443376   0.1016010), wk =   0.0138889
        k(   31) = (   0.0833333   0.1443376   0.2032020), wk =   0.0138889
        k(   32) = (   0.0833333   0.1443376  -0.3048030), wk =   0.0069444
        k(   33) = (   0.0833333   0.2405626   0.0000000), wk =   0.0138889
        k(   34) = (   0.0833333   0.2405626   0.1016010), wk =   0.0277778
        k(   35) = (   0.0833333   0.2405626   0.2032020), wk =   0.0277778
        k(   36) = (   0.0833333   0.2405626  -0.3048030), wk =   0.0138889
        k(   37) = (   0.0833333   0.3367877   0.0000000), wk =   0.0138889
        k(   38) = (   0.0833333   0.3367877   0.1016010), wk =   0.0277778
        k(   39) = (   0.0833333   0.3367877   0.2032020), wk =   0.0277778
        k(   40) = (   0.0833333   0.3367877  -0.3048030), wk =   0.0138889
        k(   41) = (   0.0833333   0.4330127   0.0000000), wk =   0.0138889
        k(   42) = (   0.0833333   0.4330127   0.1016010), wk =   0.0277778
        k(   43) = (   0.0833333   0.4330127   0.2032020), wk =   0.0277778
        k(   44) = (   0.0833333   0.4330127  -0.3048030), wk =   0.0138889
        k(   45) = (   0.0833333   0.5292377   0.0000000), wk =   0.0138889
        k(   46) = (   0.0833333   0.5292377   0.1016010), wk =   0.0277778
        k(   47) = (   0.0833333   0.5292377   0.2032020), wk =   0.0277778
        k(   48) = (   0.0833333   0.5292377  -0.3048030), wk =   0.0138889
        k(   49) = (   0.1666667   0.2886751   0.0000000), wk =   0.0069444
        k(   50) = (   0.1666667   0.2886751   0.1016010), wk =   0.0138889
        k(   51) = (   0.1666667   0.2886751   0.2032020), wk =   0.0138889
        k(   52) = (   0.1666667   0.2886751  -0.3048030), wk =   0.0069444
        k(   53) = (   0.1666667   0.3849002   0.0000000), wk =   0.0138889
        k(   54) = (   0.1666667   0.3849002   0.1016010), wk =   0.0277778
        k(   55) = (   0.1666667   0.3849002   0.2032020), wk =   0.0277778
        k(   56) = (   0.1666667   0.3849002  -0.3048030), wk =   0.0138889
        k(   57) = (   0.1666667   0.4811252   0.0000000), wk =   0.0138889
        k(   58) = (   0.1666667   0.4811252   0.1016010), wk =   0.0277778
        k(   59) = (   0.1666667   0.4811252   0.2032020), wk =   0.0277778
        k(   60) = (   0.1666667   0.4811252  -0.3048030), wk =   0.0138889
        k(   61) = (   0.1666667   0.5773503   0.0000000), wk =   0.0069444
        k(   62) = (   0.1666667   0.5773503   0.1016010), wk =   0.0138889
        k(   63) = (   0.1666667   0.5773503   0.2032020), wk =   0.0138889
        k(   64) = (   0.1666667   0.5773503  -0.3048030), wk =   0.0069444
        k(   65) = (   0.2500000   0.4330127   0.0000000), wk =   0.0069444
        k(   66) = (   0.2500000   0.4330127   0.1016010), wk =   0.0138889
        k(   67) = (   0.2500000   0.4330127   0.2032020), wk =   0.0138889
        k(   68) = (   0.2500000   0.4330127  -0.3048030), wk =   0.0069444
        k(   69) = (   0.2500000   0.5292377   0.0000000), wk =   0.0138889
        k(   70) = (   0.2500000   0.5292377   0.1016010), wk =   0.0277778
        k(   71) = (   0.2500000   0.5292377   0.2032020), wk =   0.0277778
        k(   72) = (   0.2500000   0.5292377  -0.3048030), wk =   0.0138889
        k(   73) = (   0.3333333   0.5773503   0.0000000), wk =   0.0023148
        k(   74) = (   0.3333333   0.5773503   0.1016010), wk =   0.0046296
        k(   75) = (   0.3333333   0.5773503   0.2032020), wk =   0.0046296
        k(   76) = (   0.3333333   0.5773503  -0.3048030), wk =   0.0023148

                       cryst. coord.
        k(    1) = (   0.0000000   0.0000000   0.0000000), wk =   0.0011574
        k(    2) = (   0.0000000   0.0000000   0.1666667), wk =   0.0023148
        k(    3) = (   0.0000000   0.0000000   0.3333333), wk =   0.0023148
        k(    4) = (   0.0000000   0.0000000  -0.5000000), wk =   0.0011574
        k(    5) = (   0.0000000   0.0833333   0.0000000), wk =   0.0069444
        k(    6) = (   0.0000000   0.0833333   0.1666667), wk =   0.0138889
        k(    7) = (   0.0000000   0.0833333   0.3333333), wk =   0.0138889
        k(    8) = (   0.0000000   0.0833333  -0.5000000), wk =   0.0069444
        k(    9) = (   0.0000000   0.1666667   0.0000000), wk =   0.0069444
        k(   10) = (   0.0000000   0.1666667   0.1666667), wk =   0.0138889
        k(   11) = (   0.0000000   0.1666667   0.3333333), wk =   0.0138889
        k(   12) = (   0.0000000   0.1666667  -0.5000000), wk =   0.0069444
        k(   13) = (   0.0000000   0.2500000   0.0000000), wk =   0.0069444
        k(   14) = (   0.0000000   0.2500000   0.1666667), wk =   0.0138889
        k(   15) = (   0.0000000   0.2500000   0.3333333), wk =   0.0138889
        k(   16) = (   0.0000000   0.2500000  -0.5000000), wk =   0.0069444
        k(   17) = (   0.0000000   0.3333333   0.0000000), wk =   0.0069444
        k(   18) = (   0.0000000   0.3333333   0.1666667), wk =   0.0138889
        k(   19) = (   0.0000000   0.3333333   0.3333333), wk =   0.0138889
        k(   20) = (   0.0000000   0.3333333  -0.5000000), wk =   0.0069444
        k(   21) = (   0.0000000   0.4166667   0.0000000), wk =   0.0069444
        k(   22) = (   0.0000000   0.4166667   0.1666667), wk =   0.0138889
        k(   23) = (   0.0000000   0.4166667   0.3333333), wk =   0.0138889
        k(   24) = (   0.0000000   0.4166667  -0.5000000), wk =   0.0069444
        k(   25) = (   0.0000000  -0.5000000   0.0000000), wk =   0.0034722
        k(   26) = (   0.0000000  -0.5000000   0.1666667), wk =   0.0069444
        k(   27) = (   0.0000000  -0.5000000   0.3333333), wk =   0.0069444
        k(   28) = (   0.0000000  -0.5000000  -0.5000000), wk =   0.0034722
        k(   29) = (   0.0833333   0.0833333   0.0000000), wk =   0.0069444
        k(   30) = (   0.0833333   0.0833333   0.1666667), wk =   0.0138889
        k(   31) = (   0.0833333   0.0833333   0.3333333), wk =   0.0138889
        k(   32) = (   0.0833333   0.0833333  -0.5000000), wk =   0.0069444
        k(   33) = (   0.0833333   0.1666667   0.0000000), wk =   0.0138889
        k(   34) = (   0.0833333   0.1666667   0.1666667), wk =   0.0277778
        k(   35) = (   0.0833333   0.1666667   0.3333333), wk =   0.0277778
        k(   36) = (   0.0833333   0.1666667  -0.5000000), wk =   0.0138889
        k(   37) = (   0.0833333   0.2500000   0.0000000), wk =   0.0138889
        k(   38) = (   0.0833333   0.2500000   0.1666667), wk =   0.0277778
        k(   39) = (   0.0833333   0.2500000   0.3333333), wk =   0.0277778
        k(   40) = (   0.0833333   0.2500000  -0.5000000), wk =   0.0138889
        k(   41) = (   0.0833333   0.3333333   0.0000000), wk =   0.0138889
        k(   42) = (   0.0833333   0.3333333   0.1666667), wk =   0.0277778
        k(   43) = (   0.0833333   0.3333333   0.3333333), wk =   0.0277778
        k(   44) = (   0.0833333   0.3333333  -0.5000000), wk =   0.0138889
        k(   45) = (   0.0833333   0.4166667   0.0000000), wk =   0.0138889
        k(   46) = (   0.0833333   0.4166667   0.1666667), wk =   0.0277778
        k(   47) = (   0.0833333   0.4166667   0.3333333), wk =   0.0277778
        k(   48) = (   0.0833333   0.4166667  -0.5000000), wk =   0.0138889
        k(   49) = (   0.1666667   0.1666667   0.0000000), wk =   0.0069444
        k(   50) = (   0.1666667   0.1666667   0.1666667), wk =   0.0138889
        k(   51) = (   0.1666667   0.1666667   0.3333333), wk =   0.0138889
        k(   52) = (   0.1666667   0.1666667  -0.5000000), wk =   0.0069444
        k(   53) = (   0.1666667   0.2500000   0.0000000), wk =   0.0138889
        k(   54) = (   0.1666667   0.2500000   0.1666667), wk =   0.0277778
        k(   55) = (   0.1666667   0.2500000   0.3333333), wk =   0.0277778
        k(   56) = (   0.1666667   0.2500000  -0.5000000), wk =   0.0138889
        k(   57) = (   0.1666667   0.3333333   0.0000000), wk =   0.0138889
        k(   58) = (   0.1666667   0.3333333   0.1666667), wk =   0.0277778
        k(   59) = (   0.1666667   0.3333333   0.3333333), wk =   0.0277778
        k(   60) = (   0.1666667   0.3333333  -0.5000000), wk =   0.0138889
        k(   61) = (   0.1666667   0.4166667   0.0000000), wk =   0.0069444
        k(   62) = (   0.1666667   0.4166667   0.1666667), wk =   0.0138889
        k(   63) = (   0.1666667   0.4166667   0.3333333), wk =   0.0138889
        k(   64) = (   0.1666667   0.4166667  -0.5000000), wk =   0.0069444
        k(   65) = (   0.2500000   0.2500000   0.0000000), wk =   0.0069444
        k(   66) = (   0.2500000   0.2500000   0.1666667), wk =   0.0138889
        k(   67) = (   0.2500000   0.2500000   0.3333333), wk =   0.0138889
        k(   68) = (   0.2500000   0.2500000  -0.5000000), wk =   0.0069444
        k(   69) = (   0.2500000   0.3333333   0.0000000), wk =   0.0138889
        k(   70) = (   0.2500000   0.3333333   0.1666667), wk =   0.0277778
        k(   71) = (   0.2500000   0.3333333   0.3333333), wk =   0.0277778
        k(   72) = (   0.2500000   0.3333333  -0.5000000), wk =   0.0138889
        k(   73) = (   0.3333333   0.3333333   0.0000000), wk =   0.0023148
        k(   74) = (   0.3333333   0.3333333   0.1666667), wk =   0.0046296
        k(   75) = (   0.3333333   0.3333333   0.3333333), wk =   0.0046296
        k(   76) = (   0.3333333   0.3333333  -0.5000000), wk =   0.0023148

     Dense  grid:    23427 G-vectors     FFT dimensions: (  32,  32,  54)

     Smooth grid:    22635 G-vectors     FFT dimensions: (  32,  32,  54)

     Dynamical RAM for                 wfc:       0.05 MB

     Dynamical RAM for     wfc (w. buffer):       6.91 MB

     Dynamical RAM for           str. fact:       0.02 MB

     Dynamical RAM for           local pot:       0.00 MB

     Dynamical RAM for          nlocal pot:       0.08 MB

     Dynamical RAM for                qrad:       1.70 MB

     Dynamical RAM for          rho,v,vnew:       0.25 MB

     Dynamical RAM for               rhoin:       0.08 MB

     Dynamical RAM for            rho*nmix:       0.58 MB

     Dynamical RAM for           G-vectors:       0.08 MB

     Dynamical RAM for          h,s,v(r/c):       0.08 MB

     Dynamical RAM for          <psi|beta>:       0.01 MB

     Dynamical RAM for                 psi:       0.09 MB

     Dynamical RAM for                hpsi:       0.09 MB

     Dynamical RAM for                spsi:       0.09 MB

     Dynamical RAM for      wfcinit/wfcrot:       0.10 MB

     Dynamical RAM for           addusdens:       3.40 MB

     Estimated static dynamical RAM per process >       9.29 MB

     Estimated max dynamical RAM per process >      13.27 MB

     Estimated total dynamical RAM >     265.41 MB

     Check: negative core charge=   -0.000044
     Generating pointlists ...
     new r_m :   0.4125 (alat units)  1.9293 (a.u.) for type    1

     The initial density is read from file :
     ./out/Co.save/charge-density


     starting charge      34.0419, renormalised to      34.0000
     Starting wfcs from file
     Checking if some PAW data can be deallocated... 

     total cpu time spent up to now is        0.6 secs

     Self-consistent Calculation

     iteration #  1     ecut=   110.00 Ry     beta= 0.70
     Davidson diagonalization with overlap

---- Real-time Memory Report at c_bands before calling an iterative solver
            56 MiB given to the printing process from OS
             0 MiB allocation reported by mallinfo(arena+hblkhd)
        352360 MiB available memory on the node where the printing process lives
------------------
     ethr =  1.00E-05,  avg # of iterations =  2.6

     total cpu time spent up to now is        2.4 secs

     total energy              =    -753.45433122 Ry
     estimated scf accuracy    <       0.00068435 Ry

     total magnetization       =     3.34 Bohr mag/cell
     absolute magnetization    =     3.65 Bohr mag/cell

     iteration #  2     ecut=   110.00 Ry     beta= 0.70
     Davidson diagonalization with overlap

---- Real-time Memory Report at c_bands before calling an iterative solver
            77 MiB given to the printing process from OS
             0 MiB allocation reported by mallinfo(arena+hblkhd)
        352135 MiB available memory on the node where the printing process lives
------------------
     ethr =  2.01E-06,  avg # of iterations =  4.4

     total cpu time spent up to now is        4.4 secs

     total energy              =    -753.45456714 Ry
     estimated scf accuracy    <       0.00147068 Ry

     total magnetization       =     3.36 Bohr mag/cell
     absolute magnetization    =     3.67 Bohr mag/cell

     iteration #  3     ecut=   110.00 Ry     beta= 0.70
     Davidson diagonalization with overlap

---- Real-time Memory Report at c_bands before calling an iterative solver
            78 MiB given to the printing process from OS
             0 MiB allocation reported by mallinfo(arena+hblkhd)
        352125 MiB available memory on the node where the printing process lives
------------------
     ethr =  2.01E-06,  avg # of iterations =  3.9

     total cpu time spent up to now is        6.1 secs

     total energy              =    -753.45491039 Ry
     estimated scf accuracy    <       0.00000302 Ry

     total magnetization       =     3.36 Bohr mag/cell
     absolute magnetization    =     3.67 Bohr mag/cell

     iteration #  4     ecut=   110.00 Ry     beta= 0.70
     Davidson diagonalization with overlap

---- Real-time Memory Report at c_bands before calling an iterative solver
            79 MiB given to the printing process from OS
             0 MiB allocation reported by mallinfo(arena+hblkhd)
        352113 MiB available memory on the node where the printing process lives
------------------
     ethr =  8.89E-09,  avg # of iterations =  8.2

     total cpu time spent up to now is        9.1 secs

     total energy              =    -753.45492670 Ry
     estimated scf accuracy    <       0.00000683 Ry

     total magnetization       =     3.36 Bohr mag/cell
     absolute magnetization    =     3.67 Bohr mag/cell

     iteration #  5     ecut=   110.00 Ry     beta= 0.70
     Davidson diagonalization with overlap

---- Real-time Memory Report at c_bands before calling an iterative solver
            79 MiB given to the printing process from OS
             0 MiB allocation reported by mallinfo(arena+hblkhd)
        352108 MiB available memory on the node where the printing process lives
------------------
     ethr =  8.89E-09,  avg # of iterations =  4.0
 
     Magnetic moment per site  (integrated on atomic sphere of radius R)
     atom   1 (R=0.413)  charge= 15.5912  magn=  1.7509
     atom   2 (R=0.413)  charge= 15.5912  magn=  1.7509

     total cpu time spent up to now is       10.8 secs

     End of self-consistent calculation

 ------ SPIN UP ------------


          k = 0.0000 0.0000 0.0000 (  2803 PWs)   bands (ev):

   -77.2981 -77.2432 -40.7019 -40.3943 -40.3943 -40.3784 -40.3494 -40.3494
     9.8037  13.5998  16.1095  16.2160  16.2161  16.5175  16.5175  16.9069
    16.9069  17.9719  17.9719  18.4462  24.9979

     occupation numbers 
     1.0000   1.0000   1.0000   1.0000   1.0000   1.0000   1.0000   1.0000
     1.0000   1.0000   1.0000   1.0000   1.0000   1.0000   1.0000   1.0000
     1.0000   1.0000   1.0000   1.0000   0.0000

          k = 0.0000 0.0000 0.1016 (  2839 PWs)   bands (ev):

   -77.2944 -77.2469 -40.6806 -40.4004 -40.3914 -40.3914 -40.3524 -40.3524
    10.0769  13.5228  16.0417  16.1591  16.1591  16.4488  16.4488  17.0586
    17.0586  17.5222  17.9533  17.9533  26.4875

     occupation numbers 
     1.0000   1.0000   1.0000   1.0000   1.0000   1.0000   1.0000   1.0000
     1.0000   1.0000   1.0000   1.0000   1.0000   1.0000   1.0000   1.0000
     1.0000   1.0000   1.0000   1.0000   0.0000

          k = 0.0000 0.0000 0.2032 (  2834 PWs)   bands (ev):

   -77.2844 -77.2569 -40.6219 -40.4602 -40.3831 -40.3831 -40.3606 -40.3606
    10.8604  13.0672  15.8854  16.1100  16.1100  16.2489  16.2965  16.2965
    17.3649  17.3649  17.8636  17.8636  29.6525

     occupation numbers 
     1.0000   1.0000   1.0000   1.0000   1.0000   1.0000   1.0000   1.0000
     1.0000   1.0000   1.0000   1.0000   1.0000   1.0000   1.0000   1.0000
     1.0000   1.0000   1.0000   1.0000   0.0000

          k = 0.0000 0.0000-0.3048 (  2834 PWs)   bands (ev):

   -77.2707 -77.2707 -40.5413 -40.5413 -40.3719 -40.3719 -40.3719 -40.3719
    12.0036  12.0036  15.8129  15.8129  16.1599  16.1599  16.1599  16.1599
    17.6613  17.6613  17.6613  17.6613  33.4413

     occupation numbers 
     1.0000   1.0000   1.0000   1.0000   1.0000   1.0000   1.0000   1.0000
     1.0000   1.0000   1.0000   1.0000   1.0000   1.0000   1.0000   1.0000
     1.0000   1.0000   1.0000   1.0000   0.0000

          k = 0.0000 0.0962 0.0000 (  2821 PWs)   bands (ev):

   -77.2947 -77.2415 -40.6947 -40.4112 -40.3997 -40.3812 -40.3667 -40.3523
    10.0492  13.7509  15.9514  16.3327  16.3398  16.4647  16.6216  16.7299
    16.8354  17.1269  18.0006  19.6300  25.0375

     occupation numbers 
     1.0000   1.0000   1.0000   1.0000   1.0000   1.0000   1.0000   1.0000
     1.0000   1.0000   1.0000   1.0000   1.0000   1.0000   1.0000   1.0000
     1.0000   1.0000   1.0000   0.0000   0.0000

          k = 0.0000 0.0962 0.1016 (  2833 PWs)   bands (ev):

   -77.2911 -77.2451 -40.6745 -40.4082 -40.4057 -40.3966 -40.3660 -40.3555
    10.3181  13.6882  15.9506  16.1777  16.2606  16.2826  16.5473  16.7990
    17.0121  17.0717  17.9750  18.8933  26.5974

     occupation numbers 
     1.0000   1.0000   1.0000   1.0000   1.0000   1.0000   1.0000   1.0000
     1.0000   1.0000   1.0000   1.0000   1.0000   1.0000   1.0000   1.0000
     1.0000   1.0000   1.0000   0.0000   0.0000

          k = 0.0000 0.0962 0.2032 (  2846 PWs)   bands (ev):

   -77.2814 -77.2548 -40.6190 -40.4651 -40.3982 -40.3879 -40.3732 -40.3642
    11.0892  13.2599  15.8324  15.8731  16.0266  16.2041  16.3933  16.4237
    17.3380  17.3798  17.8689  18.1586  29.8089

     occupation numbers 
     1.0000   1.0000   1.0000   1.0000   1.0000   1.0000   1.0000   1.0000
     1.0000   1.0000   1.0000   1.0000   1.0000   1.0000   1.0000   1.0000
     1.0000   1.0000   1.0000   1.0000   0.0000

          k = 0.0000 0.0962-0.3048 (  2838 PWs)   bands (ev):

   -77.2681 -77.2681 -40.5425 -40.5425 -40.3854 -40.3854 -40.3760 -40.3760
    12.2141  12.2141  15.6823  15.6823  16.1571  16.1571  16.2550  16.2550
    17.6494  17.6494  17.7510  17.7510  33.6139

     occupation numbers 
     1.0000   1.0000   1.0000   1.0000   1.0000   1.0000   1.0000   1.0000
     1.0000   1.0000   1.0000   1.0000   1.0000   1.0000   1.0000   1.0000
     1.0000   1.0000   1.0000   1.0000   0.0000

          k = 0.0000 0.1925 0.0000 (  2825 PWs)   bands (ev):

   -77.2854 -77.2370 -40.6742 -40.4573 -40.4141 -40.4137 -40.3895 -40.3605
    10.7588  14.1252  15.6918  15.9411  16.2718  16.6441  16.6591  16.6622
    16.8092  16.9137  18.0609  21.2334  25.1782

     occupation numbers 
     1.0000   1.0000   1.0000   1.0000   1.0000   1.0000   1.0000   1.0000
     1.0000   1.0000   1.0000   1.0000   1.0000   1.0000   1.0000   1.0000
     1.0000   1.0000   1.0000   0.0000   0.0000

          k = 0.0000 0.1925 0.1016 (  2822 PWs)   bands (ev):

   -77.2821 -77.2402 -40.6578 -40.4526 -40.4346 -40.4105 -40.3901 -40.3641
    11.0118  14.1067  15.6714  15.7332  16.1509  16.4848  16.5327  16.8033
    16.9845  17.0545  18.0197  20.1234  26.9559

     occupation numbers 
     1.0000   1.0000   1.0000   1.0000   1.0000   1.0000   1.0000   1.0000
     1.0000   1.0000   1.0000   1.0000   1.0000   1.0000   1.0000   1.0000
     1.0000   1.0000   1.0000   0.0000   0.0000

          k = 0.0000 0.1925 0.2032 (  2824 PWs)   bands (ev):

   -77.2733 -77.2491 -40.6126 -40.4862 -40.4369 -40.4007 -40.4002 -40.3739
    11.7336  13.7583  15.3410  15.7923  15.8701  16.3612  16.4351  16.6610
    17.3085  17.4580  17.8802  18.7983  30.2774

     occupation numbers 
     1.0000   1.0000   1.0000   1.0000   1.0000   1.0000   1.0000   1.0000
     1.0000   1.0000   1.0000   1.0000   1.0000   1.0000   1.0000   1.0000
     1.0000   1.0000   1.0000   0.9998   0.0000

          k = 0.0000 0.1925-0.3048 (  2846 PWs)   bands (ev):

   -77.2612 -77.2612 -40.5501 -40.5501 -40.4180 -40.4180 -40.3873 -40.3873
    12.7804  12.7804  15.4620  15.4620  16.0869  16.0869  16.5083  16.5083
    17.6322  17.6322  17.9935  17.9935  34.0918

     occupation numbers 
     1.0000   1.0000   1.0000   1.0000   1.0000   1.0000   1.0000   1.0000
     1.0000   1.0000   1.0000   1.0000   1.0000   1.0000   1.0000   1.0000
     1.0000   1.0000   1.0000   1.0000   0.0000

          k = 0.0000 0.2887 0.0000 (  2812 PWs)   bands (ev):

   -77.2721 -77.2313 -40.6435 -40.5207 -40.4769 -40.4331 -40.4035 -40.3722
    11.8311  14.4242  15.2115  15.5365  16.1614  16.4471  16.5978  17.0856
    17.1405  17.3335  18.1161  23.0338  25.4559

     occupation numbers 
     1.0000   1.0000   1.0000   1.0000   1.0000   1.0000   1.0000   1.0000
     1.0000   1.0000   1.0000   1.0000   1.0000   1.0000   1.0000   1.0000
     1.0000   1.0000   1.0000   0.0000   0.0000

          k = 0.0000 0.2887 0.1016 (  2813 PWs)   bands (ev):

   -77.2694 -77.2340 -40.6356 -40.5118 -40.4908 -40.4290 -40.4065 -40.3763
    12.0408  14.4586  15.0724  15.5888  16.0139  16.4865  16.5951  17.1799
    17.2146  17.2921  18.0620  21.4037  27.6046

     occupation numbers 
     1.0000   1.0000   1.0000   1.0000   1.0000   1.0000   1.0000   1.0000
     1.0000   1.0000   1.0000   1.0000   1.0000   1.0000   1.0000   1.0000
     1.0000   1.0000   1.0000   0.0000   0.0000

          k = 0.0000 0.2887 0.2032 (  2829 PWs)   bands (ev):

   -77.2619 -77.2415 -40.6121 -40.5327 -40.4798 -40.4205 -40.4179 -40.3875
    12.6249  14.1979  15.0121  15.6022  15.9024  16.4384  16.6091  17.0363
    17.4356  17.6114  17.9064  19.5680  30.9516

     occupation numbers 
     1.0000   1.0000   1.0000   1.0000   1.0000   1.0000   1.0000   1.0000
     1.0000   1.0000   1.0000   1.0000   1.0000   1.0000   1.0000   1.0000
     1.0000   1.0000   1.0000   0.0000   0.0000

          k = 0.0000 0.2887-0.3048 (  2838 PWs)   bands (ev):

   -77.2517 -77.2517 -40.5753 -40.5753 -40.4474 -40.4474 -40.4027 -40.4027
    13.4355  13.4355  15.3056  15.3056  16.1497  16.1497  16.8071  16.8071
    17.6784  17.6784  18.3357  18.3357  33.3444

     occupation numbers 
     1.0000   1.0000   1.0000   1.0000   1.0000   1.0000   1.0000   1.0000
     1.0000   1.0000   1.0000   1.0000   1.0000   1.0000   1.0000   1.0000
     1.0000   1.0000   1.0000   1.0000   0.0000

          k = 0.0000 0.3849 0.0000 (  2828 PWs)   bands (ev):

   -77.2580 -77.2265 -40.6077 -40.5847 -40.5390 -40.4517 -40.4226 -40.3843
    12.9971  14.3518  14.6892  15.6525  16.2559  16.2865  16.4022  17.6514
    17.7878  17.7974  18.1523  24.9956  25.5781

     occupation numbers 
     1.0000   1.0000   1.0000   1.0000   1.0000   1.0000   1.0000   1.0000
     1.0000   1.0000   1.0000   1.0000   1.0000   1.0000   1.0000   1.0000
     1.0000   1.0000   1.0000   0.0000   0.0000

          k = 0.0000 0.3849 0.1016 (  2829 PWs)   bands (ev):

   -77.2559 -77.2286 -40.6262 -40.5622 -40.5425 -40.4472 -40.4231 -40.3889
    13.0914  14.3719  14.7314  15.4909  16.2253  16.3473  16.7567  17.6624
    17.6987  17.7334  18.1070  22.6502  27.8427

     occupation numbers 
     1.0000   1.0000   1.0000   1.0000   1.0000   1.0000   1.0000   1.0000
     1.0000   1.0000   1.0000   1.0000   1.0000   1.0000   1.0000   1.0000
     1.0000   1.0000   1.0000   0.0000   0.0000

          k = 0.0000 0.3849 0.2032 (  2825 PWs)   bands (ev):

   -77.2501 -77.2344 -40.6326 -40.5886 -40.5002 -40.4349 -40.4325 -40.4012
    13.3592  14.1804  14.8824  15.3817  16.3483  16.6052  17.0827  17.3748
    17.7678  17.8431  18.0047  20.4588  29.0384

     occupation numbers 
     1.0000   1.0000   1.0000   1.0000   1.0000   1.0000   1.0000   1.0000
     1.0000   1.0000   1.0000   1.0000   1.0000   1.0000   1.0000   1.0000
     1.0000   1.0000   1.0000   0.0000   0.0000

          k = 0.0000 0.3849-0.3048 (  2838 PWs)   bands (ev):

   -77.2423 -77.2423 -40.6180 -40.6180 -40.4590 -40.4590 -40.4181 -40.4181
    13.7561  13.7561  15.1660  15.1660  16.7672  16.7672  16.9778  16.9778
    17.8829  17.8829  18.8190  18.8190  30.1413

     occupation numbers 
     1.0000   1.0000   1.0000   1.0000   1.0000   1.0000   1.0000   1.0000
     1.0000   1.0000   1.0000   1.0000   1.0000   1.0000   1.0000   1.0000
     1.0000   1.0000   0.9258   0.9258   0.0000

          k = 0.0000 0.4811 0.0000 (  2844 PWs)   bands (ev):

   -77.2465 -77.2241 -40.6317 -40.5837 -40.5746 -40.4652 -40.4433 -40.3934
    13.7560  14.1590  14.3786  16.0169  16.1252  16.2629  16.5004  18.0351
    18.1625  18.1707  18.9416  23.8779  27.0224

     occupation numbers 
     1.0000   1.0000   1.0000   1.0000   1.0000   1.0000   1.0000   1.0000
     1.0000   1.0000   1.0000   1.0000   1.0000   1.0000   1.0000   1.0000
     1.0000   1.0000   0.0000   0.0000   0.0000

          k = 0.0000 0.4811 0.1016 (  2830 PWs)   bands (ev):

   -77.2450 -77.2256 -40.6491 -40.6002 -40.5439 -40.4604 -40.4401 -40.3982
    13.6420  14.1460  14.6957  15.3782  16.2363  16.5110  17.1239  17.9365
    18.0611  18.2142  18.7801  23.0462  26.4509

     occupation numbers 
     1.0000   1.0000   1.0000   1.0000   1.0000   1.0000   1.0000   1.0000
     1.0000   1.0000   1.0000   1.0000   1.0000   1.0000   1.0000   1.0000
     1.0000   1.0000   1.0000   0.0000   0.0000

          k = 0.0000 0.4811 0.2032 (  2830 PWs)   bands (ev):

   -77.2409 -77.2297 -40.6628 -40.6308 -40.4977 -40.4473 -40.4417 -40.4114
    13.6037  14.0698  14.8655  15.1754  16.5513  16.7814  17.5215  18.0947
    18.0983  18.1917  18.4543  21.3127  26.6324

     occupation numbers 
     1.0000   1.0000   1.0000   1.0000   1.0000   1.0000   1.0000   1.0000
     1.0000   1.0000   1.0000   1.0000   1.0000   1.0000   1.0000   1.0000
     1.0000   1.0000   1.0000   0.0000   0.0000

          k = 0.0000 0.4811-0.3048 (  2836 PWs)   bands (ev):

   -77.2353 -77.2353 -40.6558 -40.6558 -40.4606 -40.4606 -40.4293 -40.4293
    13.7830  13.7830  15.0375  15.0375  17.0133  17.0133  17.4985  17.4985
    18.1446  18.1446  19.6648  19.6648  27.4041

     occupation numbers 
     1.0000   1.0000   1.0000   1.0000   1.0000   1.0000   1.0000   1.0000
     1.0000   1.0000   1.0000   1.0000   1.0000   1.0000   1.0000   1.0000
     1.0000   1.0000   0.0000   0.0000   0.0000

          k = 0.0000-0.5774 0.0000 (  2834 PWs)   bands (ev):

   -77.2417 -77.2238 -40.6490 -40.6000 -40.5592 -40.4700 -40.4542 -40.3967
    14.0040  14.0231  14.2758  16.0790  16.2125  16.2740  16.5742  18.1741
    18.1761  18.3141  20.1180  22.1608  28.3394

     occupation numbers 
     1.0000   1.0000   1.0000   1.0000   1.0000   1.0000   1.0000   1.0000
     1.0000   1.0000   1.0000   1.0000   1.0000   1.0000   1.0000   1.0000
     1.0000   1.0000   0.0000   0.0000   0.0000

          k = 0.0000-0.5774 0.1016 (  2828 PWs)   bands (ev):

   -77.2405 -77.2250 -40.6627 -40.6155 -40.5351 -40.4651 -40.4489 -40.4016
    13.7380  14.0505  14.7270  15.3494  16.1957  16.5966  17.3321  17.9834
    18.2064  18.3067  19.9023  21.9736  27.5200

     occupation numbers 
     1.0000   1.0000   1.0000   1.0000   1.0000   1.0000   1.0000   1.0000
     1.0000   1.0000   1.0000   1.0000   1.0000   1.0000   1.0000   1.0000
     1.0000   1.0000   0.0000   0.0000   0.0000

          k = 0.0000-0.5774 0.2032 (  2840 PWs)   bands (ev):

   -77.2373 -77.2283 -40.6761 -40.6464 -40.4934 -40.4518 -40.4461 -40.4151
    13.6217  14.0260  14.8938  15.0789  16.5271  16.9231  17.5498  18.2189
    18.2294  18.2863  19.5616  21.3512  26.5015

     occupation numbers 
     1.0000   1.0000   1.0000   1.0000   1.0000   1.0000   1.0000   1.0000
     1.0000   1.0000   1.0000   1.0000   1.0000   1.0000   1.0000   1.0000
     1.0000   1.0000   0.0000   0.0000   0.0000

          k = 0.0000-0.5774-0.3048 (  2832 PWs)   bands (ev):

   -77.2328 -77.2328 -40.6705 -40.6705 -40.4604 -40.4604 -40.4334 -40.4334
    13.7662  13.7662  14.9879  14.9879  17.0139  17.0139  17.7381  17.7381
    18.2582  18.2582  20.3320  20.3320  26.1342

     occupation numbers 
     1.0000   1.0000   1.0000   1.0000   1.0000   1.0000   1.0000   1.0000
     1.0000   1.0000   1.0000   1.0000   1.0000   1.0000   1.0000   1.0000
     1.0000   1.0000   0.0000   0.0000   0.0000

          k = 0.0833 0.1443 0.0000 (  2815 PWs)   bands (ev):

   -77.2883 -77.2384 -40.6809 -40.4398 -40.4174 -40.3916 -40.3867 -40.3600
    10.5277  14.0198  15.7472  16.1910  16.3539  16.4862  16.5709  16.6197
    16.8492  16.9427  18.0341  20.7854  25.1296

     occupation numbers 
     1.0000   1.0000   1.0000   1.0000   1.0000   1.0000   1.0000   1.0000
     1.0000   1.0000   1.0000   1.0000   1.0000   1.0000   1.0000   1.0000
     1.0000   1.0000   1.0000   0.0000   0.0000

          k = 0.0833 0.1443 0.1016 (  2835 PWs)   bands (ev):

   -77.2850 -77.2417 -40.6631 -40.4354 -40.4266 -40.4070 -40.3815 -40.3635
    10.7867  13.9870  15.7763  15.8603  16.1982  16.4279  16.5155  16.7169
    16.9944  17.0605  18.0005  19.7896  26.8336

     occupation numbers 
     1.0000   1.0000   1.0000   1.0000   1.0000   1.0000   1.0000   1.0000
     1.0000   1.0000   1.0000   1.0000   1.0000   1.0000   1.0000   1.0000
     1.0000   1.0000   1.0000   0.0000   0.0000

          k = 0.0833 0.1443 0.2032 (  2834 PWs)   bands (ev):

   -77.2759 -77.2509 -40.6142 -40.4779 -40.4233 -40.4028 -40.3870 -40.3726
    11.5276  13.6122  15.4638  15.8354  15.8853  16.3435  16.3976  16.5791
    17.3379  17.4071  17.8789  18.6131  30.1240

     occupation numbers 
     1.0000   1.0000   1.0000   1.0000   1.0000   1.0000   1.0000   1.0000
     1.0000   1.0000   1.0000   1.0000   1.0000   1.0000   1.0000   1.0000
     1.0000   1.0000   1.0000   1.0000   0.0000

          k = 0.0833 0.1443-0.3048 (  2832 PWs)   bands (ev):

   -77.2634 -77.2634 -40.5468 -40.5468 -40.4081 -40.4081 -40.3843 -40.3843
    12.6062  12.6062  15.5191  15.5191  16.0895  16.0895  16.4414  16.4414
    17.6375  17.6375  17.9180  17.9180  33.9476

     occupation numbers 
     1.0000   1.0000   1.0000   1.0000   1.0000   1.0000   1.0000   1.0000
     1.0000   1.0000   1.0000   1.0000   1.0000   1.0000   1.0000   1.0000
     1.0000   1.0000   1.0000   1.0000   0.0000

          k = 0.0833 0.2406 0.0000 (  2819 PWs)   bands (ev):

   -77.2770 -77.2333 -40.6552 -40.4907 -40.4623 -40.4193 -40.3979 -40.3732
    11.4275  14.4044  15.4776  15.4801  16.2156  16.3854  16.7504  16.7932
    17.0053  17.2775  18.0737  22.3851  25.3599

     occupation numbers 
     1.0000   1.0000   1.0000   1.0000   1.0000   1.0000   1.0000   1.0000
     1.0000   1.0000   1.0000   1.0000   1.0000   1.0000   1.0000   1.0000
     1.0000   1.0000   1.0000   0.0000   0.0000

          k = 0.0833 0.2406 0.1016 (  2815 PWs)   bands (ev):

   -77.2741 -77.2363 -40.6432 -40.4845 -40.4724 -40.4244 -40.3974 -40.3769
    11.6590  14.4303  15.2703  15.5310  16.1020  16.3754  16.6169  16.9106
    17.1895  17.2530  18.0359  20.9636  27.3585

     occupation numbers 
     1.0000   1.0000   1.0000   1.0000   1.0000   1.0000   1.0000   1.0000
     1.0000   1.0000   1.0000   1.0000   1.0000   1.0000   1.0000   1.0000
     1.0000   1.0000   1.0000   0.0000   0.0000

          k = 0.0833 0.2406 0.2032 (  2827 PWs)   bands (ev):

   -77.2661 -77.2443 -40.6099 -40.5126 -40.4621 -40.4254 -40.4028 -40.3867
    12.3132  14.1386  15.0962  15.6396  15.8288  16.2563  16.5842  16.9058
    17.4286  17.5304  17.9162  19.3014  30.7427

     occupation numbers 
     1.0000   1.0000   1.0000   1.0000   1.0000   1.0000   1.0000   1.0000
     1.0000   1.0000   1.0000   1.0000   1.0000   1.0000   1.0000   1.0000
     1.0000   1.0000   1.0000   0.0000   0.0000

          k = 0.0833 0.2406-0.3048 (  2834 PWs)   bands (ev):

   -77.2552 -77.2552 -40.5625 -40.5625 -40.4385 -40.4385 -40.3989 -40.3989
    13.2468  13.2468  15.3672  15.3672  15.9786  15.9786  16.7285  16.7285
    17.6833  17.6833  18.2136  18.2136  34.4149

     occupation numbers 
     1.0000   1.0000   1.0000   1.0000   1.0000   1.0000   1.0000   1.0000
     1.0000   1.0000   1.0000   1.0000   1.0000   1.0000   1.0000   1.0000
     1.0000   1.0000   1.0000   1.0000   0.0000

          k = 0.0833 0.3368 0.0000 (  2822 PWs)   bands (ev):

   -77.2633 -77.2281 -40.6217 -40.5528 -40.5168 -40.4453 -40.4147 -40.3876
    12.5851  14.5266  14.9054  15.4201  16.1912  16.2137  16.5837  17.1760
    17.5205  17.8579  18.1060  24.2282  25.7232

     occupation numbers 
     1.0000   1.0000   1.0000   1.0000   1.0000   1.0000   1.0000   1.0000
     1.0000   1.0000   1.0000   1.0000   1.0000   1.0000   1.0000   1.0000
     1.0000   1.0000   1.0000   0.0000   0.0000

          k = 0.0833 0.3368 0.1016 (  2832 PWs)   bands (ev):

   -77.2610 -77.2305 -40.6241 -40.5414 -40.5224 -40.4456 -40.4145 -40.3911
    12.7449  14.5816  14.8197  15.4646  16.0132  16.4206  16.5522  17.2106
    17.6041  17.7123  18.1242  22.2304  28.1260

     occupation numbers 
     1.0000   1.0000   1.0000   1.0000   1.0000   1.0000   1.0000   1.0000
     1.0000   1.0000   1.0000   1.0000   1.0000   1.0000   1.0000   1.0000
     1.0000   1.0000   1.0000   0.0000   0.0000

          k = 0.0833 0.3368 0.2032 (  2828 PWs)   bands (ev):

   -77.2545 -77.2369 -40.6184 -40.5641 -40.4931 -40.4428 -40.4198 -40.4010
    13.1779  14.3197  14.9446  15.5177  15.9382  16.4211  16.6419  17.2314
    17.6538  17.8227  18.0987  20.1585  30.6616

     occupation numbers 
     1.0000   1.0000   1.0000   1.0000   1.0000   1.0000   1.0000   1.0000
     1.0000   1.0000   1.0000   1.0000   1.0000   1.0000   1.0000   1.0000
     1.0000   1.0000   1.0000   0.0000   0.0000

          k = 0.0833 0.3368-0.3048 (  2834 PWs)   bands (ev):

   -77.2457 -77.2457 -40.5966 -40.5966 -40.4582 -40.4582 -40.4149 -40.4149
    13.7583  13.7583  15.2783  15.2783  16.1646  16.1646  16.9170  16.9170
    17.8972  17.8972  18.6749  18.6749  31.8656

     occupation numbers 
     1.0000   1.0000   1.0000   1.0000   1.0000   1.0000   1.0000   1.0000
     1.0000   1.0000   1.0000   1.0000   1.0000   1.0000   1.0000   1.0000
     1.0000   1.0000   1.0000   1.0000   0.0000

          k = 0.0833 0.4330 0.0000 (  2837 PWs)   bands (ev):

   -77.2503 -77.2247 -40.6077 -40.5863 -40.5641 -40.4663 -40.4356 -40.3999
    13.5978  14.3448  14.5209  15.6564  16.0710  16.3695  16.4122  17.7150
    17.9584  18.1248  18.6692  25.1783  26.2312

     occupation numbers 
     1.0000   1.0000   1.0000   1.0000   1.0000   1.0000   1.0000   1.0000
     1.0000   1.0000   1.0000   1.0000   1.0000   1.0000   1.0000   1.0000
     1.0000   1.0000   1.0000   0.0000   0.0000

          k = 0.0833 0.4330 0.1016 (  2829 PWs)   bands (ev):

   -77.2486 -77.2264 -40.6316 -40.5828 -40.5454 -40.4636 -40.4333 -40.4032
    13.5846  14.3561  14.6825  15.3934  16.1484  16.4644  16.7166  17.6652
    17.9493  18.0164  18.6657  23.3317  27.0225

     occupation numbers 
     1.0000   1.0000   1.0000   1.0000   1.0000   1.0000   1.0000   1.0000
     1.0000   1.0000   1.0000   1.0000   1.0000   1.0000   1.0000   1.0000
     1.0000   1.0000   1.0000   0.0000   0.0000

          k = 0.0833 0.4330 0.2032 (  2837 PWs)   bands (ev):

   -77.2439 -77.2311 -40.6448 -40.6111 -40.5010 -40.4550 -40.4356 -40.4122
    13.6575  14.2206  14.8737  15.3359  16.2556  16.6892  17.1222  17.4120
    17.8351  18.1632  18.7259  21.1932  27.7576

     occupation numbers 
     1.0000   1.0000   1.0000   1.0000   1.0000   1.0000   1.0000   1.0000
     1.0000   1.0000   1.0000   1.0000   1.0000   1.0000   1.0000   1.0000
     1.0000   1.0000   1.0000   0.0000   0.0000

          k = 0.0833 0.4330-0.3048 (  2830 PWs)   bands (ev):

   -77.2375 -77.2375 -40.6364 -40.6364 -40.4665 -40.4665 -40.4270 -40.4270
    13.8942  13.8942  15.1513  15.1513  16.6932  16.6932  17.0882  17.0882
    18.1107  18.1107  19.5378  19.5378  28.7846

     occupation numbers 
     1.0000   1.0000   1.0000   1.0000   1.0000   1.0000   1.0000   1.0000
     1.0000   1.0000   1.0000   1.0000   1.0000   1.0000   1.0000   1.0000
     1.0000   1.0000   0.0000   0.0000   0.0000

          k = 0.0833 0.5292 0.0000 (  2825 PWs)   bands (ev):

   -77.2418 -77.2238 -40.6396 -40.5914 -40.5594 -40.4780 -40.4540 -40.4070
    14.0416  14.1800  14.3295  16.0303  16.0361  16.2164  16.5723  18.1072
    18.1324  18.1869  19.9597  22.9370  28.1461

     occupation numbers 
     1.0000   1.0000   1.0000   1.0000   1.0000   1.0000   1.0000   1.0000
     1.0000   1.0000   1.0000   1.0000   1.0000   1.0000   1.0000   1.0000
     1.0000   1.0000   0.0000   0.0000   0.0000

          k = 0.0833 0.5292 0.1016 (  2832 PWs)   bands (ev):

   -77.2406 -77.2250 -40.6535 -40.6074 -40.5362 -40.4722 -40.4496 -40.4104
    13.8218  14.1844  14.7657  15.3345  16.0817  16.6458  16.9960  17.9258
    18.1206  18.2150  19.8890  22.6566  26.9471

     occupation numbers 
     1.0000   1.0000   1.0000   1.0000   1.0000   1.0000   1.0000   1.0000
     1.0000   1.0000   1.0000   1.0000   1.0000   1.0000   1.0000   1.0000
     1.0000   1.0000   0.0000   0.0000   0.0000

          k = 0.0833 0.5292 0.2032 (  2839 PWs)   bands (ev):

   -77.2373 -77.2283 -40.6671 -40.6381 -40.4990 -40.4573 -40.4491 -40.4184
    13.7276  14.1549  14.9030  15.1906  16.2529  16.9911  17.3881  17.6696
    18.0808  18.2749  19.9205  21.7717  26.2739

     occupation numbers 
     1.0000   1.0000   1.0000   1.0000   1.0000   1.0000   1.0000   1.0000
     1.0000   1.0000   1.0000   1.0000   1.0000   1.0000   1.0000   1.0000
     1.0000   1.0000   0.0000   0.0000   0.0000

          k = 0.0833 0.5292-0.3048 (  2844 PWs)   bands (ev):

   -77.2328 -77.2328 -40.6618 -40.6618 -40.4700 -40.4700 -40.4327 -40.4327
    13.8813  13.8814  15.0633  15.0633  16.7940  16.7940  17.5271  17.5271
    18.1524  18.1524  20.6446  20.6446  26.5561

     occupation numbers 
     1.0000   1.0000   1.0000   1.0000   1.0000   1.0000   1.0000   1.0000
     1.0000   1.0000   1.0000   1.0000   1.0000   1.0000   1.0000   1.0000
     1.0000   1.0000   0.0000   0.0000   0.0000

          k = 0.1667 0.2887 0.0000 (  2820 PWs)   bands (ev):

   -77.2652 -77.2287 -40.6265 -40.5281 -40.5192 -40.4384 -40.4121 -40.3959
    12.4399  14.7176  15.0205  15.1830  16.1127  16.2206  16.6894  16.9192
    17.5067  17.8835  18.0639  23.9695  25.7568

     occupation numbers 
     1.0000   1.0000   1.0000   1.0000   1.0000   1.0000   1.0000   1.0000
     1.0000   1.0000   1.0000   1.0000   1.0000   1.0000   1.0000   1.0000
     1.0000   1.0000   1.0000   0.0000   0.0000

          k = 0.1667 0.2887 0.1016 (  2826 PWs)   bands (ev):

   -77.2628 -77.2312 -40.6244 -40.5273 -40.5145 -40.4473 -40.4073 -40.3997
    12.6218  14.8100  14.8762  15.2360  16.0668  16.2298  16.5806  17.0230
    17.6194  17.7003  18.1386  22.0930  28.1014

     occupation numbers 
     1.0000   1.0000   1.0000   1.0000   1.0000   1.0000   1.0000   1.0000
     1.0000   1.0000   1.0000   1.0000   1.0000   1.0000   1.0000   1.0000
     1.0000   1.0000   1.0000   0.0000   0.0000

          k = 0.1667 0.2887 0.2032 (  2826 PWs)   bands (ev):

   -77.2561 -77.2379 -40.6124 -40.5534 -40.4842 -40.4523 -40.4094 -40.4089
    13.1206  14.4403  15.0622  15.3873  15.8742  16.0968  16.5878  17.1674
    17.6543  17.8138  18.1753  20.0832  31.4563

     occupation numbers 
     1.0000   1.0000   1.0000   1.0000   1.0000   1.0000   1.0000   1.0000
     1.0000   1.0000   1.0000   1.0000   1.0000   1.0000   1.0000   1.0000
     1.0000   1.0000   1.0000   0.0000   0.0000

          k = 0.1667 0.2887-0.3048 (  2820 PWs)   bands (ev):

   -77.2470 -77.2470 -40.5868 -40.5868 -40.4583 -40.4583 -40.4154 -40.4154
    13.7946  13.7946  15.3773  15.3773  15.8216  15.8216  16.8641  16.8641
    17.9464  17.9464  18.6571  18.6571  33.5931

     occupation numbers 
     1.0000   1.0000   1.0000   1.0000   1.0000   1.0000   1.0000   1.0000
     1.0000   1.0000   1.0000   1.0000   1.0000   1.0000   1.0000   1.0000
     1.0000   1.0000   1.0000   1.0000   0.0000

          k = 0.1667 0.3849 0.0000 (  2832 PWs)   bands (ev):

   -77.2525 -77.2251 -40.5925 -40.5768 -40.5555 -40.4673 -40.4316 -40.4179
    13.5474  14.6671  14.6950  15.1669  15.9477  16.3628  16.4847  17.2443
    17.9528  18.0517  18.7085  25.8360  26.1982

     occupation numbers 
     1.0000   1.0000   1.0000   1.0000   1.0000   1.0000   1.0000   1.0000
     1.0000   1.0000   1.0000   1.0000   1.0000   1.0000   1.0000   1.0000
     1.0000   1.0000   1.0000   0.0000   0.0000

          k = 0.1667 0.3849 0.1016 (  2831 PWs)   bands (ev):

   -77.2507 -77.2269 -40.6145 -40.5733 -40.5340 -40.4743 -40.4279 -40.4175
    13.6195  14.6014  14.7892  15.2453  15.9898  16.3592  16.4436  17.2877
    17.8482  18.0383  18.7861  23.3989  28.4502

     occupation numbers 
     1.0000   1.0000   1.0000   1.0000   1.0000   1.0000   1.0000   1.0000
     1.0000   1.0000   1.0000   1.0000   1.0000   1.0000   1.0000   1.0000
     1.0000   1.0000   1.0000   0.0000   0.0000

          k = 0.1667 0.3849 0.2032 (  2832 PWs)   bands (ev):

   -77.2456 -77.2319 -40.6258 -40.5944 -40.4970 -40.4748 -40.4327 -40.4168
    13.8194  14.3992  15.0303  15.4641  15.9037  16.2073  16.5880  17.2771
    17.7620  18.1834  18.9609  21.2125  29.4818

     occupation numbers 
     1.0000   1.0000   1.0000   1.0000   1.0000   1.0000   1.0000   1.0000
     1.0000   1.0000   1.0000   1.0000   1.0000   1.0000   1.0000   1.0000
     1.0000   1.0000   0.0000   0.0000   0.0000

          k = 0.1667 0.3849-0.3048 (  2826 PWs)   bands (ev):

   -77.2388 -77.2388 -40.6171 -40.6171 -40.4763 -40.4763 -40.4273 -40.4273
    14.1040  14.1040  15.3625  15.3625  15.9934  15.9934  16.8670  16.8670
    18.1594  18.1594  19.6370  19.6370  30.6140

     occupation numbers 
     1.0000   1.0000   1.0000   1.0000   1.0000   1.0000   1.0000   1.0000
     1.0000   1.0000   1.0000   1.0000   1.0000   1.0000   1.0000   1.0000
     1.0000   1.0000   0.0000   0.0000   0.0000

          k = 0.1667 0.4811 0.0000 (  2848 PWs)   bands (ev):

   -77.2418 -77.2237 -40.6152 -40.5746 -40.5598 -40.4939 -40.4537 -40.4329
    14.2399  14.4511  14.4875  15.4876  15.9068  16.2566  16.5685  17.6781
    18.0424  18.1652  19.9045  24.6132  27.8603

     occupation numbers 
     1.0000   1.0000   1.0000   1.0000   1.0000   1.0000   1.0000   1.0000
     1.0000   1.0000   1.0000   1.0000   1.0000   1.0000   1.0000   1.0000
     1.0000   1.0000   0.0000   0.0000   0.0000

          k = 0.1667 0.4811 0.1016 (  2832 PWs)   bands (ev):

   -77.2406 -77.2249 -40.6297 -40.5933 -40.5351 -40.4908 -40.4515 -40.4294
    14.0690  14.5399  14.7302  15.2858  15.9573  16.4021  16.6566  17.6656
    17.8556  18.2241  19.9823  24.0062  26.7885

     occupation numbers 
     1.0000   1.0000   1.0000   1.0000   1.0000   1.0000   1.0000   1.0000
     1.0000   1.0000   1.0000   1.0000   1.0000   1.0000   1.0000   1.0000
     1.0000   1.0000   0.0000   0.0000   0.0000

          k = 0.1667 0.4811 0.2032 (  2837 PWs)   bands (ev):

   -77.2373 -77.2282 -40.6448 -40.6205 -40.5115 -40.4792 -40.4501 -40.4237
    14.0208  14.4541  14.9249  15.4541  15.8552  16.5398  16.8949  17.3574
    17.8571  18.2956  20.2826  22.4611  26.9133

     occupation numbers 
     1.0000   1.0000   1.0000   1.0000   1.0000   1.0000   1.0000   1.0000
     1.0000   1.0000   1.0000   1.0000   1.0000   1.0000   1.0000   1.0000
     1.0000   1.0000   0.0000   0.0000   0.0000

          k = 0.1667 0.4811-0.3048 (  2822 PWs)   bands (ev):

   -77.2328 -77.2328 -40.6415 -40.6415 -40.4915 -40.4915 -40.4318 -40.4318
    14.1727  14.1727  15.2554  15.2554  16.2623  16.2623  17.0547  17.0547
    18.1634  18.1634  21.0717  21.0717  27.7832

     occupation numbers 
     1.0000   1.0000   1.0000   1.0000   1.0000   1.0000   1.0000   1.0000
     1.0000   1.0000   1.0000   1.0000   1.0000   1.0000   1.0000   1.0000
     1.0000   1.0000   0.0000   0.0000   0.0000

          k = 0.1667 0.5774 0.0000 (  2826 PWs)   bands (ev):

   -77.2372 -77.2240 -40.6291 -40.5807 -40.5433 -40.5048 -40.4663 -40.4383
    14.3791  14.3854  14.4106  15.7146  15.9386  16.1267  16.6568  17.9742
    18.0388  18.1308  21.1789  22.7745  29.2804

     occupation numbers 
     1.0000   1.0000   1.0000   1.0000   1.0000   1.0000   1.0000   1.0000
     1.0000   1.0000   1.0000   1.0000   1.0000   1.0000   1.0000   1.0000
     1.0000   1.0000   0.0000   0.0000   0.0000

          k = 0.1667 0.5774 0.1016 (  2833 PWs)   bands (ev):

   -77.2363 -77.2249 -40.6404 -40.5977 -40.5356 -40.4882 -40.4660 -40.4344
    14.0877  14.4560  14.8957  15.2651  15.8776  16.5273  16.7509  17.8282
    17.9711  18.1781  21.2687  22.7163  28.0553

     occupation numbers 
     1.0000   1.0000   1.0000   1.0000   1.0000   1.0000   1.0000   1.0000
     1.0000   1.0000   1.0000   1.0000   1.0000   1.0000   1.0000   1.0000
     1.0000   1.0000   0.0000   0.0000   0.0000

          k = 0.1667 0.5774 0.2032 (  2834 PWs)   bands (ev):

   -77.2339 -77.2273 -40.6538 -40.6287 -40.5188 -40.4774 -40.4563 -40.4268
    14.0161  14.4661  14.9634  15.4063  15.7725  16.7388  17.0241  17.4273
    17.9882  18.2154  21.5567  22.4932  26.8109

     occupation numbers 
     1.0000   1.0000   1.0000   1.0000   1.0000   1.0000   1.0000   1.0000
     1.0000   1.0000   1.0000   1.0000   1.0000   1.0000   1.0000   1.0000
     1.0000   1.0000   0.0000   0.0000   0.0000

          k = 0.1667 0.5774-0.3048 (  2834 PWs)   bands (ev):

   -77.2306 -77.2306 -40.6507 -40.6507 -40.4976 -40.4976 -40.4327 -40.4327
    14.1756  14.1756  15.2144  15.2144  16.2994  16.2994  17.2650  17.2650
    18.1003  18.1003  22.0437  22.0437  26.3407

     occupation numbers 
     1.0000   1.0000   1.0000   1.0000   1.0000   1.0000   1.0000   1.0000
     1.0000   1.0000   1.0000   1.0000   1.0000   1.0000   1.0000   1.0000
     1.0000   1.0000   0.0000   0.0000   0.0000

          k = 0.2500 0.4330 0.0000 (  2856 PWs)   bands (ev):

   -77.2419 -77.2237 -40.5940 -40.5738 -40.5600 -40.4968 -40.4535 -40.4523
    14.3846  14.5219  14.9059  14.9338  15.8277  16.2829  16.5772  17.4284
    17.9958  18.1669  19.9195  26.3445  27.2016

     occupation numbers 
     1.0000   1.0000   1.0000   1.0000   1.0000   1.0000   1.0000   1.0000
     1.0000   1.0000   1.0000   1.0000   1.0000   1.0000   1.0000   1.0000
     1.0000   1.0000   0.0000   0.0000   0.0000

          k = 0.2500 0.4330 0.1016 (  2843 PWs)   bands (ev):

   -77.2406 -77.2249 -40.6062 -40.5985 -40.5223 -40.5101 -40.4548 -40.4385
    14.3813  14.4743  14.9430  15.0808  15.9795  16.1348  16.5807  17.4730
    17.7980  18.2303  20.0384  24.7454  27.4775

     occupation numbers 
     1.0000   1.0000   1.0000   1.0000   1.0000   1.0000   1.0000   1.0000
     1.0000   1.0000   1.0000   1.0000   1.0000   1.0000   1.0000   1.0000
     1.0000   1.0000   0.0000   0.0000   0.0000

          k = 0.2500 0.4330 0.2032 (  2826 PWs)   bands (ev):

   -77.2373 -77.2282 -40.6278 -40.6138 -40.5151 -40.4972 -40.4504 -40.4256
    14.3651  14.4179  15.1056  15.4559  15.8098  16.0897  16.6287  17.2631
    17.8231  18.3038  20.4031  22.7330  28.2417

     occupation numbers 
     1.0000   1.0000   1.0000   1.0000   1.0000   1.0000   1.0000   1.0000
     1.0000   1.0000   1.0000   1.0000   1.0000   1.0000   1.0000   1.0000
     1.0000   1.0000   0.0000   0.0000   0.0000

          k = 0.2500 0.4330-0.3048 (  2826 PWs)   bands (ev):

   -77.2328 -77.2328 -40.6288 -40.6288 -40.5046 -40.5046 -40.4315 -40.4315
    14.3769  14.3769  15.4193  15.4193  15.8796  15.8796  16.8424  16.8424
    18.1831  18.1831  21.2315  21.2315  29.2460

     occupation numbers 
     1.0000   1.0000   1.0000   1.0000   1.0000   1.0000   1.0000   1.0000
     1.0000   1.0000   1.0000   1.0000   1.0000   1.0000   1.0000   1.0000
     1.0000   1.0000   0.0000   0.0000   0.0000

          k = 0.2500 0.5292 0.0000 (  2844 PWs)   bands (ev):

   -77.2340 -77.2246 -40.6067 -40.5653 -40.5311 -40.5278 -40.4763 -40.4745
    14.4576  14.6719  14.7611  15.2655  15.8444  16.0703  16.7471  17.7190
    17.9631  18.0917  21.5983  24.1905  26.5434

     occupation numbers 
     1.0000   1.0000   1.0000   1.0000   1.0000   1.0000   1.0000   1.0000
     1.0000   1.0000   1.0000   1.0000   1.0000   1.0000   1.0000   1.0000
     1.0000   1.0000   0.0000   0.0000   0.0000

          k = 0.2500 0.5292 0.1016 (  2848 PWs)   bands (ev):

   -77.2334 -77.2252 -40.6134 -40.5875 -40.5466 -40.5007 -40.4797 -40.4536
    14.4031  14.7895  14.8806  15.1535  15.8694  16.0805  16.7621  17.7188
    17.7814  18.1371  21.7791  24.1951  26.5543

     occupation numbers 
     1.0000   1.0000   1.0000   1.0000   1.0000   1.0000   1.0000   1.0000
     1.0000   1.0000   1.0000   1.0000   1.0000   1.0000   1.0000   1.0000
     1.0000   1.0000   0.0000   0.0000   0.0000

          k = 0.2500 0.5292 0.2032 (  2834 PWs)   bands (ev):

   -77.2316 -77.2270 -40.6288 -40.6146 -40.5452 -40.5071 -40.4523 -40.4332
    14.4161  14.7717  15.0324  15.3390  15.7265  16.1087  16.8215  17.2829
    17.9011  18.1817  22.2625  23.8631  26.4518

     occupation numbers 
     1.0000   1.0000   1.0000   1.0000   1.0000   1.0000   1.0000   1.0000
     1.0000   1.0000   1.0000   1.0000   1.0000   1.0000   1.0000   1.0000
     1.0000   1.0000   0.0000   0.0000   0.0000

          k = 0.2500 0.5292-0.3048 (  2828 PWs)   bands (ev):

   -77.2293 -77.2293 -40.6312 -40.6312 -40.5274 -40.5274 -40.4319 -40.4319
    14.5508  14.5508  15.3187  15.3187  15.8834  15.8834  16.9535  16.9535
    18.0937  18.0937  23.0172  23.0172  26.9917

     occupation numbers 
     1.0000   1.0000   1.0000   1.0000   1.0000   1.0000   1.0000   1.0000
     1.0000   1.0000   1.0000   1.0000   1.0000   1.0000   1.0000   1.0000
     1.0000   1.0000   0.0000   0.0000   0.0000

          k = 0.3333 0.5774 0.0000 (  2844 PWs)   bands (ev):

   -77.2280 -77.2280 -40.5953 -40.5495 -40.5495 -40.5026 -40.5026 -40.5012
    14.4737  14.8728  14.8728  15.1360  15.9057  15.9057  16.8469  17.8711
    17.8711  17.9315  23.3535  24.1989  24.1989

     occupation numbers 
     1.0000   1.0000   1.0000   1.0000   1.0000   1.0000   1.0000   1.0000
     1.0000   1.0000   1.0000   1.0000   1.0000   1.0000   1.0000   1.0000
     1.0000   1.0000   0.0000   0.0000   0.0000

          k = 0.3333 0.5774 0.1016 (  2853 PWs)   bands (ev):

   -77.2280 -77.2280 -40.5891 -40.5772 -40.5772 -40.5075 -40.4747 -40.4747
    14.5669  14.8877  14.8877  15.1525  15.8839  15.8839  16.8220  17.7076
    17.9168  17.9168  23.7427  24.2657  24.2657

     occupation numbers 
     1.0000   1.0000   1.0000   1.0000   1.0000   1.0000   1.0000   1.0000
     1.0000   1.0000   1.0000   1.0000   1.0000   1.0000   1.0000   1.0000
     1.0000   1.0000   0.0000   0.0000   0.0000

          k = 0.3333 0.5774 0.2032 (  2835 PWs)   bands (ev):

   -77.2280 -77.2280 -40.6082 -40.6082 -40.5719 -40.5248 -40.4434 -40.4434
    14.8049  14.9149  14.9149  15.1605  15.8472  15.8472  16.7921  17.2455
    18.0048  18.0048  24.4309  24.4309  24.7466

     occupation numbers 
     1.0000   1.0000   1.0000   1.0000   1.0000   1.0000   1.0000   1.0000
     1.0000   1.0000   1.0000   1.0000   1.0000   1.0000   1.0000   1.0000
     1.0000   1.0000   0.0000   0.0000   0.0000

          k = 0.3333 0.5774-0.3048 (  2808 PWs)   bands (ev):

   -77.2280 -77.2280 -40.6199 -40.6199 -40.5484 -40.5484 -40.4315 -40.4315
    14.9272  14.9272  15.0532  15.0532  15.8322  15.8322  16.8932  16.8932
    18.0474  18.0474  24.5368  24.5368  26.1357

     occupation numbers 
     1.0000   1.0000   1.0000   1.0000   1.0000   1.0000   1.0000   1.0000
     1.0000   1.0000   1.0000   1.0000   1.0000   1.0000   1.0000   1.0000
     1.0000   1.0000   0.0000   0.0000   0.0000

 ------ SPIN DOWN ----------


          k = 0.0000 0.0000 0.0000 (  2803 PWs)   bands (ev):

   -75.1583 -75.0991 -38.6255 -38.3139 -38.3139 -38.2720 -38.2655 -38.2655
     9.8157  14.5630  17.7906  17.9201  17.9201  18.2755  18.2755  18.4000
    18.7832  18.7832  19.9701  19.9701  26.0837

     occupation numbers 
     1.0000   1.0000   1.0000   1.0000   1.0000   1.0000   1.0000   1.0000
     1.0000   1.0000   1.0000   1.0000   1.0000   1.0000   1.0000   1.0000
     1.0000   1.0000   0.0000   0.0000   0.0000

          k = 0.0000 0.0000 0.1016 (  2839 PWs)   bands (ev):

   -75.1543 -75.1031 -38.6022 -38.3107 -38.3107 -38.2960 -38.2688 -38.2688
    10.0904  14.3193  17.7007  17.8481  17.8634  17.8634  18.1979  18.1979
    18.9477  18.9477  19.9508  19.9508  27.3684

     occupation numbers 
     1.0000   1.0000   1.0000   1.0000   1.0000   1.0000   1.0000   1.0000
     1.0000   1.0000   1.0000   1.0000   1.0000   1.0000   1.0000   1.0000
     0.0000   0.0000   0.0000   0.0000   0.0000

          k = 0.0000 0.0000 0.2032 (  2834 PWs)   bands (ev):

   -75.1435 -75.1139 -38.5382 -38.3614 -38.3019 -38.3019 -38.2776 -38.2776
    10.8849  13.4199  17.2543  17.4728  17.8145  17.8145  18.0260  18.0260
    19.2891  19.2891  19.8518  19.8518  30.2933

     occupation numbers 
     1.0000   1.0000   1.0000   1.0000   1.0000   1.0000   1.0000   1.0000
     1.0000   1.0000   1.0000   1.0000   1.0000   1.0000   1.0000   1.0000
     0.0000   0.0000   0.0000   0.0000   0.0000

          k = 0.0000 0.0000-0.3048 (  2834 PWs)   bands (ev):

   -75.1288 -75.1288 -38.4501 -38.4501 -38.2898 -38.2898 -38.2898 -38.2898
    12.0895  12.0896  17.2376  17.2376  17.8722  17.8722  17.8722  17.8722
    19.6238  19.6238  19.6238  19.6238  33.8996

     occupation numbers 
     1.0000   1.0000   1.0000   1.0000   1.0000   1.0000   1.0000   1.0000
     1.0000   1.0000   1.0000   1.0000   1.0000   1.0000   1.0000   1.0000
     0.0000   0.0000   0.0000   0.0000   0.0000

          k = 0.0000 0.0962 0.0000 (  2821 PWs)   bands (ev):

   -75.1547 -75.0973 -38.6176 -38.3323 -38.3198 -38.2845 -38.2749 -38.2687
    10.0624  14.7353  17.6006  17.8345  18.0487  18.0558  18.2043  18.3905
    18.6984  18.6988  20.0047  20.7647  26.0994

     occupation numbers 
     1.0000   1.0000   1.0000   1.0000   1.0000   1.0000   1.0000   1.0000
     1.0000   1.0000   1.0000   1.0000   1.0000   1.0000   1.0000   1.0000
     1.0000   1.0000   0.0000   0.0000   0.0000

          k = 0.0000 0.0962 0.1016 (  2833 PWs)   bands (ev):

   -75.1508 -75.1011 -38.5956 -38.3286 -38.3164 -38.3068 -38.2791 -38.2721
    10.3334  14.5039  17.4290  17.5970  17.8754  17.9777  18.2089  18.3059
    18.8896  18.8971  19.9766  20.4405  27.4515

     occupation numbers 
     1.0000   1.0000   1.0000   1.0000   1.0000   1.0000   1.0000   1.0000
     1.0000   1.0000   1.0000   1.0000   1.0000   1.0000   1.0000   1.0000
     0.0000   0.0000   0.0000   0.0000   0.0000

          k = 0.0000 0.0962 0.2032 (  2846 PWs)   bands (ev):

   -75.1404 -75.1117 -38.5352 -38.3685 -38.3180 -38.3070 -38.2896 -38.2815
    11.1170  13.6196  17.0510  17.4694  17.7017  17.9198  18.0327  18.1320
    19.2544  19.2859  19.8575  20.0419  30.4333

     occupation numbers 
     1.0000   1.0000   1.0000   1.0000   1.0000   1.0000   1.0000   1.0000
     1.0000   1.0000   1.0000   1.0000   1.0000   1.0000   1.0000   1.0000
     0.0000   0.0000   0.0000   0.0000   0.0000

          k = 0.0000 0.0962-0.3048 (  2838 PWs)   bands (ev):

   -75.1260 -75.1260 -38.4521 -38.4521 -38.3038 -38.3038 -38.2942 -38.2942
    12.3054  12.3054  17.1562  17.1562  17.8221  17.8221  17.9772  17.9772
    19.6080  19.6080  19.6840  19.6840  34.0657

     occupation numbers 
     1.0000   1.0000   1.0000   1.0000   1.0000   1.0000   1.0000   1.0000
     1.0000   1.0000   1.0000   1.0000   1.0000   1.0000   1.0000   1.0000
     0.0000   0.0000   0.0000   0.0000   0.0000

          k = 0.0000 0.1925 0.0000 (  2825 PWs)   bands (ev):

   -75.1446 -75.0925 -38.5950 -38.3827 -38.3358 -38.3354 -38.2839 -38.2775
    10.7799  15.1792  17.0289  17.2615  17.9557  18.3845  18.4141  18.4923
    18.5104  18.7137  20.0765  22.2052  26.1649

     occupation numbers 
     1.0000   1.0000   1.0000   1.0000   1.0000   1.0000   1.0000   1.0000
     1.0000   1.0000   1.0000   1.0000   1.0000   1.0000   1.0000   1.0000
     1.0000   1.0000   0.0000   0.0000   0.0000

          k = 0.0000 0.1925 0.1016 (  2822 PWs)   bands (ev):

   -75.1411 -75.0960 -38.5774 -38.3771 -38.3512 -38.3315 -38.2922 -38.2814
    11.0379  14.9885  16.7895  17.3045  17.8399  18.1440  18.2466  18.5858
    18.8313  18.8644  20.0288  21.4369  27.7329

     occupation numbers 
     1.0000   1.0000   1.0000   1.0000   1.0000   1.0000   1.0000   1.0000
     1.0000   1.0000   1.0000   1.0000   1.0000   1.0000   1.0000   1.0000
     0.5672   0.0005   0.0000   0.0000   0.0000

          k = 0.0000 0.1925 0.2032 (  2824 PWs)   bands (ev):

   -75.1316 -75.1055 -38.5293 -38.3988 -38.3588 -38.3209 -38.3119 -38.2920
    11.7826  14.1560  16.6848  17.4017  17.4643  17.9576  18.1841  18.4255
    19.2071  19.3251  19.8673  20.5033  30.8563

     occupation numbers 
     1.0000   1.0000   1.0000   1.0000   1.0000   1.0000   1.0000   1.0000
     1.0000   1.0000   1.0000   1.0000   1.0000   1.0000   1.0000   1.0000
     0.0000   0.0000   0.0000   0.0000   0.0000

          k = 0.0000 0.1925-0.3048 (  2846 PWs)   bands (ev):

   -75.1186 -75.1186 -38.4635 -38.4635 -38.3361 -38.3361 -38.3065 -38.3065
    12.9085  12.9085  16.9763  16.9763  17.6852  17.6852  18.2593  18.2593
    19.5806  19.5806  19.8539  19.8539  34.5281

     occupation numbers 
     1.0000   1.0000   1.0000   1.0000   1.0000   1.0000   1.0000   1.0000
     1.0000   1.0000   1.0000   1.0000   1.0000   1.0000   1.0000   1.0000
     0.0000   0.0000   0.0000   0.0000   0.0000

          k = 0.0000 0.2887 0.0000 (  2812 PWs)   bands (ev):

   -75.1303 -75.0863 -38.5613 -38.4521 -38.4046 -38.3561 -38.2990 -38.2901
    11.8904  15.6165  16.3758  16.9556  17.7793  18.2459  18.2619  18.8403
    18.9509  19.1806  20.1412  23.8887  26.3093

     occupation numbers 
     1.0000   1.0000   1.0000   1.0000   1.0000   1.0000   1.0000   1.0000
     1.0000   1.0000   1.0000   1.0000   1.0000   1.0000   1.0000   0.2219
     0.0000   0.0000   0.0000   0.0000   0.0000

          k = 0.0000 0.2887 0.1016 (  2813 PWs)   bands (ev):

   -75.1274 -75.0893 -38.5547 -38.4405 -38.4167 -38.3517 -38.3053 -38.2946
    12.1183  15.4908  16.2670  17.0195  17.6469  18.1689  18.2808  18.9937
    19.0286  19.1469  20.0755  22.5414  28.2702

     occupation numbers 
     1.0000   1.0000   1.0000   1.0000   1.0000   1.0000   1.0000   1.0000
     1.0000   1.0000   1.0000   1.0000   1.0000   1.0000   1.0000   0.0000
     0.0000   0.0000   0.0000   0.0000   0.0000

          k = 0.0000 0.2887 0.2032 (  2829 PWs)   bands (ev):

   -75.1193 -75.0974 -38.5334 -38.4573 -38.4009 -38.3396 -38.3262 -38.3067
    12.7697  14.7805  16.4034  17.1008  17.4259  17.9427  18.3987  18.8439
    19.3233  19.4532  19.8879  21.0690  31.4756

     occupation numbers 
     1.0000   1.0000   1.0000   1.0000   1.0000   1.0000   1.0000   1.0000
     1.0000   1.0000   1.0000   1.0000   1.0000   1.0000   1.0000   0.1260
     0.0000   0.0000   0.0000   0.0000   0.0000

          k = 0.0000 0.2887-0.3048 (  2838 PWs)   bands (ev):

   -75.1084 -75.1084 -38.4982 -38.4982 -38.3608 -38.3608 -38.3232 -38.3232
    13.7338  13.7338  16.7827  16.7827  17.6234  17.6235  18.6018  18.6018
    19.6145  19.6145  20.0928  20.0928  33.8203

     occupation numbers 
     1.0000   1.0000   1.0000   1.0000   1.0000   1.0000   1.0000   1.0000
     1.0000   1.0000   1.0000   1.0000   1.0000   1.0000   1.0000   1.0000
     0.0000   0.0000   0.0000   0.0000   0.0000

          k = 0.0000 0.3849 0.0000 (  2828 PWs)   bands (ev):

   -75.1151 -75.0811 -38.5221 -38.5219 -38.4721 -38.3763 -38.3197 -38.3032
    13.2163  15.6516  15.9161  16.8437  17.8693  18.0177  18.0249  19.5230
    19.5351  19.6892  20.1831  25.7345  26.2653

     occupation numbers 
[...]
    20.1381  20.1589  21.3341  23.8727  28.6763

     occupation numbers 
     1.0000   1.0000   1.0000   1.0000   1.0000   1.0000   1.0000   1.0000
     1.0000   1.0000   1.0000   1.0000   1.0000   1.0000   1.0000   0.0000
     0.0000   0.0000   0.0000   0.0000   0.0000

          k = 0.0833 0.5292 0.1016 (  2832 PWs)   bands (ev):

   -75.0963 -75.0795 -38.5942 -38.5448 -38.4476 -38.3976 -38.3529 -38.3296
    14.7929  15.3949  15.9510  16.5119  17.7677  18.2385  18.2726  19.9029
    20.0614  20.1744  21.1963  23.5184  27.6941

     occupation numbers 
     1.0000   1.0000   1.0000   1.0000   1.0000   1.0000   1.0000   1.0000
     1.0000   1.0000   1.0000   1.0000   1.0000   1.0000   1.0000   0.0000
     0.0000   0.0000   0.0000   0.0000   0.0000

          k = 0.0833 0.5292 0.2032 (  2839 PWs)   bands (ev):

   -75.0928 -75.0831 -38.6069 -38.5762 -38.4126 -38.3761 -38.3615 -38.3332
    14.7640  15.2366  16.2514  16.5541  17.8057  18.5771  18.7653  19.4474
    20.0151  20.2504  20.9828  22.5629  27.1993

     occupation numbers 
     1.0000   1.0000   1.0000   1.0000   1.0000   1.0000   1.0000   1.0000
     1.0000   1.0000   1.0000   1.0000   1.0000   1.0000   1.0000   0.0000
     0.0000   0.0000   0.0000   0.0000   0.0000

          k = 0.0833 0.5292-0.3048 (  2844 PWs)   bands (ev):

   -75.0879 -75.0879 -38.6009 -38.6009 -38.3846 -38.3846 -38.3477 -38.3477
    14.9379  14.9379  16.4995  16.4995  18.3123  18.3124  19.0970  19.0970
    20.1021  20.1021  21.5074  21.5075  27.4616

     occupation numbers 
     1.0000   1.0000   1.0000   1.0000   1.0000   1.0000   1.0000   1.0000
     1.0000   1.0000   1.0000   1.0000   1.0000   1.0000   0.0000   0.0000
     0.0000   0.0000   0.0000   0.0000   0.0000

          k = 0.1667 0.2887 0.0000 (  2820 PWs)   bands (ev):

   -75.1229 -75.0836 -38.5426 -38.4599 -38.4509 -38.3619 -38.3159 -38.3083
    12.5237  15.9263  16.2090  16.6114  17.8207  17.8228  18.4062  18.7047
    19.3431  19.6999  20.0795  24.7880  26.5383

     occupation numbers 
     1.0000   1.0000   1.0000   1.0000   1.0000   1.0000   1.0000   1.0000
     1.0000   1.0000   1.0000   1.0000   1.0000   1.0000   1.0000   1.0000
     0.0000   0.0000   0.0000   0.0000   0.0000

          k = 0.1667 0.2887 0.1016 (  2826 PWs)   bands (ev):

   -75.1203 -75.0862 -38.5437 -38.4580 -38.4416 -38.3676 -38.3200 -38.3088
    12.7328  15.8205  16.1430  16.6778  17.7109  17.8452  18.3050  18.8225
    19.4692  19.5710  20.0908  23.1473  28.7216

     occupation numbers 
     1.0000   1.0000   1.0000   1.0000   1.0000   1.0000   1.0000   1.0000
     1.0000   1.0000   1.0000   1.0000   1.0000   1.0000   1.0000   0.8605
     0.0000   0.0000   0.0000   0.0000   0.0000

          k = 0.1667 0.2887 0.2032 (  2826 PWs)   bands (ev):

   -75.1131 -75.0934 -38.5360 -38.4816 -38.4036 -38.3708 -38.3298 -38.3183
    13.3261  15.1245  16.4030  16.8471  17.4246  17.6864  18.3610  18.9535
    19.5485  19.6923  20.0472  21.4463  31.9572

     occupation numbers 
     1.0000   1.0000   1.0000   1.0000   1.0000   1.0000   1.0000   1.0000
     1.0000   1.0000   1.0000   1.0000   1.0000   1.0000   1.0000   0.0000
     0.0000   0.0000   0.0000   0.0000   0.0000

          k = 0.1667 0.2887-0.3048 (  2820 PWs)   bands (ev):

   -75.1033 -75.1033 -38.5129 -38.5129 -38.3737 -38.3737 -38.3335 -38.3335
    14.1921  14.1921  16.7797  16.7797  17.3773  17.3773  18.6654  18.6654
    19.8786  19.8786  20.2719  20.2719  34.0298

     occupation numbers 
     1.0000   1.0000   1.0000   1.0000   1.0000   1.0000   1.0000   1.0000
     1.0000   1.0000   1.0000   1.0000   1.0000   1.0000   1.0000   1.0000
     0.0000   0.0000   0.0000   0.0000   0.0000

          k = 0.1667 0.3849 0.0000 (  2832 PWs)   bands (ev):

   -75.1092 -75.0796 -38.5134 -38.5053 -38.4900 -38.3934 -38.3398 -38.3295
    13.7892  15.9214  15.9972  16.4309  17.6104  17.9532  18.1575  19.0630
    19.8537  20.0654  20.4454  26.5627  26.8339

     occupation numbers 
     1.0000   1.0000   1.0000   1.0000   1.0000   1.0000   1.0000   1.0000
     1.0000   1.0000   1.0000   1.0000   1.0000   1.0000   1.0000   0.0000
     0.0000   0.0000   0.0000   0.0000   0.0000

          k = 0.1667 0.3849 0.1016 (  2831 PWs)   bands (ev):

   -75.1072 -75.0816 -38.5419 -38.5073 -38.4551 -38.3978 -38.3455 -38.3239
    13.9330  15.7822  16.0980  16.5329  17.5668  17.9377  18.1122  19.1185
    19.8072  19.9552  20.5437  24.2493  29.0791

     occupation numbers 
     1.0000   1.0000   1.0000   1.0000   1.0000   1.0000   1.0000   1.0000
     1.0000   1.0000   1.0000   1.0000   1.0000   1.0000   1.0000   0.0000
     0.0000   0.0000   0.0000   0.0000   0.0000

          k = 0.1667 0.3849 0.2032 (  2832 PWs)   bands (ev):

   -75.1018 -75.0870 -38.5566 -38.5278 -38.4142 -38.3951 -38.3531 -38.3246
    14.3275  15.4024  16.3755  16.7423  17.4122  17.6706  18.3041  19.1240
    19.6531  20.1369  20.6244  22.2766  30.0981

     occupation numbers 
     1.0000   1.0000   1.0000   1.0000   1.0000   1.0000   1.0000   1.0000
     1.0000   1.0000   1.0000   1.0000   1.0000   1.0000   1.0000   0.0000
     0.0000   0.0000   0.0000   0.0000   0.0000

          k = 0.1667 0.3849-0.3048 (  2826 PWs)   bands (ev):

   -75.0944 -75.0944 -38.5495 -38.5495 -38.3951 -38.3951 -38.3410 -38.3410
    14.8677  14.8677  16.7149  16.7149  17.3937  17.3937  18.6753  18.6753
    20.1230  20.1230  20.9670  20.9670  31.1885

     occupation numbers 
     1.0000   1.0000   1.0000   1.0000   1.0000   1.0000   1.0000   1.0000
     1.0000   1.0000   1.0000   1.0000   1.0000   1.0000   1.0000   1.0000
     0.0000   0.0000   0.0000   0.0000   0.0000

          k = 0.1667 0.4811 0.0000 (  2848 PWs)   bands (ev):

   -75.0977 -75.0782 -38.5554 -38.5107 -38.4694 -38.4224 -38.3561 -38.3536
    14.8948  15.7569  15.7668  16.4955  17.5477  17.8772  18.1921  19.5418
    20.0544  20.1066  21.3766  25.3702  28.4758

     occupation numbers 
     1.0000   1.0000   1.0000   1.0000   1.0000   1.0000   1.0000   1.0000
     1.0000   1.0000   1.0000   1.0000   1.0000   1.0000   1.0000   0.0000
     0.0000   0.0000   0.0000   0.0000   0.0000

          k = 0.1667 0.4811 0.1016 (  2832 PWs)   bands (ev):

   -75.0964 -75.0795 -38.5673 -38.5282 -38.4511 -38.4141 -38.3670 -38.3398
    14.9035  15.7081  15.9379  16.5219  17.5558  17.8474  18.2815  19.5411
    19.8224  20.1804  21.4239  24.7130  27.5726

     occupation numbers 
     1.0000   1.0000   1.0000   1.0000   1.0000   1.0000   1.0000   1.0000
     1.0000   1.0000   1.0000   1.0000   1.0000   1.0000   1.0000   0.0000
     0.0000   0.0000   0.0000   0.0000   0.0000

          k = 0.1667 0.4811 0.2032 (  2837 PWs)   bands (ev):

   -75.0928 -75.0830 -38.5813 -38.5563 -38.4333 -38.3976 -38.3670 -38.3317
    14.9949  15.5071  16.2647  16.7754  17.3792  17.8289  18.5216  19.2370
    19.7646  20.2754  21.5694  23.2557  27.7355

     occupation numbers 
     1.0000   1.0000   1.0000   1.0000   1.0000   1.0000   1.0000   1.0000
     1.0000   1.0000   1.0000   1.0000   1.0000   1.0000   1.0000   0.0000
     0.0000   0.0000   0.0000   0.0000   0.0000

          k = 0.1667 0.4811-0.3048 (  2822 PWs)   bands (ev):

   -75.0879 -75.0879 -38.5778 -38.5778 -38.4136 -38.4136 -38.3421 -38.3421
    15.2145  15.2145  16.6654  16.6654  17.5686  17.5686  18.8055  18.8055
    20.1135  20.1135  22.0890  22.0890  28.5363

     occupation numbers 
     1.0000   1.0000   1.0000   1.0000   1.0000   1.0000   1.0000   1.0000
     1.0000   1.0000   1.0000   1.0000   1.0000   1.0000   0.9978   0.9978
     0.0000   0.0000   0.0000   0.0000   0.0000

          k = 0.1667 0.5774 0.0000 (  2826 PWs)   bands (ev):

   -75.0926 -75.0785 -38.5706 -38.5173 -38.4513 -38.4342 -38.3673 -38.3619
    15.3544  15.6253  15.7044  16.5696  17.6113  17.6872  18.2986  19.8806
    20.0501  20.0736  22.2955  23.8055  29.7156

     occupation numbers 
     1.0000   1.0000   1.0000   1.0000   1.0000   1.0000   1.0000   1.0000
     1.0000   1.0000   1.0000   1.0000   1.0000   1.0000   1.0000   0.0000
     0.0000   0.0000   0.0000   0.0000   0.0000

          k = 0.1667 0.5774 0.1016 (  2833 PWs)   bands (ev):

   -75.0917 -75.0794 -38.5802 -38.5338 -38.4540 -38.4078 -38.3793 -38.3474
    15.1902  15.6684  16.0878  16.3757  17.5158  17.8797  18.3964  19.7973
    19.8805  20.1324  22.3194  23.7003  28.6797

     occupation numbers 
     1.0000   1.0000   1.0000   1.0000   1.0000   1.0000   1.0000   1.0000
     1.0000   1.0000   1.0000   1.0000   1.0000   1.0000   1.0000   0.0000
     0.0000   0.0000   0.0000   0.0000   0.0000

          k = 0.1667 0.5774 0.2032 (  2834 PWs)   bands (ev):

   -75.0891 -75.0820 -38.5923 -38.5653 -38.4422 -38.3979 -38.3690 -38.3355
    15.1412  15.5685  16.3360  16.6869  17.2918  18.0067  18.6716  19.3048
    19.9115  20.1810  22.4381  23.3566  27.6209

     occupation numbers 
     1.0000   1.0000   1.0000   1.0000   1.0000   1.0000   1.0000   1.0000
     1.0000   1.0000   1.0000   1.0000   1.0000   1.0000   1.0000   0.0000
     0.0000   0.0000   0.0000   0.0000   0.0000

          k = 0.1667 0.5774-0.3048 (  2834 PWs)   bands (ev):

   -75.0855 -75.0855 -38.5883 -38.5883 -38.4208 -38.4208 -38.3419 -38.3419
    15.2956  15.2956  16.6546  16.6546  17.6257  17.6257  18.9703  18.9703
    20.0480  20.0480  22.8319  22.8319  27.2567

     occupation numbers 
     1.0000   1.0000   1.0000   1.0000   1.0000   1.0000   1.0000   1.0000
     1.0000   1.0000   1.0000   1.0000   1.0000   1.0000   0.0000   0.0000
     0.0000   0.0000   0.0000   0.0000   0.0000

          k = 0.2500 0.4330 0.0000 (  2856 PWs)   bands (ev):

   -75.0977 -75.0781 -38.5323 -38.5098 -38.4697 -38.4257 -38.3772 -38.3533
    14.9116  15.8364  16.1180  16.1616  17.4480  17.9078  18.1980  19.2790
    20.0009  20.1054  21.4227  26.9193  27.8274

     occupation numbers 
     1.0000   1.0000   1.0000   1.0000   1.0000   1.0000   1.0000   1.0000
     1.0000   1.0000   1.0000   1.0000   1.0000   1.0000   1.0000   0.0000
     0.0000   0.0000   0.0000   0.0000   0.0000

          k = 0.2500 0.4330 0.1016 (  2843 PWs)   bands (ev):

   -75.0964 -75.0794 -38.5371 -38.5360 -38.4373 -38.4365 -38.3791 -38.3418
    14.9861  15.7527  16.1850  16.3441  17.4864  17.7218  18.2155  19.3330
    19.7603  20.1870  21.5213  25.4214  28.1089

     occupation numbers 
     1.0000   1.0000   1.0000   1.0000   1.0000   1.0000   1.0000   1.0000
     1.0000   1.0000   1.0000   1.0000   1.0000   1.0000   1.0000   0.0000
     0.0000   0.0000   0.0000   0.0000   0.0000

          k = 0.2500 0.4330 0.2032 (  2826 PWs)   bands (ev):

   -75.0928 -75.0830 -38.5606 -38.5495 -38.4415 -38.4178 -38.3667 -38.3315
    15.1768  15.6085  16.4029  16.6941  17.3298  17.4512  18.3183  19.1332
    19.7217  20.2850  21.7512  23.5701  28.8734

     occupation numbers 
     1.0000   1.0000   1.0000   1.0000   1.0000   1.0000   1.0000   1.0000
     1.0000   1.0000   1.0000   1.0000   1.0000   1.0000   1.0000   0.0000
     0.0000   0.0000   0.0000   0.0000   0.0000

          k = 0.2500 0.4330-0.3048 (  2826 PWs)   bands (ev):

   -75.0879 -75.0879 -38.5631 -38.5631 -38.4300 -38.4300 -38.3406 -38.3406
    15.4088  15.4088  16.7395  16.7395  17.2252  17.2252  18.6295  18.6295
    20.1380  20.1380  22.3072  22.3072  29.8659

     occupation numbers 
     1.0000   1.0000   1.0000   1.0000   1.0000   1.0000   1.0000   1.0000
     1.0000   1.0000   1.0000   1.0000   1.0000   1.0000   1.0000   1.0000
     0.0000   0.0000   0.0000   0.0000   0.0000

          k = 0.2500 0.5292 0.0000 (  2844 PWs)   bands (ev):

   -75.0892 -75.0791 -38.5460 -38.5006 -38.4595 -38.4380 -38.4014 -38.3782
    15.6273  15.8167  15.9614  16.2517  17.4466  17.6490  18.4004  19.6021
    19.9632  20.0252  22.7298  25.0075  27.1348

     occupation numbers 
     1.0000   1.0000   1.0000   1.0000   1.0000   1.0000   1.0000   1.0000
     1.0000   1.0000   1.0000   1.0000   1.0000   1.0000   1.0000   0.0000
     0.0000   0.0000   0.0000   0.0000   0.0000

          k = 0.2500 0.5292 0.1016 (  2848 PWs)   bands (ev):

   -75.0885 -75.0798 -38.5508 -38.5206 -38.4748 -38.4188 -38.3986 -38.3599
    15.5744  15.9429  16.0427  16.3143  17.4177  17.5472  18.4208  19.6308
    19.7195  20.0834  22.8860  24.9702  27.1775

     occupation numbers 
     1.0000   1.0000   1.0000   1.0000   1.0000   1.0000   1.0000   1.0000
     1.0000   1.0000   1.0000   1.0000   1.0000   1.0000   1.0000   0.0000
     0.0000   0.0000   0.0000   0.0000   0.0000

          k = 0.2500 0.5292 0.2032 (  2834 PWs)   bands (ev):

   -75.0867 -75.0816 -38.5637 -38.5485 -38.4751 -38.4340 -38.3622 -38.3395
    15.6008  15.8927  16.3202  16.6563  17.1513  17.4102  18.5065  19.1589
    19.8191  20.1411  23.2596  24.5773  27.2222

     occupation numbers 
     1.0000   1.0000   1.0000   1.0000   1.0000   1.0000   1.0000   1.0000
     1.0000   1.0000   1.0000   1.0000   1.0000   1.0000   1.0000   0.0000
     0.0000   0.0000   0.0000   0.0000   0.0000

          k = 0.2500 0.5292-0.3048 (  2828 PWs)   bands (ev):

   -75.0842 -75.0842 -38.5656 -38.5656 -38.4566 -38.4566 -38.3391 -38.3391
    15.7301  15.7301  16.7127  16.7127  17.1266  17.1266  18.7236  18.7236
    20.0389  20.0389  23.8428  23.8428  27.7617

     occupation numbers 
     1.0000   1.0000   1.0000   1.0000   1.0000   1.0000   1.0000   1.0000
     1.0000   1.0000   1.0000   1.0000   1.0000   1.0000   1.0000   1.0000
     0.0000   0.0000   0.0000   0.0000   0.0000

          k = 0.3333 0.5774 0.0000 (  2844 PWs)   bands (ev):

   -75.0828 -75.0828 -38.5334 -38.4834 -38.4834 -38.4303 -38.4068 -38.4068
    15.8600  15.9783  15.9783  16.1615  17.4769  17.4769  18.5104  19.7777
    19.7777  19.9270  24.1960  25.0120  25.0120

     occupation numbers 
     1.0000   1.0000   1.0000   1.0000   1.0000   1.0000   1.0000   1.0000
     1.0000   1.0000   1.0000   1.0000   1.0000   1.0000   1.0000   0.0000
     0.0000   0.0000   0.0000   0.0000   0.0000

          k = 0.3333 0.5774 0.1016 (  2853 PWs)   bands (ev):

   -75.0828 -75.0828 -38.5265 -38.5079 -38.5079 -38.4373 -38.3821 -38.3821
    15.9323  16.0480  16.0480  16.1919  17.3892  17.3892  18.4935  19.6603
    19.8340  19.8340  24.6012  25.0541  25.0541

     occupation numbers 
     1.0000   1.0000   1.0000   1.0000   1.0000   1.0000   1.0000   1.0000
     1.0000   1.0000   1.0000   1.0000   1.0000   1.0000   1.0000   0.0000
     0.0000   0.0000   0.0000   0.0000   0.0000

          k = 0.3333 0.5774 0.2032 (  2835 PWs)   bands (ev):

   -75.0828 -75.0828 -38.5394 -38.5394 -38.5078 -38.4562 -38.3504 -38.3504
    16.1005  16.2142  16.2142  16.2475  17.1952  17.1952  18.5020  19.1227
    19.9385  19.9385  25.1582  25.1582  25.5944

     occupation numbers 
     1.0000   1.0000   1.0000   1.0000   1.0000   1.0000   1.0000   1.0000
     1.0000   1.0000   1.0000   1.0000   1.0000   1.0000   1.0000   0.0000
     0.0000   0.0000   0.0000   0.0000   0.0000

          k = 0.3333 0.5774-0.3048 (  2808 PWs)   bands (ev):

   -75.0828 -75.0828 -38.5517 -38.5517 -38.4820 -38.4820 -38.3379 -38.3379
    16.2358  16.2358  16.3226  16.3226  17.0766  17.0766  18.6842  18.6842
    19.9873  19.9873  25.2240  25.2240  26.9117

     occupation numbers 
     1.0000   1.0000   1.0000   1.0000   1.0000   1.0000   1.0000   1.0000
     1.0000   1.0000   1.0000   1.0000   1.0000   1.0000   1.0000   1.0000
     0.0000   0.0000   0.0000   0.0000   0.0000

     the Fermi energy is    18.8329 ev

!    total energy              =    -753.45492848 Ry
     total all-electron energy =     -5573.811620 Ry
     estimated scf accuracy    <       0.00000024 Ry
     smearing contrib. (-TS)   =      -0.00001696 Ry
     internal energy E=F+TS    =    -753.45491152 Ry

     The total energy is F=E-TS. E is the sum of the following terms:
     one-electron contribution =    -281.31857202 Ry
     hartree contribution      =     164.48364141 Ry
     xc contribution           =     -61.41396527 Ry
     ewald contribution        =    -400.02947340 Ry
     one-center paw contrib.   =    -175.17654223 Ry
      -> PAW hartree energy AE =     222.02595872 Ry
      -> PAW hartree energy PS =    -220.97078205 Ry
      -> PAW xc energy AE      =    -117.67405730 Ry
      -> PAW xc energy PS      =      29.03060951 Ry
      -> total E_H with PAW    =     165.53881808 Ry
      -> total E_XC with PAW   =    -150.05741305 Ry

     total magnetization       =     3.36 Bohr mag/cell
     absolute magnetization    =     3.67 Bohr mag/cell

     convergence has been achieved in   5 iterations

     Writing all to output data dir ./out/Co.save/
 
     init_run     :      0.39s CPU      0.50s WALL (       1 calls)
     electrons    :      9.71s CPU     10.25s WALL (       1 calls)

     Called by init_run:
     wfcinit      :      0.26s CPU      0.35s WALL (       1 calls)
     potinit      :      0.09s CPU      0.10s WALL (       1 calls)
     hinit0       :      0.03s CPU      0.03s WALL (       1 calls)

     Called by electrons:
     c_bands      :      8.35s CPU      8.75s WALL (       5 calls)
     sum_band     :      0.92s CPU      0.97s WALL (       5 calls)
     v_of_rho     :      0.02s CPU      0.02s WALL (       6 calls)
     v_h          :      0.00s CPU      0.00s WALL (       6 calls)
     v_xc         :      0.02s CPU      0.02s WALL (       6 calls)
     newd         :      0.02s CPU      0.03s WALL (       6 calls)
     PAW_pot      :      0.47s CPU      0.57s WALL (       6 calls)
     mix_rho      :      0.00s CPU      0.00s WALL (       5 calls)

     Called by c_bands:
     init_us_2    :      0.05s CPU      0.05s WALL (    1520 calls)
     init_us_2:cp :      0.05s CPU      0.05s WALL (    1520 calls)
     cegterg      :      8.04s CPU      8.40s WALL (     760 calls)

     Called by sum_band:
     sum_band:wei :      0.01s CPU      0.01s WALL (       5 calls)
     sum_band:loo :      0.88s CPU      0.92s WALL (       5 calls)
     sum_band:buf :      0.00s CPU      0.01s WALL (     760 calls)
     sum_band:ini :      0.03s CPU      0.03s WALL (     760 calls)
     sum_band:cal :      0.08s CPU      0.07s WALL (     760 calls)
     sum_band:bec :      0.00s CPU      0.01s WALL (     760 calls)
     addusdens    :      0.03s CPU      0.04s WALL (       5 calls)
                                        0.00s GPU  (       5 calls)
     addusd:skk   :      0.00s CPU      0.00s WALL (       5 calls)
                                        0.00s GPU  (       5 calls)

     Called by *egterg:
     cdiaghg      :      1.99s CPU      2.03s WALL (    4105 calls)
     cegterg:over :      0.27s CPU      0.25s WALL (    3497 calls)
     cegterg:upda :      0.03s CPU      0.06s WALL (    3497 calls)
     cegterg:last :      0.08s CPU      0.10s WALL (    2269 calls)
     h_psi        :      5.35s CPU      5.63s WALL (    4257 calls)
     s_psi        :      0.10s CPU      0.09s WALL (    4257 calls)
     g_psi        :      0.01s CPU      0.02s WALL (    3497 calls)

     Called by h_psi:
     h_psi:calbec :      0.30s CPU      0.28s WALL (    4257 calls)
     vloc_psi     :      4.99s CPU      5.24s WALL (    4257 calls)
     add_vuspsi   :      0.05s CPU      0.09s WALL (    4257 calls)

     General routines
     calbec       :      0.37s CPU      0.34s WALL (    5017 calls)
     fft          :      0.01s CPU      0.01s WALL (     144 calls)
     ffts         :      0.00s CPU      0.00s WALL (      22 calls)
     fftw         :      5.42s CPU      5.62s WALL (  125820 calls)
     interpolate  :      0.00s CPU      0.00s WALL (      12 calls)
 
     Parallel routines

     PAW routines
     PAW_pot      :      0.47s CPU      0.57s WALL (       6 calls)
     PAW_symme    :      0.00s CPU      0.01s WALL (      10 calls)
 
     PWSCF        :     10.44s CPU     11.54s WALL

 
   This run was terminated on:   7:50:17  22Mar2024            

=------------------------------------------------------------------------------=
   JOB DONE.
=------------------------------------------------------------------------------=
