
     Program PWSCF v.7.2 starts on 22Mar2024 at  7:52:18 

     This program is part of the open-source Quantum ESPRESSO suite
     for quantum simulation of materials; please cite
         "P. Giannozzi et al., J. Phys.:Condens. Matter 21 395502 (2009);
         "P. Giannozzi et al., J. Phys.:Condens. Matter 29 465901 (2017);
         "P. Giannozzi et al., J. Chem. Phys. 152 154105 (2020);
          URL http://www.quantum-espresso.org", 
     in publications or presentations arising from this work. More details at
     http://www.quantum-espresso.org/quote

     Parallel version (MPI), running on    20 processors

     MPI processes distributed on     1 nodes
     352898 MiB available memory on the printing compute node when the environment starts
 
     Waiting for input...
     Reading input from standard input

     Current dimensions of program PWSCF are:
     Max number of different atomic species (ntypx) = 10
     Max number of k-points (npk) = 120000
     Max angular momentum in pseudopotentials (lmaxx) =  4
     file Co.pbe-spn-kjpaw_psl.0.3.1.UPF: wavefunction(s)  3P 3D renormalized
 
     R & G space division:  proc/nbgrp/npool/nimage =      20
     Subspace diagonalization in iterative solution of the eigenvalue problem:
     a serial algorithm will be used

 
     Parallelization info
     --------------------
     sticks:   dense  smooth     PW     G-vecs:    dense   smooth      PW
     Min          33      33      9                 1160     1134     181
     Max          34      34     10                 1182     1138     188
     Sum         673     673    199                23415    22695    3717
 
     Using Slab Decomposition
 


     bravais-lattice index     =            4
     lattice parameter (alat)  =       4.6865  a.u.
     unit-cell volume          =     145.5746 (a.u.)^3
     number of atoms/cell      =            2
     number of atomic types    =            1
     number of electrons       =        34.00
     number of Kohn-Sham states=           21
     kinetic-energy cutoff     =     110.0000  Ry
     charge density cutoff     =     450.0000  Ry
     scf convergence threshold =      1.0E-06
     mixing beta               =       0.7000
     number of iterations used =            8  plain     mixing
     Exchange-correlation= SLA  PW   PBX  PBC
                           (   1   4   3   4   0   0   0)

     celldm(1)=   4.686521  celldm(2)=   0.000000  celldm(3)=   1.633065
     celldm(4)=   0.000000  celldm(5)=   0.000000  celldm(6)=   0.000000

     crystal axes: (cart. coord. in units of alat)
               a(1) = (   1.000000   0.000000   0.000000 )  
               a(2) = (  -0.500000   0.866025   0.000000 )  
               a(3) = (   0.000000   0.000000   1.633065 )  

     reciprocal axes: (cart. coord. in units 2 pi/alat)
               b(1) = (  1.000000  0.577350  0.000000 )  
               b(2) = (  0.000000  1.154701  0.000000 )  
               b(3) = (  0.000000  0.000000  0.612346 )  


     PseudoPot. # 1 for Co read from file:
     /truba/home/amuhaymin/ZnS/pseudo/QE/Co.pbe-spn-kjpaw_psl.0.3.1.UPF
     MD5 check sum: b0a1ad65bf214e88c1f3d33b20c7d919
     Pseudo is Projector augmented-wave + core cor, Zval = 17.0
     Generated using &quot;atomic&quot; code by A. Dal Corso  v.6.2.2
     Shape of augmentation charge: PSQ
     Using radial grid of 1193 points,  6 beta functions with: 
                l(1) =   0
                l(2) =   0
                l(3) =   1
                l(4) =   1
                l(5) =   2
                l(6) =   2
     Q(r) pseudized with 0 coefficients 


     atomic species   valence    mass     pseudopotential
        Co            17.00    58.93300     Co( 1.00)

     Starting magnetic structure 
     atomic species   magnetization
        Co           0.294

     24 Sym. Ops., with inversion, found (12 have fractional translation)


                                    s                        frac. trans.

      isym =  1     identity                                     

 cryst.   s( 1) = (     1          0          0      )
                  (     0          1          0      )
                  (     0          0          1      )

 cart.    s( 1) = (  1.0000000  0.0000000  0.0000000 )
                  (  0.0000000  1.0000000  0.0000000 )
                  (  0.0000000  0.0000000  1.0000000 )


      isym =  2     180 deg rotation - cart. axis [0,0,1]        

 cryst.   s( 2) = (    -1          0          0      )    f =(  0.0000000 )
                  (     0         -1          0      )       ( -0.0000000 )
                  (     0          0          1      )       ( -0.5000000 )

 cart.    s( 2) = ( -1.0000000  0.0000000  0.0000000 )    f =(  0.0000000 )
                  (  0.0000000 -1.0000000  0.0000000 )       ( -0.0000000 )
                  (  0.0000000  0.0000000  1.0000000 )       ( -0.8165323 )


      isym =  3     180 deg rotation - cart. axis [0,1,0]        

 cryst.   s( 3) = (    -1          0          0      )    f =(  0.0000000 )
                  (     1          1          0      )       (  0.0000000 )
                  (     0          0         -1      )       (  0.5000000 )

 cart.    s( 3) = ( -1.0000000  0.0000000  0.0000000 )    f =(  0.0000000 )
                  (  0.0000000  1.0000000  0.0000000 )       (  0.0000000 )
                  (  0.0000000  0.0000000 -1.0000000 )       (  0.8165323 )


      isym =  4     180 deg rotation - cart. axis [1,0,0]        

 cryst.   s( 4) = (     1          0          0      )
                  (    -1         -1          0      )
                  (     0          0         -1      )

 cart.    s( 4) = (  1.0000000  0.0000000  0.0000000 )
                  (  0.0000000 -1.0000000  0.0000000 )
                  (  0.0000000  0.0000000 -1.0000000 )


      isym =  5      60 deg rotation - cryst. axis [0,0,1]       

 cryst.   s( 5) = (     1          1          0      )    f =(  0.0000000 )
                  (    -1          0          0      )       ( -0.0000000 )
                  (     0          0          1      )       ( -0.5000000 )

 cart.    s( 5) = (  0.5000000 -0.8660254  0.0000000 )    f =(  0.0000000 )
                  (  0.8660254  0.5000000  0.0000000 )       ( -0.0000000 )
                  (  0.0000000  0.0000000  1.0000000 )       ( -0.8165323 )


      isym =  6      60 deg rotation - cryst. axis [0,0,-1]      

 cryst.   s( 6) = (     0         -1          0      )    f =(  0.0000000 )
                  (     1          1          0      )       ( -0.0000000 )
                  (     0          0          1      )       ( -0.5000000 )

 cart.    s( 6) = (  0.5000000  0.8660254  0.0000000 )    f =(  0.0000000 )
                  ( -0.8660254  0.5000000  0.0000000 )       ( -0.0000000 )
                  (  0.0000000  0.0000000  1.0000000 )       ( -0.8165323 )


      isym =  7     120 deg rotation - cryst. axis [0,0,1]       

 cryst.   s( 7) = (     0          1          0      )
                  (    -1         -1          0      )
                  (     0          0          1      )

 cart.    s( 7) = ( -0.5000000 -0.8660254  0.0000000 )
                  (  0.8660254 -0.5000000  0.0000000 )
                  (  0.0000000  0.0000000  1.0000000 )


      isym =  8     120 deg rotation - cryst. axis [0,0,-1]      

 cryst.   s( 8) = (    -1         -1          0      )
                  (     1          0          0      )
                  (     0          0          1      )

 cart.    s( 8) = ( -0.5000000  0.8660254  0.0000000 )
                  ( -0.8660254 -0.5000000  0.0000000 )
                  (  0.0000000  0.0000000  1.0000000 )


      isym =  9     180 deg rotation - cryst. axis [1,-1,0]      

 cryst.   s( 9) = (     0         -1          0      )    f =( -0.0000000 )
                  (    -1          0          0      )       ( -0.0000000 )
                  (     0          0         -1      )       (  0.5000000 )

 cart.    s( 9) = (  0.5000000 -0.8660254  0.0000000 )    f =( -0.0000000 )
                  ( -0.8660254 -0.5000000  0.0000000 )       ( -0.0000000 )
                  (  0.0000000  0.0000000 -1.0000000 )       (  0.8165323 )


      isym = 10     180 deg rotation - cryst. axis [2,1,0]       

 cryst.   s(10) = (     1          1          0      )    f =(  0.0000000 )
                  (     0         -1          0      )       ( -0.0000000 )
                  (     0          0         -1      )       (  0.5000000 )

 cart.    s(10) = (  0.5000000  0.8660254  0.0000000 )    f =(  0.0000000 )
                  (  0.8660254 -0.5000000  0.0000000 )       ( -0.0000000 )
                  (  0.0000000  0.0000000 -1.0000000 )       (  0.8165323 )


      isym = 11     180 deg rotation - cryst. axis [0,1,0]       

 cryst.   s(11) = (    -1         -1          0      )
                  (     0          1          0      )
                  (     0          0         -1      )

 cart.    s(11) = ( -0.5000000 -0.8660254  0.0000000 )
                  ( -0.8660254  0.5000000  0.0000000 )
                  (  0.0000000  0.0000000 -1.0000000 )


      isym = 12     180 deg rotation - cryst. axis [1,1,0]       

 cryst.   s(12) = (     0          1          0      )
                  (     1          0          0      )
                  (     0          0         -1      )

 cart.    s(12) = ( -0.5000000  0.8660254  0.0000000 )
                  (  0.8660254  0.5000000  0.0000000 )
                  (  0.0000000  0.0000000 -1.0000000 )


      isym = 13     inversion                                    

 cryst.   s(13) = (    -1          0          0      )
                  (     0         -1          0      )
                  (     0          0         -1      )

 cart.    s(13) = ( -1.0000000  0.0000000  0.0000000 )
                  (  0.0000000 -1.0000000  0.0000000 )
                  (  0.0000000  0.0000000 -1.0000000 )


      isym = 14     inv. 180 deg rotation - cart. axis [0,0,1]   

 cryst.   s(14) = (     1          0          0      )    f =(  0.0000000 )
                  (     0          1          0      )       (  0.0000000 )
                  (     0          0         -1      )       (  0.5000000 )

 cart.    s(14) = (  1.0000000  0.0000000  0.0000000 )    f =(  0.0000000 )
                  (  0.0000000  1.0000000  0.0000000 )       (  0.0000000 )
                  (  0.0000000  0.0000000 -1.0000000 )       (  0.8165323 )


      isym = 15     inv. 180 deg rotation - cart. axis [0,1,0]   

 cryst.   s(15) = (     1          0          0      )    f =(  0.0000000 )
                  (    -1         -1          0      )       ( -0.0000000 )
                  (     0          0          1      )       ( -0.5000000 )

 cart.    s(15) = (  1.0000000  0.0000000  0.0000000 )    f =(  0.0000000 )
                  (  0.0000000 -1.0000000  0.0000000 )       ( -0.0000000 )
                  (  0.0000000  0.0000000  1.0000000 )       ( -0.8165323 )


      isym = 16     inv. 180 deg rotation - cart. axis [1,0,0]   

 cryst.   s(16) = (    -1          0          0      )
                  (     1          1          0      )
                  (     0          0          1      )

 cart.    s(16) = ( -1.0000000  0.0000000  0.0000000 )
                  (  0.0000000  1.0000000  0.0000000 )
                  (  0.0000000  0.0000000  1.0000000 )


      isym = 17     inv.  60 deg rotation - cryst. axis [0,0,1]  

 cryst.   s(17) = (    -1         -1          0      )    f =(  0.0000000 )
                  (     1          0          0      )       ( -0.0000000 )
                  (     0          0         -1      )       (  0.5000000 )

 cart.    s(17) = ( -0.5000000  0.8660254  0.0000000 )    f =(  0.0000000 )
                  ( -0.8660254 -0.5000000  0.0000000 )       ( -0.0000000 )
                  (  0.0000000  0.0000000 -1.0000000 )       (  0.8165323 )


      isym = 18     inv.  60 deg rotation - cryst. axis [0,0,-1] 

 cryst.   s(18) = (     0          1          0      )    f =( -0.0000000 )
                  (    -1         -1          0      )       ( -0.0000000 )
                  (     0          0         -1      )       (  0.5000000 )

 cart.    s(18) = ( -0.5000000 -0.8660254  0.0000000 )    f =(  0.0000000 )
                  (  0.8660254 -0.5000000  0.0000000 )       ( -0.0000000 )
                  (  0.0000000  0.0000000 -1.0000000 )       (  0.8165323 )


      isym = 19     inv. 120 deg rotation - cryst. axis [0,0,1]  

 cryst.   s(19) = (     0         -1          0      )
                  (     1          1          0      )
                  (     0          0         -1      )

 cart.    s(19) = (  0.5000000  0.8660254  0.0000000 )
                  ( -0.8660254  0.5000000  0.0000000 )
                  (  0.0000000  0.0000000 -1.0000000 )


      isym = 20     inv. 120 deg rotation - cryst. axis [0,0,-1] 

 cryst.   s(20) = (     1          1          0      )
                  (    -1          0          0      )
                  (     0          0         -1      )

 cart.    s(20) = (  0.5000000 -0.8660254  0.0000000 )
                  (  0.8660254  0.5000000  0.0000000 )
                  (  0.0000000  0.0000000 -1.0000000 )


      isym = 21     inv. 180 deg rotation - cryst. axis [1,-1,0] 

 cryst.   s(21) = (     0          1          0      )    f =(  0.0000000 )
                  (     1          0          0      )       ( -0.0000000 )
                  (     0          0          1      )       ( -0.5000000 )

 cart.    s(21) = ( -0.5000000  0.8660254  0.0000000 )    f =(  0.0000000 )
                  (  0.8660254  0.5000000  0.0000000 )       ( -0.0000000 )
                  (  0.0000000  0.0000000  1.0000000 )       ( -0.8165323 )


      isym = 22     inv. 180 deg rotation - cryst. axis [2,1,0]  

 cryst.   s(22) = (    -1         -1          0      )    f =(  0.0000000 )
                  (     0          1          0      )       ( -0.0000000 )
                  (     0          0          1      )       ( -0.5000000 )

 cart.    s(22) = ( -0.5000000 -0.8660254  0.0000000 )    f =(  0.0000000 )
                  ( -0.8660254  0.5000000  0.0000000 )       ( -0.0000000 )
                  (  0.0000000  0.0000000  1.0000000 )       ( -0.8165323 )


      isym = 23     inv. 180 deg rotation - cryst. axis [0,1,0]  

 cryst.   s(23) = (     1          1          0      )
                  (     0         -1          0      )
                  (     0          0          1      )

 cart.    s(23) = (  0.5000000  0.8660254  0.0000000 )
                  (  0.8660254 -0.5000000  0.0000000 )
                  (  0.0000000  0.0000000  1.0000000 )


      isym = 24     inv. 180 deg rotation - cryst. axis [1,1,0]  

 cryst.   s(24) = (     0         -1          0      )
                  (    -1          0          0      )
                  (     0          0          1      )

 cart.    s(24) = (  0.5000000 -0.8660254  0.0000000 )
                  ( -0.8660254 -0.5000000  0.0000000 )
                  (  0.0000000  0.0000000  1.0000000 )


     point group D_6h(6/mmm)
     there are 12 classes
     the character table:

       E     2C6   2C3   C2    3C2'  3C2'' i     2S3   2S6   s_h   3s_d  3s_v 
A_1g   1.00  1.00  1.00  1.00  1.00  1.00  1.00  1.00  1.00  1.00  1.00  1.00
A_2g   1.00  1.00  1.00  1.00 -1.00 -1.00  1.00  1.00  1.00  1.00 -1.00 -1.00
B_1g   1.00 -1.00  1.00 -1.00  1.00 -1.00  1.00 -1.00  1.00 -1.00  1.00 -1.00
B_2g   1.00 -1.00  1.00 -1.00 -1.00  1.00  1.00 -1.00  1.00 -1.00 -1.00  1.00
E_1g   2.00  1.00 -1.00 -2.00  0.00  0.00  2.00  1.00 -1.00 -2.00  0.00  0.00
E_2g   2.00 -1.00 -1.00  2.00  0.00  0.00  2.00 -1.00 -1.00  2.00  0.00  0.00
A_1u   1.00  1.00  1.00  1.00  1.00  1.00 -1.00 -1.00 -1.00 -1.00 -1.00 -1.00
A_2u   1.00  1.00  1.00  1.00 -1.00 -1.00 -1.00 -1.00 -1.00 -1.00  1.00  1.00
B_1u   1.00 -1.00  1.00 -1.00  1.00 -1.00 -1.00  1.00 -1.00  1.00 -1.00  1.00
B_2u   1.00 -1.00  1.00 -1.00 -1.00  1.00 -1.00  1.00 -1.00  1.00  1.00 -1.00
E_1u   2.00  1.00 -1.00 -2.00  0.00  0.00 -2.00 -1.00  1.00  2.00  0.00  0.00
E_2u   2.00 -1.00 -1.00  2.00  0.00  0.00 -2.00  1.00  1.00 -2.00  0.00  0.00

     the symmetry operations in each class and the name of the first element:

     E        1
          identity                                               
     2C6      5    6
           60 deg rotation - cryst. axis [0,0,1]                 
     2C3      7    8
          120 deg rotation - cryst. axis [0,0,1]                 
     C2       2
          180 deg rotation - cart. axis [0,0,1]                  
     3C2'     4   12   11
          180 deg rotation - cart. axis [1,0,0]                  
     3C2''    3    9   10
          180 deg rotation - cart. axis [0,1,0]                  
     i       13
          inversion                                              
     2S3     17   18
          inv.  60 deg rotation - cryst. axis [0,0,1]            
     2S6     19   20
          inv. 120 deg rotation - cryst. axis [0,0,1]            
     s_h     14
          inv. 180 deg rotation - cart. axis [0,0,1]             
     3s_d    16   24   23
          inv. 180 deg rotation - cart. axis [1,0,0]             
     3s_v    15   21   22
          inv. 180 deg rotation - cart. axis [0,1,0]             

   Cartesian axes

     site n.     atom                  positions (alat units)
         1           Co  tau(   1) = (  -0.0000000   0.5773503   0.4082661  )
         2           Co  tau(   2) = (   0.5000000   0.2886751   1.2247984  )

   Crystallographic axes

     site n.     atom                  positions (cryst. coord.)
         1           Co  tau(   1) = (  0.3333333  0.6666667  0.2500000  )
         2           Co  tau(   2) = (  0.6666667  0.3333333  0.7500000  )

     number of k points=    76  Gaussian smearing, width (Ry)=  0.0010
                       cart. coord. in units 2pi/alat
        k(    1) = (   0.0000000   0.0000000   0.0000000), wk =   0.0011574
        k(    2) = (   0.0000000   0.0000000   0.1020576), wk =   0.0023148
        k(    3) = (   0.0000000   0.0000000   0.2041152), wk =   0.0023148
        k(    4) = (   0.0000000   0.0000000  -0.3061728), wk =   0.0011574
        k(    5) = (   0.0000000   0.0962250   0.0000000), wk =   0.0069444
        k(    6) = (   0.0000000   0.0962250   0.1020576), wk =   0.0138889
        k(    7) = (   0.0000000   0.0962250   0.2041152), wk =   0.0138889
        k(    8) = (   0.0000000   0.0962250  -0.3061728), wk =   0.0069444
        k(    9) = (   0.0000000   0.1924501   0.0000000), wk =   0.0069444
        k(   10) = (   0.0000000   0.1924501   0.1020576), wk =   0.0138889
        k(   11) = (   0.0000000   0.1924501   0.2041152), wk =   0.0138889
        k(   12) = (   0.0000000   0.1924501  -0.3061728), wk =   0.0069444
        k(   13) = (   0.0000000   0.2886751   0.0000000), wk =   0.0069444
        k(   14) = (   0.0000000   0.2886751   0.1020576), wk =   0.0138889
        k(   15) = (   0.0000000   0.2886751   0.2041152), wk =   0.0138889
        k(   16) = (   0.0000000   0.2886751  -0.3061728), wk =   0.0069444
        k(   17) = (   0.0000000   0.3849002   0.0000000), wk =   0.0069444
        k(   18) = (   0.0000000   0.3849002   0.1020576), wk =   0.0138889
        k(   19) = (   0.0000000   0.3849002   0.2041152), wk =   0.0138889
        k(   20) = (   0.0000000   0.3849002  -0.3061728), wk =   0.0069444
        k(   21) = (   0.0000000   0.4811252   0.0000000), wk =   0.0069444
        k(   22) = (   0.0000000   0.4811252   0.1020576), wk =   0.0138889
        k(   23) = (   0.0000000   0.4811252   0.2041152), wk =   0.0138889
        k(   24) = (   0.0000000   0.4811252  -0.3061728), wk =   0.0069444
        k(   25) = (   0.0000000  -0.5773503   0.0000000), wk =   0.0034722
        k(   26) = (   0.0000000  -0.5773503   0.1020576), wk =   0.0069444
        k(   27) = (   0.0000000  -0.5773503   0.2041152), wk =   0.0069444
        k(   28) = (   0.0000000  -0.5773503  -0.3061728), wk =   0.0034722
        k(   29) = (   0.0833333   0.1443376   0.0000000), wk =   0.0069444
        k(   30) = (   0.0833333   0.1443376   0.1020576), wk =   0.0138889
        k(   31) = (   0.0833333   0.1443376   0.2041152), wk =   0.0138889
        k(   32) = (   0.0833333   0.1443376  -0.3061728), wk =   0.0069444
        k(   33) = (   0.0833333   0.2405626   0.0000000), wk =   0.0138889
        k(   34) = (   0.0833333   0.2405626   0.1020576), wk =   0.0277778
        k(   35) = (   0.0833333   0.2405626   0.2041152), wk =   0.0277778
        k(   36) = (   0.0833333   0.2405626  -0.3061728), wk =   0.0138889
        k(   37) = (   0.0833333   0.3367877   0.0000000), wk =   0.0138889
        k(   38) = (   0.0833333   0.3367877   0.1020576), wk =   0.0277778
        k(   39) = (   0.0833333   0.3367877   0.2041152), wk =   0.0277778
        k(   40) = (   0.0833333   0.3367877  -0.3061728), wk =   0.0138889
        k(   41) = (   0.0833333   0.4330127   0.0000000), wk =   0.0138889
        k(   42) = (   0.0833333   0.4330127   0.1020576), wk =   0.0277778
        k(   43) = (   0.0833333   0.4330127   0.2041152), wk =   0.0277778
        k(   44) = (   0.0833333   0.4330127  -0.3061728), wk =   0.0138889
        k(   45) = (   0.0833333   0.5292377   0.0000000), wk =   0.0138889
        k(   46) = (   0.0833333   0.5292377   0.1020576), wk =   0.0277778
        k(   47) = (   0.0833333   0.5292377   0.2041152), wk =   0.0277778
        k(   48) = (   0.0833333   0.5292377  -0.3061728), wk =   0.0138889
        k(   49) = (   0.1666667   0.2886751   0.0000000), wk =   0.0069444
        k(   50) = (   0.1666667   0.2886751   0.1020576), wk =   0.0138889
        k(   51) = (   0.1666667   0.2886751   0.2041152), wk =   0.0138889
        k(   52) = (   0.1666667   0.2886751  -0.3061728), wk =   0.0069444
        k(   53) = (   0.1666667   0.3849002   0.0000000), wk =   0.0138889
        k(   54) = (   0.1666667   0.3849002   0.1020576), wk =   0.0277778
        k(   55) = (   0.1666667   0.3849002   0.2041152), wk =   0.0277778
        k(   56) = (   0.1666667   0.3849002  -0.3061728), wk =   0.0138889
        k(   57) = (   0.1666667   0.4811252   0.0000000), wk =   0.0138889
        k(   58) = (   0.1666667   0.4811252   0.1020576), wk =   0.0277778
        k(   59) = (   0.1666667   0.4811252   0.2041152), wk =   0.0277778
        k(   60) = (   0.1666667   0.4811252  -0.3061728), wk =   0.0138889
        k(   61) = (   0.1666667   0.5773503   0.0000000), wk =   0.0069444
        k(   62) = (   0.1666667   0.5773503   0.1020576), wk =   0.0138889
        k(   63) = (   0.1666667   0.5773503   0.2041152), wk =   0.0138889
        k(   64) = (   0.1666667   0.5773503  -0.3061728), wk =   0.0069444
        k(   65) = (   0.2500000   0.4330127   0.0000000), wk =   0.0069444
        k(   66) = (   0.2500000   0.4330127   0.1020576), wk =   0.0138889
        k(   67) = (   0.2500000   0.4330127   0.2041152), wk =   0.0138889
        k(   68) = (   0.2500000   0.4330127  -0.3061728), wk =   0.0069444
        k(   69) = (   0.2500000   0.5292377   0.0000000), wk =   0.0138889
        k(   70) = (   0.2500000   0.5292377   0.1020576), wk =   0.0277778
        k(   71) = (   0.2500000   0.5292377   0.2041152), wk =   0.0277778
        k(   72) = (   0.2500000   0.5292377  -0.3061728), wk =   0.0138889
        k(   73) = (   0.3333333   0.5773503   0.0000000), wk =   0.0023148
        k(   74) = (   0.3333333   0.5773503   0.1020576), wk =   0.0046296
        k(   75) = (   0.3333333   0.5773503   0.2041152), wk =   0.0046296
        k(   76) = (   0.3333333   0.5773503  -0.3061728), wk =   0.0023148

                       cryst. coord.
        k(    1) = (   0.0000000   0.0000000   0.0000000), wk =   0.0011574
        k(    2) = (   0.0000000   0.0000000   0.1666667), wk =   0.0023148
        k(    3) = (   0.0000000   0.0000000   0.3333333), wk =   0.0023148
        k(    4) = (   0.0000000   0.0000000  -0.5000000), wk =   0.0011574
        k(    5) = (   0.0000000   0.0833333   0.0000000), wk =   0.0069444
        k(    6) = (   0.0000000   0.0833333   0.1666667), wk =   0.0138889
        k(    7) = (   0.0000000   0.0833333   0.3333333), wk =   0.0138889
        k(    8) = (   0.0000000   0.0833333  -0.5000000), wk =   0.0069444
        k(    9) = (   0.0000000   0.1666667   0.0000000), wk =   0.0069444
        k(   10) = (   0.0000000   0.1666667   0.1666667), wk =   0.0138889
        k(   11) = (   0.0000000   0.1666667   0.3333333), wk =   0.0138889
        k(   12) = (   0.0000000   0.1666667  -0.5000000), wk =   0.0069444
        k(   13) = (   0.0000000   0.2500000   0.0000000), wk =   0.0069444
        k(   14) = (   0.0000000   0.2500000   0.1666667), wk =   0.0138889
        k(   15) = (   0.0000000   0.2500000   0.3333333), wk =   0.0138889
        k(   16) = (   0.0000000   0.2500000  -0.5000000), wk =   0.0069444
        k(   17) = (   0.0000000   0.3333333   0.0000000), wk =   0.0069444
        k(   18) = (   0.0000000   0.3333333   0.1666667), wk =   0.0138889
        k(   19) = (   0.0000000   0.3333333   0.3333333), wk =   0.0138889
        k(   20) = (   0.0000000   0.3333333  -0.5000000), wk =   0.0069444
        k(   21) = (   0.0000000   0.4166667   0.0000000), wk =   0.0069444
        k(   22) = (   0.0000000   0.4166667   0.1666667), wk =   0.0138889
        k(   23) = (   0.0000000   0.4166667   0.3333333), wk =   0.0138889
        k(   24) = (   0.0000000   0.4166667  -0.5000000), wk =   0.0069444
        k(   25) = (   0.0000000  -0.5000000   0.0000000), wk =   0.0034722
        k(   26) = (   0.0000000  -0.5000000   0.1666667), wk =   0.0069444
        k(   27) = (   0.0000000  -0.5000000   0.3333333), wk =   0.0069444
        k(   28) = (   0.0000000  -0.5000000  -0.5000000), wk =   0.0034722
        k(   29) = (   0.0833333   0.0833333   0.0000000), wk =   0.0069444
        k(   30) = (   0.0833333   0.0833333   0.1666667), wk =   0.0138889
        k(   31) = (   0.0833333   0.0833333   0.3333333), wk =   0.0138889
        k(   32) = (   0.0833333   0.0833333  -0.5000000), wk =   0.0069444
        k(   33) = (   0.0833333   0.1666667   0.0000000), wk =   0.0138889
        k(   34) = (   0.0833333   0.1666667   0.1666667), wk =   0.0277778
        k(   35) = (   0.0833333   0.1666667   0.3333333), wk =   0.0277778
        k(   36) = (   0.0833333   0.1666667  -0.5000000), wk =   0.0138889
        k(   37) = (   0.0833333   0.2500000   0.0000000), wk =   0.0138889
        k(   38) = (   0.0833333   0.2500000   0.1666667), wk =   0.0277778
        k(   39) = (   0.0833333   0.2500000   0.3333333), wk =   0.0277778
        k(   40) = (   0.0833333   0.2500000  -0.5000000), wk =   0.0138889
        k(   41) = (   0.0833333   0.3333333   0.0000000), wk =   0.0138889
        k(   42) = (   0.0833333   0.3333333   0.1666667), wk =   0.0277778
        k(   43) = (   0.0833333   0.3333333   0.3333333), wk =   0.0277778
        k(   44) = (   0.0833333   0.3333333  -0.5000000), wk =   0.0138889
        k(   45) = (   0.0833333   0.4166667   0.0000000), wk =   0.0138889
        k(   46) = (   0.0833333   0.4166667   0.1666667), wk =   0.0277778
        k(   47) = (   0.0833333   0.4166667   0.3333333), wk =   0.0277778
        k(   48) = (   0.0833333   0.4166667  -0.5000000), wk =   0.0138889
        k(   49) = (   0.1666667   0.1666667   0.0000000), wk =   0.0069444
        k(   50) = (   0.1666667   0.1666667   0.1666667), wk =   0.0138889
        k(   51) = (   0.1666667   0.1666667   0.3333333), wk =   0.0138889
        k(   52) = (   0.1666667   0.1666667  -0.5000000), wk =   0.0069444
        k(   53) = (   0.1666667   0.2500000   0.0000000), wk =   0.0138889
        k(   54) = (   0.1666667   0.2500000   0.1666667), wk =   0.0277778
        k(   55) = (   0.1666667   0.2500000   0.3333333), wk =   0.0277778
        k(   56) = (   0.1666667   0.2500000  -0.5000000), wk =   0.0138889
        k(   57) = (   0.1666667   0.3333333   0.0000000), wk =   0.0138889
        k(   58) = (   0.1666667   0.3333333   0.1666667), wk =   0.0277778
        k(   59) = (   0.1666667   0.3333333   0.3333333), wk =   0.0277778
        k(   60) = (   0.1666667   0.3333333  -0.5000000), wk =   0.0138889
        k(   61) = (   0.1666667   0.4166667   0.0000000), wk =   0.0069444
        k(   62) = (   0.1666667   0.4166667   0.1666667), wk =   0.0138889
        k(   63) = (   0.1666667   0.4166667   0.3333333), wk =   0.0138889
        k(   64) = (   0.1666667   0.4166667  -0.5000000), wk =   0.0069444
        k(   65) = (   0.2500000   0.2500000   0.0000000), wk =   0.0069444
        k(   66) = (   0.2500000   0.2500000   0.1666667), wk =   0.0138889
        k(   67) = (   0.2500000   0.2500000   0.3333333), wk =   0.0138889
        k(   68) = (   0.2500000   0.2500000  -0.5000000), wk =   0.0069444
        k(   69) = (   0.2500000   0.3333333   0.0000000), wk =   0.0138889
        k(   70) = (   0.2500000   0.3333333   0.1666667), wk =   0.0277778
        k(   71) = (   0.2500000   0.3333333   0.3333333), wk =   0.0277778
        k(   72) = (   0.2500000   0.3333333  -0.5000000), wk =   0.0138889
        k(   73) = (   0.3333333   0.3333333   0.0000000), wk =   0.0023148
        k(   74) = (   0.3333333   0.3333333   0.1666667), wk =   0.0046296
        k(   75) = (   0.3333333   0.3333333   0.3333333), wk =   0.0046296
        k(   76) = (   0.3333333   0.3333333  -0.5000000), wk =   0.0023148

     Dense  grid:    23415 G-vectors     FFT dimensions: (  32,  32,  54)

     Smooth grid:    22695 G-vectors     FFT dimensions: (  32,  32,  54)

     Dynamical RAM for                 wfc:       0.05 MB

     Dynamical RAM for     wfc (w. buffer):       6.91 MB

     Dynamical RAM for           str. fact:       0.02 MB

     Dynamical RAM for           local pot:       0.00 MB

     Dynamical RAM for          nlocal pot:       0.08 MB

     Dynamical RAM for                qrad:       1.70 MB

     Dynamical RAM for          rho,v,vnew:       0.25 MB

     Dynamical RAM for               rhoin:       0.08 MB

     Dynamical RAM for            rho*nmix:       0.57 MB

     Dynamical RAM for           G-vectors:       0.08 MB

     Dynamical RAM for          h,s,v(r/c):       0.08 MB

     Dynamical RAM for          <psi|beta>:       0.01 MB

     Dynamical RAM for                 psi:       0.09 MB

     Dynamical RAM for                hpsi:       0.09 MB

     Dynamical RAM for                spsi:       0.09 MB

     Dynamical RAM for      wfcinit/wfcrot:       0.10 MB

     Dynamical RAM for           addusdens:       3.38 MB

     Estimated static dynamical RAM per process >       9.29 MB

     Estimated max dynamical RAM per process >      13.25 MB

     Estimated total dynamical RAM >     264.98 MB

     Check: negative core charge=   -0.000043
     Generating pointlists ...
     new r_m :   0.4125 (alat units)  1.9332 (a.u.) for type    1

     The initial density is read from file :
     ./out/Co.save/charge-density


     starting charge      34.0420, renormalised to      34.0000

     negative rho (up, down):  9.813E-02 7.668E-02
     Starting wfcs from file
     Checking if some PAW data can be deallocated... 

     total cpu time spent up to now is        0.6 secs

     Self-consistent Calculation

     iteration #  1     ecut=   110.00 Ry     beta= 0.70
     Davidson diagonalization with overlap

---- Real-time Memory Report at c_bands before calling an iterative solver
            56 MiB given to the printing process from OS
             0 MiB allocation reported by mallinfo(arena+hblkhd)
        352324 MiB available memory on the node where the printing process lives
------------------
     c_bands:  2 eigenvalues not converged
     c_bands:  2 eigenvalues not converged
     c_bands:  1 eigenvalues not converged
     c_bands:  1 eigenvalues not converged
     c_bands:  2 eigenvalues not converged
     c_bands:  1 eigenvalues not converged
     c_bands:  2 eigenvalues not converged
     c_bands:  1 eigenvalues not converged
     c_bands:  3 eigenvalues not converged
     c_bands:  2 eigenvalues not converged
     c_bands:  1 eigenvalues not converged
     c_bands:  1 eigenvalues not converged
     c_bands:  1 eigenvalues not converged
     ethr =  1.00E-05,  avg # of iterations = 19.0

     negative rho (up, down):  1.448E-03 9.985E-04

     total cpu time spent up to now is        9.2 secs

     total energy              =    -753.29983582 Ry
     estimated scf accuracy    <       0.04563731 Ry

     total magnetization       =     3.38 Bohr mag/cell
     absolute magnetization    =     3.66 Bohr mag/cell

     iteration #  2     ecut=   110.00 Ry     beta= 0.70
     Davidson diagonalization with overlap

---- Real-time Memory Report at c_bands before calling an iterative solver
            78 MiB given to the printing process from OS
             0 MiB allocation reported by mallinfo(arena+hblkhd)
        352113 MiB available memory on the node where the printing process lives
------------------
     ethr =  1.34E-04,  avg # of iterations =  2.3

     total cpu time spent up to now is       10.7 secs

     total energy              =    -753.40749761 Ry
     estimated scf accuracy    <       0.01962097 Ry

     total magnetization       =     3.31 Bohr mag/cell
     absolute magnetization    =     3.56 Bohr mag/cell

     iteration #  3     ecut=   110.00 Ry     beta= 0.70
     Davidson diagonalization with overlap

---- Real-time Memory Report at c_bands before calling an iterative solver
            79 MiB given to the printing process from OS
             0 MiB allocation reported by mallinfo(arena+hblkhd)
        352101 MiB available memory on the node where the printing process lives
------------------
     ethr =  5.77E-05,  avg # of iterations =  4.8

     total cpu time spent up to now is       12.9 secs

     total energy              =    -753.45293546 Ry
     estimated scf accuracy    <       0.04414668 Ry

     total magnetization       =     3.36 Bohr mag/cell
     absolute magnetization    =     3.66 Bohr mag/cell

     iteration #  4     ecut=   110.00 Ry     beta= 0.70
     Davidson diagonalization with overlap

---- Real-time Memory Report at c_bands before calling an iterative solver
            80 MiB given to the printing process from OS
             0 MiB allocation reported by mallinfo(arena+hblkhd)
        352086 MiB available memory on the node where the printing process lives
------------------
     ethr =  5.77E-05,  avg # of iterations =  2.0

     total cpu time spent up to now is       14.3 secs

     total energy              =    -753.45178935 Ry
     estimated scf accuracy    <       0.01117308 Ry

     total magnetization       =     3.36 Bohr mag/cell
     absolute magnetization    =     3.65 Bohr mag/cell

     iteration #  5     ecut=   110.00 Ry     beta= 0.70
     Davidson diagonalization with overlap

---- Real-time Memory Report at c_bands before calling an iterative solver
            81 MiB given to the printing process from OS
             0 MiB allocation reported by mallinfo(arena+hblkhd)
        352077 MiB available memory on the node where the printing process lives
------------------
     ethr =  3.29E-05,  avg # of iterations =  4.1

     total cpu time spent up to now is       16.0 secs

     total energy              =    -753.45478148 Ry
     estimated scf accuracy    <       0.00008968 Ry

     total magnetization       =     3.33 Bohr mag/cell
     absolute magnetization    =     3.64 Bohr mag/cell

     iteration #  6     ecut=   110.00 Ry     beta= 0.70
     Davidson diagonalization with overlap

---- Real-time Memory Report at c_bands before calling an iterative solver
            83 MiB given to the printing process from OS
             0 MiB allocation reported by mallinfo(arena+hblkhd)
        352069 MiB available memory on the node where the printing process lives
------------------
     ethr =  2.64E-07,  avg # of iterations =  7.6

     total cpu time spent up to now is       18.7 secs

     total energy              =    -753.45503538 Ry
     estimated scf accuracy    <       0.00002238 Ry

     total magnetization       =     3.34 Bohr mag/cell
     absolute magnetization    =     3.64 Bohr mag/cell

     iteration #  7     ecut=   110.00 Ry     beta= 0.70
     Davidson diagonalization with overlap

---- Real-time Memory Report at c_bands before calling an iterative solver
            83 MiB given to the printing process from OS
             0 MiB allocation reported by mallinfo(arena+hblkhd)
        352063 MiB available memory on the node where the printing process lives
------------------
     ethr =  6.58E-08,  avg # of iterations =  5.0

     total cpu time spent up to now is       20.6 secs

     total energy              =    -753.45504828 Ry
     estimated scf accuracy    <       0.00004346 Ry

     total magnetization       =     3.34 Bohr mag/cell
     absolute magnetization    =     3.65 Bohr mag/cell

     iteration #  8     ecut=   110.00 Ry     beta= 0.70
     Davidson diagonalization with overlap

---- Real-time Memory Report at c_bands before calling an iterative solver
            84 MiB given to the printing process from OS
             0 MiB allocation reported by mallinfo(arena+hblkhd)
        352057 MiB available memory on the node where the printing process lives
------------------
     ethr =  6.58E-08,  avg # of iterations =  1.8

     total cpu time spent up to now is       21.9 secs

     total energy              =    -753.45504250 Ry
     estimated scf accuracy    <       0.00001890 Ry

     total magnetization       =     3.35 Bohr mag/cell
     absolute magnetization    =     3.66 Bohr mag/cell

     iteration #  9     ecut=   110.00 Ry     beta= 0.70
     Davidson diagonalization with overlap

---- Real-time Memory Report at c_bands before calling an iterative solver
            85 MiB given to the printing process from OS
             0 MiB allocation reported by mallinfo(arena+hblkhd)
        352051 MiB available memory on the node where the printing process lives
------------------
     ethr =  5.56E-08,  avg # of iterations =  3.4

     total cpu time spent up to now is       23.7 secs

     total energy              =    -753.45505248 Ry
     estimated scf accuracy    <       0.00000404 Ry

     total magnetization       =     3.35 Bohr mag/cell
     absolute magnetization    =     3.66 Bohr mag/cell

     iteration # 10     ecut=   110.00 Ry     beta= 0.70
     Davidson diagonalization with overlap

---- Real-time Memory Report at c_bands before calling an iterative solver
            86 MiB given to the printing process from OS
             0 MiB allocation reported by mallinfo(arena+hblkhd)
        352044 MiB available memory on the node where the printing process lives
------------------
     ethr =  1.19E-08,  avg # of iterations =  4.9

     total cpu time spent up to now is       25.7 secs

     total energy              =    -753.45505087 Ry
     estimated scf accuracy    <       0.00001243 Ry

     total magnetization       =     3.35 Bohr mag/cell
     absolute magnetization    =     3.66 Bohr mag/cell

     iteration # 11     ecut=   110.00 Ry     beta= 0.70
     Davidson diagonalization with overlap

---- Real-time Memory Report at c_bands before calling an iterative solver
            86 MiB given to the printing process from OS
             0 MiB allocation reported by mallinfo(arena+hblkhd)
        352037 MiB available memory on the node where the printing process lives
------------------
     ethr =  1.19E-08,  avg # of iterations =  2.1

     total cpu time spent up to now is       27.0 secs

     total energy              =    -753.45505100 Ry
     estimated scf accuracy    <       0.00000314 Ry

     total magnetization       =     3.35 Bohr mag/cell
     absolute magnetization    =     3.66 Bohr mag/cell

     iteration # 12     ecut=   110.00 Ry     beta= 0.70
     Davidson diagonalization with overlap

---- Real-time Memory Report at c_bands before calling an iterative solver
            86 MiB given to the printing process from OS
             0 MiB allocation reported by mallinfo(arena+hblkhd)
        352035 MiB available memory on the node where the printing process lives
------------------
     ethr =  9.24E-09,  avg # of iterations =  2.2
 
     Magnetic moment per site  (integrated on atomic sphere of radius R)
     atom   1 (R=0.413)  charge= 15.6019  magn=  1.7472
     atom   2 (R=0.413)  charge= 15.6019  magn=  1.7472

     total cpu time spent up to now is       28.4 secs

     End of self-consistent calculation

 ------ SPIN UP ------------


          k = 0.0000 0.0000 0.0000 (  2803 PWs)   bands (ev):

   -77.3322 -77.2766 -40.7365 -40.4319 -40.4319 -40.4110 -40.3860 -40.3860
     9.7788  13.5758  16.0968  16.1806  16.1806  16.4862  16.4862  16.8592
    16.8592  17.9386  17.9386  18.4619  25.0131

     occupation numbers 
     1.0000   1.0000   1.0000   1.0000   1.0000   1.0000   1.0000   1.0000
     1.0000   1.0000   1.0000   1.0000   1.0000   1.0000   1.0000   1.0000
     1.0000   1.0000   1.0000   1.0000   0.0000

          k = 0.0000 0.0000 0.1021 (  2839 PWs)   bands (ev):

   -77.3285 -77.2804 -40.7150 -40.4331 -40.4288 -40.4288 -40.3891 -40.3891
    10.0534  13.5017  16.0278  16.1208  16.1208  16.4157  16.4157  17.0151
    17.0151  17.5264  17.9208  17.9208  26.5142

     occupation numbers 
     1.0000   1.0000   1.0000   1.0000   1.0000   1.0000   1.0000   1.0000
     1.0000   1.0000   1.0000   1.0000   1.0000   1.0000   1.0000   1.0000
     1.0000   1.0000   1.0000   1.0000   0.0000

          k = 0.0000 0.0000 0.2041 (  2834 PWs)   bands (ev):

   -77.3183 -77.2905 -40.6560 -40.4932 -40.4204 -40.4204 -40.3975 -40.3975
    10.8410  13.0529  15.8688  16.0695  16.0695  16.2361  16.2596  16.2596
    17.3272  17.3272  17.8316  17.8316  29.6975

     occupation numbers 
     1.0000   1.0000   1.0000   1.0000   1.0000   1.0000   1.0000   1.0000
     1.0000   1.0000   1.0000   1.0000   1.0000   1.0000   1.0000   1.0000
     1.0000   1.0000   1.0000   1.0000   0.0000

          k = 0.0000 0.0000-0.3062 (  2834 PWs)   bands (ev):

   -77.3045 -77.3045 -40.5749 -40.5749 -40.4090 -40.4090 -40.4090 -40.4090
    11.9894  11.9894  15.7941  15.7941  16.1201  16.1201  16.1201  16.1201
    17.6277  17.6277  17.6277  17.6277  33.5038

     occupation numbers 
     1.0000   1.0000   1.0000   1.0000   1.0000   1.0000   1.0000   1.0000
     1.0000   1.0000   1.0000   1.0000   1.0000   1.0000   1.0000   1.0000
     1.0000   1.0000   1.0000   1.0000   0.0000

          k = 0.0000 0.0962 0.0000 (  2825 PWs)   bands (ev):

   -77.3289 -77.2750 -40.7294 -40.4483 -40.4372 -40.4138 -40.4030 -40.3888
    10.0232  13.7251  15.9235  16.2964  16.3188  16.4350  16.5894  16.6895
    16.7877  17.1075  17.9679  19.6255  25.0528

     occupation numbers 
     1.0000   1.0000   1.0000   1.0000   1.0000   1.0000   1.0000   1.0000
     1.0000   1.0000   1.0000   1.0000   1.0000   1.0000   1.0000   1.0000
     1.0000   1.0000   1.0000   0.0000   0.0000

          k = 0.0000 0.0962 0.1021 (  2830 PWs)   bands (ev):

   -77.3253 -77.2786 -40.7090 -40.4450 -40.4392 -40.4339 -40.4018 -40.3920
    10.2936  13.6654  15.9228  16.1513  16.2208  16.2528  16.5130  16.7810
    16.9695  17.0370  17.9429  18.8750  26.6237

     occupation numbers 
     1.0000   1.0000   1.0000   1.0000   1.0000   1.0000   1.0000   1.0000
     1.0000   1.0000   1.0000   1.0000   1.0000   1.0000   1.0000   1.0000
     1.0000   1.0000   1.0000   0.0000   0.0000

          k = 0.0000 0.0962 0.2041 (  2845 PWs)   bands (ev):

   -77.3154 -77.2885 -40.6532 -40.4985 -40.4351 -40.4251 -40.4094 -40.4009
    11.0687  13.2443  15.8070  15.8538  15.9880  16.1623  16.3554  16.3984
    17.3008  17.3440  17.8373  18.1287  29.8528

     occupation numbers 
     1.0000   1.0000   1.0000   1.0000   1.0000   1.0000   1.0000   1.0000
     1.0000   1.0000   1.0000   1.0000   1.0000   1.0000   1.0000   1.0000
     1.0000   1.0000   1.0000   1.0000   0.0000

          k = 0.0000 0.0962-0.3062 (  2842 PWs)   bands (ev):

   -77.3020 -77.3020 -40.5763 -40.5763 -40.4220 -40.4220 -40.4130 -40.4130
    12.1987  12.1987  15.6578  15.6578  16.1231  16.1231  16.2141  16.2141
    17.6162  17.6162  17.7183  17.7183  33.6747

     occupation numbers 
     1.0000   1.0000   1.0000   1.0000   1.0000   1.0000   1.0000   1.0000
     1.0000   1.0000   1.0000   1.0000   1.0000   1.0000   1.0000   1.0000
     1.0000   1.0000   1.0000   1.0000   0.0000

          k = 0.0000 0.1925 0.0000 (  2829 PWs)   bands (ev):

   -77.3197 -77.2707 -40.7089 -40.4934 -40.4513 -40.4490 -40.4223 -40.3968
    10.7299  14.0946  15.6590  15.9197  16.2478  16.6115  16.6234  16.6236
    16.7766  16.8786  18.0295  21.2260  25.1934

     occupation numbers 
     1.0000   1.0000   1.0000   1.0000   1.0000   1.0000   1.0000   1.0000
     1.0000   1.0000   1.0000   1.0000   1.0000   1.0000   1.0000   1.0000
     1.0000   1.0000   1.0000   0.0000   0.0000

          k = 0.0000 0.1925 0.1021 (  2824 PWs)   bands (ev):

   -77.3164 -77.2740 -40.6924 -40.4886 -40.4693 -40.4477 -40.4238 -40.4004
    10.9842  14.0793  15.6485  15.7001  16.1266  16.4394  16.5106  16.7657
    16.9457  17.0231  17.9887  20.1070  26.9808

     occupation numbers 
     1.0000   1.0000   1.0000   1.0000   1.0000   1.0000   1.0000   1.0000
     1.0000   1.0000   1.0000   1.0000   1.0000   1.0000   1.0000   1.0000
     1.0000   1.0000   1.0000   0.0000   0.0000

          k = 0.0000 0.1925 0.2041 (  2832 PWs)   bands (ev):

   -77.3075 -77.2830 -40.6471 -40.5205 -40.4725 -40.4377 -40.4347 -40.4104
    11.7100  13.7396  15.3131  15.7590  15.8443  16.3366  16.3894  16.6205
    17.2727  17.4261  17.8492  18.7715  30.3179

     occupation numbers 
     1.0000   1.0000   1.0000   1.0000   1.0000   1.0000   1.0000   1.0000
     1.0000   1.0000   1.0000   1.0000   1.0000   1.0000   1.0000   1.0000
     1.0000   1.0000   1.0000   0.9885   0.0000

          k = 0.0000 0.1925-0.3062 (  2846 PWs)   bands (ev):

   -77.2952 -77.2952 -40.5845 -40.5845 -40.4531 -40.4531 -40.4241 -40.4241
    12.7618  12.7618  15.4331  15.4331  16.0575  16.0575  16.4644  16.4644
    17.5996  17.5996  17.9629  17.9629  34.1455

     occupation numbers 
     1.0000   1.0000   1.0000   1.0000   1.0000   1.0000   1.0000   1.0000
     1.0000   1.0000   1.0000   1.0000   1.0000   1.0000   1.0000   1.0000
     1.0000   1.0000   1.0000   1.0000   0.0000

          k = 0.0000 0.2887 0.0000 (  2824 PWs)   bands (ev):

   -77.3067 -77.2653 -40.6783 -40.5555 -40.5109 -40.4701 -40.4367 -40.4081
    11.7982  14.3909  15.1913  15.4990  16.1419  16.3996  16.5693  17.0611
    17.0984  17.2942  18.0865  23.0246  25.4690

     occupation numbers 
     1.0000   1.0000   1.0000   1.0000   1.0000   1.0000   1.0000   1.0000
     1.0000   1.0000   1.0000   1.0000   1.0000   1.0000   1.0000   1.0000
     1.0000   1.0000   1.0000   0.0000   0.0000

          k = 0.0000 0.2887 0.1021 (  2818 PWs)   bands (ev):

   -77.3039 -77.2681 -40.6705 -40.5464 -40.5250 -40.4660 -40.4396 -40.4123
    12.0093  14.4288  15.0502  15.5512  15.9924  16.4388  16.5689  17.1393
    17.1878  17.2514  18.0322  21.3885  27.6244

     occupation numbers 
     1.0000   1.0000   1.0000   1.0000   1.0000   1.0000   1.0000   1.0000
     1.0000   1.0000   1.0000   1.0000   1.0000   1.0000   1.0000   1.0000
     1.0000   1.0000   1.0000   0.0000   0.0000

          k = 0.0000 0.2887 0.2041 (  2843 PWs)   bands (ev):

   -77.2963 -77.2757 -40.6470 -40.5673 -40.5138 -40.4547 -40.4538 -40.4237
    12.5975  14.1776  14.9821  15.5720  15.8730  16.4112  16.5615  16.9929
    17.3982  17.5824  17.8754  19.5438  30.9766

     occupation numbers 
     1.0000   1.0000   1.0000   1.0000   1.0000   1.0000   1.0000   1.0000
     1.0000   1.0000   1.0000   1.0000   1.0000   1.0000   1.0000   1.0000
     1.0000   1.0000   1.0000   0.0000   0.0000

          k = 0.0000 0.2887-0.3062 (  2854 PWs)   bands (ev):

   -77.2860 -77.2860 -40.6101 -40.6101 -40.4810 -40.4810 -40.4392 -40.4392
    13.4130  13.4130  15.2774  15.2774  16.1187  16.1187  16.7609  16.7609
    17.6447  17.6447  18.3071  18.3071  33.2723

     occupation numbers 
     1.0000   1.0000   1.0000   1.0000   1.0000   1.0000   1.0000   1.0000
     1.0000   1.0000   1.0000   1.0000   1.0000   1.0000   1.0000   1.0000
     1.0000   1.0000   1.0000   1.0000   0.0000

          k = 0.0000 0.3849 0.0000 (  2834 PWs)   bands (ev):

   -77.2927 -77.2608 -40.6424 -40.6181 -40.5717 -40.4885 -40.4561 -40.4199
    12.9622  14.3211  14.6680  15.6116  16.2086  16.2651  16.3793  17.6053
    17.7443  17.7647  18.1245  24.9840  25.5692

     occupation numbers 
     1.0000   1.0000   1.0000   1.0000   1.0000   1.0000   1.0000   1.0000
     1.0000   1.0000   1.0000   1.0000   1.0000   1.0000   1.0000   1.0000
     1.0000   1.0000   1.0000   0.0000   0.0000

          k = 0.0000 0.3849 0.1021 (  2840 PWs)   bands (ev):

   -77.2906 -77.2630 -40.6608 -40.5955 -40.5758 -40.4839 -40.4564 -40.4245
    13.0584  14.3458  14.7071  15.4573  16.1966  16.3005  16.7308  17.6191
    17.6538  17.7007  18.0765  22.6335  27.7947

     occupation numbers 
     1.0000   1.0000   1.0000   1.0000   1.0000   1.0000   1.0000   1.0000
     1.0000   1.0000   1.0000   1.0000   1.0000   1.0000   1.0000   1.0000
     1.0000   1.0000   1.0000   0.0000   0.0000

          k = 0.0000 0.3849 0.2041 (  2827 PWs)   bands (ev):

   -77.2848 -77.2688 -40.6671 -40.6223 -40.5334 -40.4714 -40.4655 -40.4371
    13.3302  14.1585  14.8546  15.3582  16.3113  16.5596  17.0486  17.3324
    17.7244  17.8134  17.9691  20.4344  28.9560

     occupation numbers 
     1.0000   1.0000   1.0000   1.0000   1.0000   1.0000   1.0000   1.0000
     1.0000   1.0000   1.0000   1.0000   1.0000   1.0000   1.0000   1.0000
     1.0000   1.0000   1.0000   0.0000   0.0000

          k = 0.0000 0.3849-0.3062 (  2844 PWs)   bands (ev):

   -77.2768 -77.2768 -40.6523 -40.6523 -40.4919 -40.4919 -40.4542 -40.4542
    13.7312  13.7312  15.1423  15.1423  16.7294  16.7294  16.9340  16.9340
    17.8430  17.8430  18.7904  18.7904  30.0654

     occupation numbers 
     1.0000   1.0000   1.0000   1.0000   1.0000   1.0000   1.0000   1.0000
     1.0000   1.0000   1.0000   1.0000   1.0000   1.0000   1.0000   1.0000
     1.0000   1.0000   0.6204   0.6204   0.0000

          k = 0.0000 0.4811 0.0000 (  2846 PWs)   bands (ev):

   -77.2814 -77.2587 -40.6642 -40.6155 -40.6094 -40.5017 -40.4772 -40.4286
    13.7243  14.1303  14.3563  15.9729  16.0781  16.2442  16.4752  17.9854
    18.1160  18.1441  18.8985  23.8210  27.0074

     occupation numbers 
     1.0000   1.0000   1.0000   1.0000   1.0000   1.0000   1.0000   1.0000
     1.0000   1.0000   1.0000   1.0000   1.0000   1.0000   1.0000   1.0000
     1.0000   1.0000   0.0000   0.0000   0.0000

          k = 0.0000 0.4811 0.1021 (  2829 PWs)   bands (ev):

   -77.2798 -77.2602 -40.6823 -40.6325 -40.5777 -40.4968 -40.4736 -40.4335
    13.6120  14.1207  14.6724  15.3471  16.1900  16.4819  17.0927  17.9000
    18.0139  18.1733  18.7374  23.0062  26.3973

     occupation numbers 
     1.0000   1.0000   1.0000   1.0000   1.0000   1.0000   1.0000   1.0000
     1.0000   1.0000   1.0000   1.0000   1.0000   1.0000   1.0000   1.0000
     1.0000   1.0000   1.0000   0.0000   0.0000

          k = 0.0000 0.4811 0.2041 (  2833 PWs)   bands (ev):

   -77.2757 -77.2643 -40.6965 -40.6639 -40.5309 -40.4835 -40.4747 -40.4470
    13.5761  14.0463  14.8389  15.1557  16.5072  16.7436  17.4847  18.0470
    18.0639  18.1474  18.4134  21.2791  26.5634

     occupation numbers 
     1.0000   1.0000   1.0000   1.0000   1.0000   1.0000   1.0000   1.0000
     1.0000   1.0000   1.0000   1.0000   1.0000   1.0000   1.0000   1.0000
     1.0000   1.0000   1.0000   0.0000   0.0000

          k = 0.0000 0.4811-0.3062 (  2834 PWs)   bands (ev):

   -77.2700 -77.2700 -40.6893 -40.6893 -40.4936 -40.4936 -40.4652 -40.4652
    13.7574  13.7574  15.0162  15.0162  16.9726  16.9726  17.4588  17.4588
    18.0983  18.0983  19.6295  19.6295  27.3379

     occupation numbers 
     1.0000   1.0000   1.0000   1.0000   1.0000   1.0000   1.0000   1.0000
     1.0000   1.0000   1.0000   1.0000   1.0000   1.0000   1.0000   1.0000
     1.0000   1.0000   0.0000   0.0000   0.0000

          k = 0.0000-0.5774 0.0000 (  2838 PWs)   bands (ev):

   -77.2766 -77.2584 -40.6811 -40.6314 -40.5940 -40.5065 -40.4882 -40.4319
    13.9770  13.9926  14.2530  16.0320  16.1954  16.2263  16.5501  18.1230
    18.1499  18.2664  20.0678  22.1015  28.3211

     occupation numbers 
     1.0000   1.0000   1.0000   1.0000   1.0000   1.0000   1.0000   1.0000
     1.0000   1.0000   1.0000   1.0000   1.0000   1.0000   1.0000   1.0000
     1.0000   1.0000   0.0000   0.0000   0.0000

          k = 0.0000-0.5774 0.1021 (  2834 PWs)   bands (ev):

   -77.2754 -77.2597 -40.6954 -40.6475 -40.5691 -40.5015 -40.4825 -40.4369
    13.7100  14.0249  14.7051  15.3185  16.1495  16.5682  17.2981  17.9515
    18.1591  18.2589  19.8543  21.9178  27.4849

     occupation numbers 
     1.0000   1.0000   1.0000   1.0000   1.0000   1.0000   1.0000   1.0000
     1.0000   1.0000   1.0000   1.0000   1.0000   1.0000   1.0000   1.0000
     1.0000   1.0000   0.0000   0.0000   0.0000

          k = 0.0000-0.5774 0.2041 (  2852 PWs)   bands (ev):

   -77.2721 -77.2630 -40.7093 -40.6791 -40.5266 -40.4879 -40.4792 -40.4506
    13.5949  14.0021  14.8659  15.0618  16.4834  16.8861  17.5151  18.1806
    18.1833  18.2382  19.5180  21.3037  26.4478

     occupation numbers 
     1.0000   1.0000   1.0000   1.0000   1.0000   1.0000   1.0000   1.0000
     1.0000   1.0000   1.0000   1.0000   1.0000   1.0000   1.0000   1.0000
     1.0000   1.0000   0.0000   0.0000   0.0000

          k = 0.0000-0.5774-0.3062 (  2848 PWs)   bands (ev):

   -77.2675 -77.2675 -40.7037 -40.7037 -40.4934 -40.4934 -40.4693 -40.4693
    13.7406  13.7406  14.9671  14.9671  16.9743  16.9743  17.6996  17.6996
    18.2096  18.2096  20.2903  20.2903  26.0737

     occupation numbers 
     1.0000   1.0000   1.0000   1.0000   1.0000   1.0000   1.0000   1.0000
     1.0000   1.0000   1.0000   1.0000   1.0000   1.0000   1.0000   1.0000
     1.0000   1.0000   0.0000   0.0000   0.0000

          k = 0.0833 0.1443 0.0000 (  2831 PWs)   bands (ev):

   -77.3226 -77.2721 -40.7156 -40.4764 -40.4543 -40.4277 -40.4195 -40.3963
    10.4996  13.9905  15.7154  16.1688  16.3259  16.4683  16.5329  16.5755
    16.8152  16.9057  18.0026  20.7785  25.1449

     occupation numbers 
     1.0000   1.0000   1.0000   1.0000   1.0000   1.0000   1.0000   1.0000
     1.0000   1.0000   1.0000   1.0000   1.0000   1.0000   1.0000   1.0000
     1.0000   1.0000   1.0000   0.0000   0.0000

          k = 0.0833 0.1443 0.1021 (  2835 PWs)   bands (ev):

   -77.3192 -77.2755 -40.6977 -40.4718 -40.4616 -40.4433 -40.4161 -40.3998
    10.7601  13.9608  15.7437  15.8369  16.1727  16.3891  16.4902  16.6801
    16.9600  17.0223  17.9696  19.7728  26.8591

     occupation numbers 
     1.0000   1.0000   1.0000   1.0000   1.0000   1.0000   1.0000   1.0000
     1.0000   1.0000   1.0000   1.0000   1.0000   1.0000   1.0000   1.0000
     1.0000   1.0000   1.0000   0.0000   0.0000

          k = 0.0833 0.1443 0.2041 (  2834 PWs)   bands (ev):

   -77.3100 -77.2847 -40.6486 -40.5120 -40.4594 -40.4391 -40.4227 -40.4092
    11.5050  13.5943  15.4366  15.8048  15.8570  16.3100  16.3624  16.5389
    17.3021  17.3738  17.8481  18.5854  30.1658

     occupation numbers 
     1.0000   1.0000   1.0000   1.0000   1.0000   1.0000   1.0000   1.0000
     1.0000   1.0000   1.0000   1.0000   1.0000   1.0000   1.0000   1.0000
     1.0000   1.0000   1.0000   1.0000   0.0000

          k = 0.0833 0.1443-0.3062 (  2832 PWs)   bands (ev):

   -77.2974 -77.2974 -40.5810 -40.5810 -40.4437 -40.4437 -40.4211 -40.4211
    12.5885  12.5885  15.4908  15.4908  16.0594  16.0594  16.3984  16.3984
    17.6049  17.6049  17.8867  17.8867  34.0049

     occupation numbers 
     1.0000   1.0000   1.0000   1.0000   1.0000   1.0000   1.0000   1.0000
     1.0000   1.0000   1.0000   1.0000   1.0000   1.0000   1.0000   1.0000
     1.0000   1.0000   1.0000   1.0000   0.0000

          k = 0.0833 0.2406 0.0000 (  2828 PWs)   bands (ev):

   -77.3115 -77.2672 -40.6899 -40.5261 -40.4974 -40.4557 -40.4310 -40.4092
    11.3958  14.3701  15.4463  15.4575  16.1926  16.3442  16.7302  16.7558
    16.9642  17.2397  18.0443  22.3763  25.3743

     occupation numbers 
     1.0000   1.0000   1.0000   1.0000   1.0000   1.0000   1.0000   1.0000
     1.0000   1.0000   1.0000   1.0000   1.0000   1.0000   1.0000   1.0000
     1.0000   1.0000   1.0000   0.0000   0.0000

          k = 0.0833 0.2406 0.1021 (  2822 PWs)   bands (ev):

   -77.3085 -77.2702 -40.6780 -40.5197 -40.5072 -40.4607 -40.4311 -40.4128
    11.6287  14.3993  15.2486  15.4969  16.0757  16.3470  16.5752  16.8784
    17.1518  17.2169  18.0065  20.9478  27.3809

     occupation numbers 
     1.0000   1.0000   1.0000   1.0000   1.0000   1.0000   1.0000   1.0000
     1.0000   1.0000   1.0000   1.0000   1.0000   1.0000   1.0000   1.0000
     1.0000   1.0000   1.0000   0.0000   0.0000

          k = 0.0833 0.2406 0.2041 (  2828 PWs)   bands (ev):

   -77.3005 -77.2783 -40.6446 -40.5473 -40.4968 -40.4606 -40.4379 -40.4228
    12.2869  14.1183  15.0659  15.6047  15.8044  16.2320  16.5375  16.8628
    17.3929  17.4992  17.8863  19.2761  30.7787

     occupation numbers 
     1.0000   1.0000   1.0000   1.0000   1.0000   1.0000   1.0000   1.0000
     1.0000   1.0000   1.0000   1.0000   1.0000   1.0000   1.0000   1.0000
     1.0000   1.0000   1.0000   0.0000   0.0000

          k = 0.0833 0.2406-0.3062 (  2832 PWs)   bands (ev):

   -77.2894 -77.2894 -40.5973 -40.5973 -40.4727 -40.4727 -40.4353 -40.4353
    13.2254  13.2254  15.3369  15.3369  15.9508  15.9508  16.6829  16.6829
    17.6504  17.6504  18.1841  18.1841  34.4380

     occupation numbers 
     1.0000   1.0000   1.0000   1.0000   1.0000   1.0000   1.0000   1.0000
     1.0000   1.0000   1.0000   1.0000   1.0000   1.0000   1.0000   1.0000
     1.0000   1.0000   1.0000   1.0000   0.0000

          k = 0.0833 0.3368 0.0000 (  2822 PWs)   bands (ev):

   -77.2980 -77.2623 -40.6564 -40.5868 -40.5504 -40.4818 -40.4481 -40.4231
    12.5498  14.4929  14.8842  15.3816  16.1519  16.1937  16.5504  17.1494
    17.4758  17.8153  18.0786  24.2173  25.7306

     occupation numbers 
     1.0000   1.0000   1.0000   1.0000   1.0000   1.0000   1.0000   1.0000
     1.0000   1.0000   1.0000   1.0000   1.0000   1.0000   1.0000   1.0000
     1.0000   1.0000   1.0000   0.0000   0.0000

          k = 0.0833 0.3368 0.1021 (  2831 PWs)   bands (ev):

   -77.2956 -77.2647 -40.6589 -40.5752 -40.5561 -40.4820 -40.4480 -40.4266
    12.7112  14.5522  14.7955  15.4277  15.9874  16.3816  16.5216  17.1806
    17.5615  17.6729  18.0930  22.2146  28.1345

     occupation numbers 
     1.0000   1.0000   1.0000   1.0000   1.0000   1.0000   1.0000   1.0000
     1.0000   1.0000   1.0000   1.0000   1.0000   1.0000   1.0000   1.0000
     1.0000   1.0000   1.0000   0.0000   0.0000

          k = 0.0833 0.3368 0.2041 (  2832 PWs)   bands (ev):

   -77.2891 -77.2712 -40.6533 -40.5983 -40.5265 -40.4780 -40.4543 -40.4366
    13.1484  14.2984  14.9141  15.4890  15.9070  16.3896  16.5998  17.1896
    17.6193  17.7856  18.0646  20.1340  30.5861

     occupation numbers 
     1.0000   1.0000   1.0000   1.0000   1.0000   1.0000   1.0000   1.0000
     1.0000   1.0000   1.0000   1.0000   1.0000   1.0000   1.0000   1.0000
     1.0000   1.0000   1.0000   0.0000   0.0000

          k = 0.0833 0.3368-0.3062 (  2844 PWs)   bands (ev):

   -77.2802 -77.2802 -40.6313 -40.6313 -40.4916 -40.4916 -40.4507 -40.4507
    13.7337  13.7337  15.2515  15.2515  16.1318  16.1318  16.8736  16.8736
    17.8593  17.8593  18.6455  18.6455  31.7854

     occupation numbers 
     1.0000   1.0000   1.0000   1.0000   1.0000   1.0000   1.0000   1.0000
     1.0000   1.0000   1.0000   1.0000   1.0000   1.0000   1.0000   1.0000
     1.0000   1.0000   1.0000   1.0000   0.0000

          k = 0.0833 0.4330 0.0000 (  2844 PWs)   bands (ev):

   -77.2852 -77.2592 -40.6407 -40.6210 -40.5964 -40.5026 -40.4694 -40.4350
    13.5628  14.3142  14.4981  15.6143  16.0318  16.3419  16.3894  17.6791
    17.9113  18.0991  18.6218  25.1342  26.2173

     occupation numbers 
     1.0000   1.0000   1.0000   1.0000   1.0000   1.0000   1.0000   1.0000
     1.0000   1.0000   1.0000   1.0000   1.0000   1.0000   1.0000   1.0000
     1.0000   1.0000   1.0000   0.0000   0.0000

          k = 0.0833 0.4330 0.1021 (  2833 PWs)   bands (ev):

   -77.2834 -77.2609 -40.6655 -40.6157 -40.5789 -40.4997 -40.4669 -40.4384
    13.5518  14.3300  14.6563  15.3604  16.1089  16.4294  16.6895  17.6287
    17.9210  17.9703  18.6198  23.3066  26.9519

     occupation numbers 
     1.0000   1.0000   1.0000   1.0000   1.0000   1.0000   1.0000   1.0000
     1.0000   1.0000   1.0000   1.0000   1.0000   1.0000   1.0000   1.0000
     1.0000   1.0000   1.0000   0.0000   0.0000

          k = 0.0833 0.4330 0.2041 (  2839 PWs)   bands (ev):

   -77.2787 -77.2657 -40.6789 -40.6446 -40.5343 -40.4902 -40.4699 -40.4472
    13.6283  14.1969  14.8457  15.3138  16.2159  16.6481  17.0876  17.3740
    17.8008  18.1216  18.6817  21.1635  27.6800

     occupation numbers 
     1.0000   1.0000   1.0000   1.0000   1.0000   1.0000   1.0000   1.0000
     1.0000   1.0000   1.0000   1.0000   1.0000   1.0000   1.0000   1.0000
     1.0000   1.0000   1.0000   0.0000   0.0000

          k = 0.0833 0.4330-0.3062 (  2832 PWs)   bands (ev):

   -77.2722 -77.2722 -40.6703 -40.6703 -40.5000 -40.5000 -40.4622 -40.4622
    13.8681  13.8681  15.1282  15.1282  16.6547  16.6547  17.0478  17.0478
    18.0703  18.0703  19.5017  19.5017  28.7129

     occupation numbers 
     1.0000   1.0000   1.0000   1.0000   1.0000   1.0000   1.0000   1.0000
     1.0000   1.0000   1.0000   1.0000   1.0000   1.0000   1.0000   1.0000
     1.0000   1.0000   0.0000   0.0000   0.0000

          k = 0.0833 0.5292 0.0000 (  2833 PWs)   bands (ev):

   -77.2767 -77.2584 -40.6719 -40.6230 -40.5942 -40.5142 -40.4881 -40.4420
    14.0107  14.1501  14.3056  15.9841  15.9928  16.1961  16.5480  18.0632
    18.1077  18.1407  19.9064  22.8741  28.1281

     occupation numbers 
     1.0000   1.0000   1.0000   1.0000   1.0000   1.0000   1.0000   1.0000
     1.0000   1.0000   1.0000   1.0000   1.0000   1.0000   1.0000   1.0000
     1.0000   1.0000   0.0000   0.0000   0.0000

          k = 0.0833 0.5292 0.1021 (  2841 PWs)   bands (ev):

   -77.2754 -77.2596 -40.6865 -40.6396 -40.5702 -40.5082 -40.4833 -40.4454
    13.7925  14.1579  14.7411  15.3024  16.0401  16.6146  16.9623  17.8952
    18.0809  18.1698  19.8368  22.6003  26.9067

     occupation numbers 
     1.0000   1.0000   1.0000   1.0000   1.0000   1.0000   1.0000   1.0000
     1.0000   1.0000   1.0000   1.0000   1.0000   1.0000   1.0000   1.0000
     1.0000   1.0000   0.0000   0.0000   0.0000

          k = 0.0833 0.5292 0.2041 (  2842 PWs)   bands (ev):

   -77.2721 -77.2630 -40.7006 -40.6710 -40.5328 -40.4922 -40.4832 -40.4532
    13.6999  14.1303  14.8746  15.1717  16.2121  16.9515  17.3551  17.6274
    18.0408  18.2343  19.8715  21.7254  26.2142

     occupation numbers 
     1.0000   1.0000   1.0000   1.0000   1.0000   1.0000   1.0000   1.0000
     1.0000   1.0000   1.0000   1.0000   1.0000   1.0000   1.0000   1.0000
     1.0000   1.0000   0.0000   0.0000   0.0000

          k = 0.0833 0.5292-0.3062 (  2844 PWs)   bands (ev):

   -77.2675 -77.2675 -40.6952 -40.6952 -40.5039 -40.5039 -40.4674 -40.4674
    13.8551  13.8551  15.0414  15.0414  16.7565  16.7565  17.4847  17.4847
    18.1116  18.1116  20.5998  20.5998  26.4936

     occupation numbers 
     1.0000   1.0000   1.0000   1.0000   1.0000   1.0000   1.0000   1.0000
     1.0000   1.0000   1.0000   1.0000   1.0000   1.0000   1.0000   1.0000
     1.0000   1.0000   0.0000   0.0000   0.0000

          k = 0.1667 0.2887 0.0000 (  2824 PWs)   bands (ev):

   -77.2999 -77.2629 -40.6613 -40.5625 -40.5534 -40.4744 -40.4454 -40.4313
    12.4044  14.6787  14.9990  15.1500  16.0755  16.1987  16.6529  16.8985
    17.4623  17.8397  18.0377  23.9586  25.7672

     occupation numbers 
     1.0000   1.0000   1.0000   1.0000   1.0000   1.0000   1.0000   1.0000
     1.0000   1.0000   1.0000   1.0000   1.0000   1.0000   1.0000   1.0000
     1.0000   1.0000   1.0000   0.0000   0.0000

          k = 0.1667 0.2887 0.1021 (  2828 PWs)   bands (ev):

   -77.2974 -77.2654 -40.6593 -40.5615 -40.5485 -40.4831 -40.4409 -40.4352
    12.5879  14.7722  14.8557  15.2031  16.0344  16.2083  16.5401  16.9957
    17.5769  17.6620  18.1068  22.0770  28.1176

     occupation numbers 
     1.0000   1.0000   1.0000   1.0000   1.0000   1.0000   1.0000   1.0000
     1.0000   1.0000   1.0000   1.0000   1.0000   1.0000   1.0000   1.0000
     1.0000   1.0000   1.0000   0.0000   0.0000

          k = 0.1667 0.2887 0.2041 (  2830 PWs)   bands (ev):

   -77.2906 -77.2722 -40.6474 -40.5878 -40.5178 -40.4875 -40.4447 -40.4435
    13.0907  14.4191  15.0277  15.3554  15.8466  16.0738  16.5441  17.1262
    17.6228  17.7736  18.1411  20.0582  31.4775

     occupation numbers 
     1.0000   1.0000   1.0000   1.0000   1.0000   1.0000   1.0000   1.0000
     1.0000   1.0000   1.0000   1.0000   1.0000   1.0000   1.0000   1.0000
     1.0000   1.0000   1.0000   0.0000   0.0000

          k = 0.1667 0.2887-0.3062 (  2828 PWs)   bands (ev):

   -77.2814 -77.2814 -40.6216 -40.6216 -40.4920 -40.4920 -40.4508 -40.4508
    13.7698  13.7698  15.3459  15.3459  15.7948  15.7948  16.8214  16.8214
    17.9088  17.9088  18.6268  18.6268  33.5110

     occupation numbers 
     1.0000   1.0000   1.0000   1.0000   1.0000   1.0000   1.0000   1.0000
     1.0000   1.0000   1.0000   1.0000   1.0000   1.0000   1.0000   1.0000
     1.0000   1.0000   1.0000   1.0000   0.0000

          k = 0.1667 0.3849 0.0000 (  2836 PWs)   bands (ev):

   -77.2873 -77.2595 -40.6273 -40.6102 -40.5887 -40.5029 -40.4653 -40.4528
    13.5088  14.6429  14.6598  15.1292  15.9131  16.3409  16.4518  17.2190
    17.9072  18.0282  18.6574  25.8221  26.1856

     occupation numbers 
     1.0000   1.0000   1.0000   1.0000   1.0000   1.0000   1.0000   1.0000
     1.0000   1.0000   1.0000   1.0000   1.0000   1.0000   1.0000   1.0000
     1.0000   1.0000   1.0000   0.0000   0.0000

          k = 0.1667 0.3849 0.1021 (  2837 PWs)   bands (ev):

   -77.2854 -77.2614 -40.6491 -40.6067 -40.5674 -40.5099 -40.4621 -40.4519
    13.5831  14.5763  14.7564  15.2090  15.9589  16.3332  16.4089  17.2592
    17.8206  17.9937  18.7383  23.3784  28.3866

     occupation numbers 
     1.0000   1.0000   1.0000   1.0000   1.0000   1.0000   1.0000   1.0000
     1.0000   1.0000   1.0000   1.0000   1.0000   1.0000   1.0000   1.0000
     1.0000   1.0000   1.0000   0.0000   0.0000

          k = 0.1667 0.3849 0.2041 (  2838 PWs)   bands (ev):

   -77.2803 -77.2665 -40.6605 -40.6282 -40.5305 -40.5098 -40.4676 -40.4506
    13.7877  14.3744  14.9997  15.4332  15.8741  16.1758  16.5514  17.2412
    17.7305  18.1409  18.9157  21.1827  29.3964

     occupation numbers 
     1.0000   1.0000   1.0000   1.0000   1.0000   1.0000   1.0000   1.0000
     1.0000   1.0000   1.0000   1.0000   1.0000   1.0000   1.0000   1.0000
     1.0000   1.0000   0.0000   0.0000   0.0000

          k = 0.1667 0.3849-0.3062 (  2838 PWs)   bands (ev):

   -77.2734 -77.2734 -40.6515 -40.6515 -40.5105 -40.5105 -40.4617 -40.4617
    14.0767  14.0767  15.3356  15.3356  15.9604  15.9604  16.8292  16.8292
    18.1206  18.1206  19.5987  19.5987  30.5358

     occupation numbers 
     1.0000   1.0000   1.0000   1.0000   1.0000   1.0000   1.0000   1.0000
     1.0000   1.0000   1.0000   1.0000   1.0000   1.0000   1.0000   1.0000
     1.0000   1.0000   0.0000   0.0000   0.0000

          k = 0.1667 0.4811 0.0000 (  2856 PWs)   bands (ev):

   -77.2767 -77.2584 -40.6481 -40.6069 -40.5946 -40.5293 -40.4877 -40.4674
    14.2030  14.4245  14.4548  15.4454  15.8719  16.2292  16.5449  17.6459
    18.0206  18.1216  19.8460  24.5445  27.8423

     occupation numbers 
     1.0000   1.0000   1.0000   1.0000   1.0000   1.0000   1.0000   1.0000
     1.0000   1.0000   1.0000   1.0000   1.0000   1.0000   1.0000   1.0000
     1.0000   1.0000   0.0000   0.0000   0.0000

          k = 0.1667 0.4811 0.1021 (  2840 PWs)   bands (ev):

   -77.2755 -77.2596 -40.6632 -40.6262 -40.5692 -40.5260 -40.4855 -40.4637
    14.0368  14.5107  14.6986  15.2507  15.9222  16.3716  16.6270  17.6324
    17.8308  18.1815  19.9256  23.9556  26.7331

     occupation numbers 
     1.0000   1.0000   1.0000   1.0000   1.0000   1.0000   1.0000   1.0000
     1.0000   1.0000   1.0000   1.0000   1.0000   1.0000   1.0000   1.0000
     1.0000   1.0000   0.0000   0.0000   0.0000

          k = 0.1667 0.4811 0.2041 (  2844 PWs)   bands (ev):

   -77.2721 -77.2630 -40.6787 -40.6540 -40.5460 -40.5132 -40.4844 -40.4574
    13.9911  14.4269  14.8946  15.4300  15.8183  16.5050  16.8592  17.3241
    17.8229  18.2546  20.2295  22.4187  26.8421

     occupation numbers 
     1.0000   1.0000   1.0000   1.0000   1.0000   1.0000   1.0000   1.0000
     1.0000   1.0000   1.0000   1.0000   1.0000   1.0000   1.0000   1.0000
     1.0000   1.0000   0.0000   0.0000   0.0000

          k = 0.1667 0.4811-0.3062 (  2824 PWs)   bands (ev):

   -77.2675 -77.2675 -40.6753 -40.6753 -40.5259 -40.5259 -40.4655 -40.4655
    14.1447  14.1447  15.2303  15.2303  16.2271  16.2271  17.0174  17.0174
    18.1248  18.1248  21.0243  21.0243  27.7152

     occupation numbers 
     1.0000   1.0000   1.0000   1.0000   1.0000   1.0000   1.0000   1.0000
     1.0000   1.0000   1.0000   1.0000   1.0000   1.0000   1.0000   1.0000
     1.0000   1.0000   0.0000   0.0000   0.0000

          k = 0.1667 0.5774 0.0000 (  2842 PWs)   bands (ev):

   -77.2721 -77.2587 -40.6617 -40.6126 -40.5780 -40.5402 -40.5004 -40.4726
    14.3516  14.3541  14.3747  15.6700  15.8994  16.1055  16.6324  17.9369
    18.0177  18.0904  21.1157  22.7047  29.1833

     occupation numbers 
     1.0000   1.0000   1.0000   1.0000   1.0000   1.0000   1.0000   1.0000
     1.0000   1.0000   1.0000   1.0000   1.0000   1.0000   1.0000   1.0000
     1.0000   1.0000   0.0000   0.0000   0.0000

          k = 0.1667 0.5774 0.1021 (  2839 PWs)   bands (ev):

   -77.2712 -77.2596 -40.6736 -40.6302 -40.5704 -40.5229 -40.4999 -40.4686
    14.0572  14.4264  14.8645  15.2304  15.8431  16.4952  16.7202  17.8032
    17.9337  18.1393  21.2083  22.6491  28.0102

     occupation numbers 
     1.0000   1.0000   1.0000   1.0000   1.0000   1.0000   1.0000   1.0000
     1.0000   1.0000   1.0000   1.0000   1.0000   1.0000   1.0000   1.0000
     1.0000   1.0000   0.0000   0.0000   0.0000

          k = 0.1667 0.5774 0.2041 (  2848 PWs)   bands (ev):

   -77.2687 -77.2621 -40.6875 -40.6620 -40.5535 -40.5115 -40.4902 -40.4605
    13.9870  14.4391  14.9324  15.3837  15.7353  16.7047  16.9860  17.3942
    17.9502  18.1772  21.5018  22.4332  26.7536

     occupation numbers 
     1.0000   1.0000   1.0000   1.0000   1.0000   1.0000   1.0000   1.0000
     1.0000   1.0000   1.0000   1.0000   1.0000   1.0000   1.0000   1.0000
     1.0000   1.0000   0.0000   0.0000   0.0000

          k = 0.1667 0.5774-0.3062 (  2838 PWs)   bands (ev):

   -77.2654 -77.2654 -40.6843 -40.6843 -40.5320 -40.5320 -40.4662 -40.4662
    14.1476  14.1476  15.1894  15.1894  16.2650  16.2650  17.2259  17.2259
    18.0619  18.0619  21.9903  21.9903  26.2794

     occupation numbers 
     1.0000   1.0000   1.0000   1.0000   1.0000   1.0000   1.0000   1.0000
     1.0000   1.0000   1.0000   1.0000   1.0000   1.0000   1.0000   1.0000
     1.0000   1.0000   0.0000   0.0000   0.0000

          k = 0.2500 0.4330 0.0000 (  2864 PWs)   bands (ev):

   -77.2767 -77.2584 -40.6273 -40.6068 -40.5948 -40.5316 -40.4875 -40.4864
    14.3431  14.4935  14.8657  14.9008  15.7963  16.2529  16.5538  17.4018
    17.9757  18.1243  19.8593  26.2853  27.1115

     occupation numbers 
     1.0000   1.0000   1.0000   1.0000   1.0000   1.0000   1.0000   1.0000
     1.0000   1.0000   1.0000   1.0000   1.0000   1.0000   1.0000   1.0000
     1.0000   1.0000   0.0000   0.0000   0.0000

          k = 0.2500 0.4330 0.1021 (  2847 PWs)   bands (ev):

   -77.2755 -77.2596 -40.6403 -40.6317 -40.5558 -40.5452 -40.4890 -40.4721
    14.3425  14.4457  14.9108  15.0427  15.9483  16.1058  16.5537  17.4433
    17.7748  18.1882  19.9803  24.7094  27.3898

     occupation numbers 
     1.0000   1.0000   1.0000   1.0000   1.0000   1.0000   1.0000   1.0000
     1.0000   1.0000   1.0000   1.0000   1.0000   1.0000   1.0000   1.0000
     1.0000   1.0000   0.0000   0.0000   0.0000

          k = 0.2500 0.4330 0.2041 (  2824 PWs)   bands (ev):

   -77.2721 -77.2629 -40.6622 -40.6475 -40.5500 -40.5307 -40.4844 -40.4589
    14.3319  14.3900  15.0747  15.4214  15.7806  16.0593  16.5967  17.2320
    17.7897  18.2626  20.3489  22.6927  28.1601

     occupation numbers 
     1.0000   1.0000   1.0000   1.0000   1.0000   1.0000   1.0000   1.0000
     1.0000   1.0000   1.0000   1.0000   1.0000   1.0000   1.0000   1.0000
     1.0000   1.0000   0.0000   0.0000   0.0000

          k = 0.2500 0.4330-0.3062 (  2842 PWs)   bands (ev):

   -77.2675 -77.2675 -40.6630 -40.6630 -40.5389 -40.5389 -40.4650 -40.4650
    14.3478  14.3478  15.3907  15.3907  15.8468  15.8468  16.8088  16.8088
    18.1444  18.1444  21.1834  21.1834  29.1718

     occupation numbers 
     1.0000   1.0000   1.0000   1.0000   1.0000   1.0000   1.0000   1.0000
     1.0000   1.0000   1.0000   1.0000   1.0000   1.0000   1.0000   1.0000
     1.0000   1.0000   0.0000   0.0000   0.0000

          k = 0.2500 0.5292 0.0000 (  2858 PWs)   bands (ev):

   -77.2689 -77.2594 -40.6400 -40.5981 -40.5657 -40.5621 -40.5105 -40.5081
    14.4261  14.6321  14.7242  15.2257  15.8136  16.0441  16.7231  17.6884
    17.9449  18.0542  21.5298  24.1125  26.4558

     occupation numbers 
     1.0000   1.0000   1.0000   1.0000   1.0000   1.0000   1.0000   1.0000
     1.0000   1.0000   1.0000   1.0000   1.0000   1.0000   1.0000   1.0000
     1.0000   1.0000   0.0000   0.0000   0.0000

          k = 0.2500 0.5292 0.1021 (  2852 PWs)   bands (ev):

   -77.2683 -77.2601 -40.6469 -40.6210 -40.5813 -40.5343 -40.5134 -40.4873
    14.3710  14.7526  14.8452  15.1166  15.8397  16.0518  16.7351  17.6914
    17.7547  18.0993  21.7130  24.1220  26.4766

     occupation numbers 
     1.0000   1.0000   1.0000   1.0000   1.0000   1.0000   1.0000   1.0000
     1.0000   1.0000   1.0000   1.0000   1.0000   1.0000   1.0000   1.0000
     1.0000   1.0000   0.0000   0.0000   0.0000

          k = 0.2500 0.5292 0.2041 (  2839 PWs)   bands (ev):

   -77.2665 -77.2618 -40.6629 -40.6485 -40.5797 -40.5406 -40.4857 -40.4664
    14.3853  14.7401  15.0004  15.3025  15.7000  16.0772  16.7901  17.2545
    17.8649  18.1427  22.2009  23.8029  26.3856

     occupation numbers 
     1.0000   1.0000   1.0000   1.0000   1.0000   1.0000   1.0000   1.0000
     1.0000   1.0000   1.0000   1.0000   1.0000   1.0000   1.0000   1.0000
     1.0000   1.0000   0.0000   0.0000   0.0000

          k = 0.2500 0.5292-0.3062 (  2832 PWs)   bands (ev):

   -77.2642 -77.2642 -40.6655 -40.6655 -40.5614 -40.5614 -40.4650 -40.4650
    14.5209  14.5209  15.2884  15.2884  15.8519  15.8519  16.9213  16.9213
    18.0545  18.0545  22.9596  22.9596  26.9269

     occupation numbers 
     1.0000   1.0000   1.0000   1.0000   1.0000   1.0000   1.0000   1.0000
     1.0000   1.0000   1.0000   1.0000   1.0000   1.0000   1.0000   1.0000
     1.0000   1.0000   0.0000   0.0000   0.0000

          k = 0.3333 0.5774 0.0000 (  2856 PWs)   bands (ev):

   -77.2629 -77.2629 -40.6294 -40.5828 -40.5828 -40.5370 -40.5370 -40.5338
    14.4395  14.8309  14.8309  15.1009  15.8785  15.8785  16.8230  17.8386
    17.8386  17.9148  23.2787  24.1178  24.1178

     occupation numbers 
     1.0000   1.0000   1.0000   1.0000   1.0000   1.0000   1.0000   1.0000
     1.0000   1.0000   1.0000   1.0000   1.0000   1.0000   1.0000   1.0000
     1.0000   1.0000   0.0000   0.0000   0.0000

          k = 0.3333 0.5774 0.1021 (  2847 PWs)   bands (ev):

   -77.2629 -77.2629 -40.6230 -40.6114 -40.6114 -40.5403 -40.5083 -40.5083
    14.5333  14.8482  14.8482  15.1183  15.8557  15.8557  16.7970  17.6873
    17.8826  17.8826  23.6716  24.1869  24.1869

     occupation numbers 
     1.0000   1.0000   1.0000   1.0000   1.0000   1.0000   1.0000   1.0000
     1.0000   1.0000   1.0000   1.0000   1.0000   1.0000   1.0000   1.0000
     1.0000   1.0000   0.0000   0.0000   0.0000

          k = 0.3333 0.5774 0.2041 (  2850 PWs)   bands (ev):

   -77.2629 -77.2629 -40.6429 -40.6429 -40.6056 -40.5578 -40.4766 -40.4766
    14.7729  14.8804  14.8804  15.1285  15.8169  15.8169  16.7648  17.2194
    17.9670  17.9670  24.3582  24.3582  24.6822

     occupation numbers 
     1.0000   1.0000   1.0000   1.0000   1.0000   1.0000   1.0000   1.0000
     1.0000   1.0000   1.0000   1.0000   1.0000   1.0000   1.0000   1.0000
     1.0000   1.0000   0.0000   0.0000   0.0000

          k = 0.3333 0.5774-0.3062 (  2832 PWs)   bands (ev):

   -77.2629 -77.2629 -40.6548 -40.6548 -40.5817 -40.5817 -40.4646 -40.4646
    14.8951  14.8951  15.0223  15.0223  15.8009  15.8009  16.8644  16.8644
    18.0076  18.0076  24.4683  24.4683  26.0778

     occupation numbers 
     1.0000   1.0000   1.0000   1.0000   1.0000   1.0000   1.0000   1.0000
     1.0000   1.0000   1.0000   1.0000   1.0000   1.0000   1.0000   1.0000
     1.0000   1.0000   0.0000   0.0000   0.0000

 ------ SPIN DOWN ----------


          k = 0.0000 0.0000 0.0000 (  2803 PWs)   bands (ev):

   -75.1949 -75.1350 -38.6646 -38.3531 -38.3531 -38.3089 -38.3036 -38.3036
     9.7878  14.5438  17.7845  17.8840  17.8840  18.2446  18.2446  18.4125
    18.7248  18.7248  19.9274  19.9274  26.0945

     occupation numbers 
     1.0000   1.0000   1.0000   1.0000   1.0000   1.0000   1.0000   1.0000
     1.0000   1.0000   1.0000   1.0000   1.0000   1.0000   1.0000   1.0000
     1.0000   1.0000   0.0000   0.0000   0.0000

          k = 0.0000 0.0000 0.1021 (  2839 PWs)   bands (ev):

   -75.1909 -75.1390 -38.6412 -38.3498 -38.3498 -38.3331 -38.3070 -38.3070
    10.0639  14.3035  17.6934  17.8237  17.8237  17.8496  18.1644  18.1644
    18.8945  18.8945  19.9093  19.9093  27.3898

     occupation numbers 
     1.0000   1.0000   1.0000   1.0000   1.0000   1.0000   1.0000   1.0000
     1.0000   1.0000   1.0000   1.0000   1.0000   1.0000   1.0000   1.0000
     0.0000   0.0000   0.0000   0.0000   0.0000

          k = 0.0000 0.0000 0.2041 (  2834 PWs)   bands (ev):

   -75.1800 -75.1500 -38.5768 -38.3989 -38.3407 -38.3407 -38.3160 -38.3160
    10.8625  13.4075  17.2425  17.4624  17.7718  17.7718  17.9877  17.9877
    19.2429  19.2429  19.8117  19.8117  30.3331

     occupation numbers 
     1.0000   1.0000   1.0000   1.0000   1.0000   1.0000   1.0000   1.0000
     1.0000   1.0000   1.0000   1.0000   1.0000   1.0000   1.0000   1.0000
     0.0000   0.0000   0.0000   0.0000   0.0000

          k = 0.0000 0.0000-0.3062 (  2834 PWs)   bands (ev):

   -75.1650 -75.1650 -38.4882 -38.4882 -38.3284 -38.3284 -38.3284 -38.3284
    12.0730  12.0730  17.2240  17.2240  17.8303  17.8303  17.8303  17.8303
    19.5823  19.5823  19.5823  19.5823  33.9566

     occupation numbers 
     1.0000   1.0000   1.0000   1.0000   1.0000   1.0000   1.0000   1.0000
     1.0000   1.0000   1.0000   1.0000   1.0000   1.0000   1.0000   1.0000
     0.0000   0.0000   0.0000   0.0000   0.0000

          k = 0.0000 0.0962 0.0000 (  2825 PWs)   bands (ev):

   -75.1913 -75.1333 -38.6568 -38.3711 -38.3588 -38.3222 -38.3120 -38.3067
    10.0334  14.7142  17.5745  17.8311  18.0118  18.0387  18.1752  18.3584
    18.6405  18.6443  19.9626  20.7351  26.1104

     occupation numbers 
     1.0000   1.0000   1.0000   1.0000   1.0000   1.0000   1.0000   1.0000
[...]
    20.0917  20.1259  21.2842  23.8133  28.6532

     occupation numbers 
     1.0000   1.0000   1.0000   1.0000   1.0000   1.0000   1.0000   1.0000
     1.0000   1.0000   1.0000   1.0000   1.0000   1.0000   1.0000   0.0000
     0.0000   0.0000   0.0000   0.0000   0.0000

          k = 0.0833 0.5292 0.1021 (  2841 PWs)   bands (ev):

   -75.1337 -75.1167 -38.6287 -38.5783 -38.4859 -38.4352 -38.3906 -38.3663
    14.7581  15.3675  15.9205  16.4720  17.7222  18.2037  18.2430  19.8635
    20.0234  20.1292  21.1466  23.4648  27.6481

     occupation numbers 
     1.0000   1.0000   1.0000   1.0000   1.0000   1.0000   1.0000   1.0000
     1.0000   1.0000   1.0000   1.0000   1.0000   1.0000   1.0000   0.0000
     0.0000   0.0000   0.0000   0.0000   0.0000

          k = 0.0833 0.5292 0.2041 (  2842 PWs)   bands (ev):

   -75.1301 -75.1203 -38.6421 -38.6107 -38.4500 -38.4133 -38.3985 -38.3701
    14.7319  15.2080  16.2215  16.5297  17.7638  18.5328  18.7256  19.4041
    19.9761  20.2100  20.9317  22.5158  27.1363

     occupation numbers 
     1.0000   1.0000   1.0000   1.0000   1.0000   1.0000   1.0000   1.0000
     1.0000   1.0000   1.0000   1.0000   1.0000   1.0000   1.0000   0.0000
     0.0000   0.0000   0.0000   0.0000   0.0000

          k = 0.0833 0.5292-0.3062 (  2844 PWs)   bands (ev):

   -75.1252 -75.1252 -38.6361 -38.6361 -38.4216 -38.4216 -38.3845 -38.3845
    14.9075  14.9075  16.4766  16.4766  18.2691  18.2691  19.0511  19.0511
    20.0616  20.0616  21.4600  21.4600  27.3965

     occupation numbers 
     1.0000   1.0000   1.0000   1.0000   1.0000   1.0000   1.0000   1.0000
     1.0000   1.0000   1.0000   1.0000   1.0000   1.0000   0.0000   0.0000
     0.0000   0.0000   0.0000   0.0000   0.0000

          k = 0.1667 0.2887 0.0000 (  2824 PWs)   bands (ev):

   -75.1601 -75.1203 -38.5819 -38.4957 -38.4865 -38.3994 -38.3528 -38.3462
    12.4849  15.8893  16.1872  16.5776  17.7767  17.8010  18.3584  18.6892
    19.2985  19.6569  20.0448  24.7670  26.5454

     occupation numbers 
     1.0000   1.0000   1.0000   1.0000   1.0000   1.0000   1.0000   1.0000
     1.0000   1.0000   1.0000   1.0000   1.0000   1.0000   1.0000   1.0000
     0.0000   0.0000   0.0000   0.0000   0.0000

          k = 0.1667 0.2887 0.1021 (  2828 PWs)   bands (ev):

   -75.1574 -75.1229 -38.5827 -38.4937 -38.4775 -38.4056 -38.3570 -38.3462
    12.6955  15.7955  16.1107  16.6441  17.6734  17.8263  18.2539  18.7958
    19.4256  19.5296  20.0552  23.1230  28.7330

     occupation numbers 
     1.0000   1.0000   1.0000   1.0000   1.0000   1.0000   1.0000   1.0000
     1.0000   1.0000   1.0000   1.0000   1.0000   1.0000   1.0000   0.4025
     0.0000   0.0000   0.0000   0.0000   0.0000

          k = 0.1667 0.2887 0.2041 (  2830 PWs)   bands (ev):

   -75.1501 -75.1302 -38.5744 -38.5181 -38.4397 -38.4086 -38.3670 -38.3551
    13.2928  15.1014  16.3691  16.8137  17.3966  17.6643  18.3095  18.9063
    19.5151  19.6505  20.0101  21.4145  31.9750

     occupation numbers 
     1.0000   1.0000   1.0000   1.0000   1.0000   1.0000   1.0000   1.0000
     1.0000   1.0000   1.0000   1.0000   1.0000   1.0000   1.0000   0.0000
     0.0000   0.0000   0.0000   0.0000   0.0000

          k = 0.1667 0.2887-0.3062 (  2828 PWs)   bands (ev):

   -75.1402 -75.1402 -38.5505 -38.5505 -38.4104 -38.4104 -38.3707 -38.3707
    14.1642  14.1642  16.7471  16.7471  17.3520  17.3520  18.6150  18.6150
    19.8389  19.8389  20.2377  20.2377  33.9449

     occupation numbers 
     1.0000   1.0000   1.0000   1.0000   1.0000   1.0000   1.0000   1.0000
     1.0000   1.0000   1.0000   1.0000   1.0000   1.0000   1.0000   1.0000
     0.0000   0.0000   0.0000   0.0000   0.0000

          k = 0.1667 0.3849 0.0000 (  2836 PWs)   bands (ev):

   -75.1465 -75.1166 -38.5482 -38.5446 -38.5245 -38.4305 -38.3761 -38.3678
    13.7468  15.8943  15.9615  16.3926  17.5679  17.9349  18.1143  19.0425
    19.8083  20.0338  20.3953  26.5407  26.8191

     occupation numbers 
     1.0000   1.0000   1.0000   1.0000   1.0000   1.0000   1.0000   1.0000
     1.0000   1.0000   1.0000   1.0000   1.0000   1.0000   1.0000   0.0000
     0.0000   0.0000   0.0000   0.0000   0.0000

          k = 0.1667 0.3849 0.1021 (  2837 PWs)   bands (ev):

   -75.1445 -75.1186 -38.5790 -38.5423 -38.4915 -38.4354 -38.3820 -38.3613
    13.8923  15.7556  16.0635  16.4953  17.5318  17.9129  18.0684  19.0919
    19.7719  19.9103  20.4973  24.2228  29.0148

     occupation numbers 
     1.0000   1.0000   1.0000   1.0000   1.0000   1.0000   1.0000   1.0000
     1.0000   1.0000   1.0000   1.0000   1.0000   1.0000   1.0000   0.0000
     0.0000   0.0000   0.0000   0.0000   0.0000

          k = 0.1667 0.3849 0.2041 (  2838 PWs)   bands (ev):

   -75.1390 -75.1241 -38.5937 -38.5635 -38.4508 -38.4322 -38.3899 -38.3614
    14.2911  15.3750  16.3438  16.7079  17.3834  17.6390  18.2608  19.0806
    19.6215  20.0933  20.5785  22.2416  30.0107

     occupation numbers 
     1.0000   1.0000   1.0000   1.0000   1.0000   1.0000   1.0000   1.0000
     1.0000   1.0000   1.0000   1.0000   1.0000   1.0000   1.0000   0.0000
     0.0000   0.0000   0.0000   0.0000   0.0000

          k = 0.1667 0.3849-0.3062 (  2838 PWs)   bands (ev):

   -75.1316 -75.1316 -38.5861 -38.5861 -38.4320 -38.4320 -38.3777 -38.3777
    14.8365  14.8365  16.6854  16.6854  17.3621  17.3621  18.6304  18.6304
    20.0836  20.0836  20.9251  20.9251  31.1081

     occupation numbers 
     1.0000   1.0000   1.0000   1.0000   1.0000   1.0000   1.0000   1.0000
     1.0000   1.0000   1.0000   1.0000   1.0000   1.0000   1.0000   1.0000
     0.0000   0.0000   0.0000   0.0000   0.0000

          k = 0.1667 0.4811 0.0000 (  2856 PWs)   bands (ev):

   -75.1351 -75.1154 -38.5895 -38.5443 -38.5087 -38.4593 -38.3921 -38.3919
    14.8526  15.7254  15.7343  16.4516  17.5067  17.8395  18.1728  19.5136
    20.0248  20.0641  21.3194  25.3029  28.4515

     occupation numbers 
     1.0000   1.0000   1.0000   1.0000   1.0000   1.0000   1.0000   1.0000
     1.0000   1.0000   1.0000   1.0000   1.0000   1.0000   1.0000   0.0000
     0.0000   0.0000   0.0000   0.0000   0.0000

          k = 0.1667 0.4811 0.1021 (  2840 PWs)   bands (ev):

   -75.1338 -75.1167 -38.6023 -38.5627 -38.4889 -38.4513 -38.4035 -38.3771
    14.8639  15.6777  15.9040  16.4819  17.5170  17.8136  18.2521  19.5097
    19.7909  20.1385  21.3681  24.6611  27.5126

     occupation numbers 
     1.0000   1.0000   1.0000   1.0000   1.0000   1.0000   1.0000   1.0000
     1.0000   1.0000   1.0000   1.0000   1.0000   1.0000   1.0000   0.0000
     0.0000   0.0000   0.0000   0.0000   0.0000

          k = 0.1667 0.4811 0.2041 (  2844 PWs)   bands (ev):

   -75.1302 -75.1203 -38.6171 -38.5915 -38.4705 -38.4341 -38.4037 -38.3685
    14.9596  15.4760  16.2338  16.7441  17.3430  17.7928  18.4827  19.1975
    19.7313  20.2344  21.5153  23.2089  27.6626

     occupation numbers 
     1.0000   1.0000   1.0000   1.0000   1.0000   1.0000   1.0000   1.0000
     1.0000   1.0000   1.0000   1.0000   1.0000   1.0000   1.0000   0.0000
     0.0000   0.0000   0.0000   0.0000   0.0000

          k = 0.1667 0.4811-0.3062 (  2824 PWs)   bands (ev):

   -75.1252 -75.1252 -38.6136 -38.6136 -38.4503 -38.4503 -38.3787 -38.3787
    15.1821  15.1821  16.6392  16.6392  17.5297  17.5297  18.7645  18.7645
    20.0747  20.0747  22.0381  22.0381  28.4659

     occupation numbers 
     1.0000   1.0000   1.0000   1.0000   1.0000   1.0000   1.0000   1.0000
     1.0000   1.0000   1.0000   1.0000   1.0000   1.0000   0.9987   0.9987
     0.0000   0.0000   0.0000   0.0000   0.0000

          k = 0.1667 0.5774 0.0000 (  2842 PWs)   bands (ev):

   -75.1301 -75.1157 -38.6045 -38.5505 -38.4906 -38.4711 -38.4060 -38.3976
    15.3147  15.5940  15.6712  16.5213  17.5629  17.6597  18.2791  19.8462
    20.0212  20.0353  22.2334  23.7371  29.6151

     occupation numbers 
     1.0000   1.0000   1.0000   1.0000   1.0000   1.0000   1.0000   1.0000
     1.0000   1.0000   1.0000   1.0000   1.0000   1.0000   1.0000   0.0000
     0.0000   0.0000   0.0000   0.0000   0.0000

          k = 0.1667 0.5774 0.1021 (  2839 PWs)   bands (ev):

   -75.1291 -75.1167 -38.6148 -38.5677 -38.4921 -38.4451 -38.4160 -38.3845
    15.1542  15.6380  16.0523  16.3332  17.4756  17.8469  18.3673  19.7644
    19.8455  20.0955  22.2592  23.6341  28.6300

     occupation numbers 
     1.0000   1.0000   1.0000   1.0000   1.0000   1.0000   1.0000   1.0000
     1.0000   1.0000   1.0000   1.0000   1.0000   1.0000   1.0000   0.0000
     0.0000   0.0000   0.0000   0.0000   0.0000

          k = 0.1667 0.5774 0.2041 (  2848 PWs)   bands (ev):

   -75.1265 -75.1193 -38.6277 -38.6003 -38.4793 -38.4342 -38.4059 -38.3723
    15.1077  15.5369  16.3031  16.6565  17.2547  17.9696  18.6321  19.2669
    19.8746  20.1433  22.3810  23.2960  27.5603

     occupation numbers 
     1.0000   1.0000   1.0000   1.0000   1.0000   1.0000   1.0000   1.0000
     1.0000   1.0000   1.0000   1.0000   1.0000   1.0000   1.0000   0.0000
     0.0000   0.0000   0.0000   0.0000   0.0000

          k = 0.1667 0.5774-0.3062 (  2838 PWs)   bands (ev):

   -75.1229 -75.1229 -38.6238 -38.6238 -38.4574 -38.4574 -38.3785 -38.3785
    15.2632  15.2632  16.6287  16.6287  17.5853  17.5853  18.9294  18.9294
    20.0093  20.0093  22.7756  22.7756  27.1926

     occupation numbers 
     1.0000   1.0000   1.0000   1.0000   1.0000   1.0000   1.0000   1.0000
     1.0000   1.0000   1.0000   1.0000   1.0000   1.0000   0.0000   0.0000
     0.0000   0.0000   0.0000   0.0000   0.0000

          k = 0.2500 0.4330 0.0000 (  2864 PWs)   bands (ev):

   -75.1352 -75.1153 -38.5668 -38.5440 -38.5090 -38.4619 -38.4126 -38.3919
    14.8665  15.8034  16.0833  16.1206  17.4088  17.8692  18.1781  19.2570
    19.9732  20.0644  21.3633  26.8587  27.7358

     occupation numbers 
     1.0000   1.0000   1.0000   1.0000   1.0000   1.0000   1.0000   1.0000
     1.0000   1.0000   1.0000   1.0000   1.0000   1.0000   1.0000   0.0000
     0.0000   0.0000   0.0000   0.0000   0.0000

          k = 0.2500 0.4330 0.1021 (  2847 PWs)   bands (ev):

   -75.1338 -75.1167 -38.5733 -38.5707 -38.4744 -38.4734 -38.4148 -38.3795
    14.9428  15.7201  16.1509  16.3049  17.4494  17.6862  18.1900  19.3056
    19.7303  20.1458  21.4640  25.3798  28.0198

     occupation numbers 
     1.0000   1.0000   1.0000   1.0000   1.0000   1.0000   1.0000   1.0000
     1.0000   1.0000   1.0000   1.0000   1.0000   1.0000   1.0000   0.0000
     0.0000   0.0000   0.0000   0.0000   0.0000

          k = 0.2500 0.4330 0.2041 (  2824 PWs)   bands (ev):

   -75.1302 -75.1203 -38.5972 -38.5849 -38.4784 -38.4538 -38.4032 -38.3683
    15.1382  15.5768  16.3706  16.6591  17.2958  17.4180  18.2850  19.0955
    19.6890  20.2438  21.6961  23.5245  28.7902

     occupation numbers 
     1.0000   1.0000   1.0000   1.0000   1.0000   1.0000   1.0000   1.0000
     1.0000   1.0000   1.0000   1.0000   1.0000   1.0000   1.0000   0.0000
     0.0000   0.0000   0.0000   0.0000   0.0000

          k = 0.2500 0.4330-0.3062 (  2842 PWs)   bands (ev):

   -75.1252 -75.1252 -38.5994 -38.5994 -38.4664 -38.4664 -38.3771 -38.3771
    15.3749  15.3749  16.7095  16.7095  17.1904  17.1904  18.5917  18.5917
    20.0990  20.0990  22.2556  22.2556  29.7896

     occupation numbers 
     1.0000   1.0000   1.0000   1.0000   1.0000   1.0000   1.0000   1.0000
     1.0000   1.0000   1.0000   1.0000   1.0000   1.0000   1.0000   1.0000
     0.0000   0.0000   0.0000   0.0000   0.0000

          k = 0.2500 0.5292 0.0000 (  2858 PWs)   bands (ev):

   -75.1267 -75.1165 -38.5806 -38.5346 -38.4952 -38.4772 -38.4362 -38.4170
    15.5835  15.7791  15.9253  16.2087  17.4084  17.6152  18.3801  19.5755
    19.9377  19.9907  22.6615  24.9291  27.0453

     occupation numbers 
     1.0000   1.0000   1.0000   1.0000   1.0000   1.0000   1.0000   1.0000
     1.0000   1.0000   1.0000   1.0000   1.0000   1.0000   1.0000   0.0000
     0.0000   0.0000   0.0000   0.0000   0.0000

          k = 0.2500 0.5292 0.1021 (  2852 PWs)   bands (ev):

   -75.1260 -75.1172 -38.5858 -38.5558 -38.5115 -38.4548 -38.4351 -38.3975
    15.5348  15.9032  16.0079  16.2725  17.3816  17.5145  18.3962  19.6003
    19.6915  20.0477  22.8200  24.8964  27.0968

     occupation numbers 
     1.0000   1.0000   1.0000   1.0000   1.0000   1.0000   1.0000   1.0000
     1.0000   1.0000   1.0000   1.0000   1.0000   1.0000   1.0000   0.0000
     0.0000   0.0000   0.0000   0.0000   0.0000

          k = 0.2500 0.5292 0.2041 (  2839 PWs)   bands (ev):

   -75.1241 -75.1190 -38.5998 -38.5844 -38.5115 -38.4693 -38.3989 -38.3763
    15.5646  15.8567  16.2860  16.6163  17.1210  17.3762  18.4754  19.1251
    19.7836  20.1025  23.1967  24.5142  27.1528

     occupation numbers 
     1.0000   1.0000   1.0000   1.0000   1.0000   1.0000   1.0000   1.0000
     1.0000   1.0000   1.0000   1.0000   1.0000   1.0000   1.0000   0.0000
     0.0000   0.0000   0.0000   0.0000   0.0000

          k = 0.2500 0.5292-0.3062 (  2832 PWs)   bands (ev):

   -75.1216 -75.1216 -38.6020 -38.6020 -38.4924 -38.4924 -38.3756 -38.3756
    15.6954  15.6954  16.6801  16.6801  17.0918  17.0918  18.6891  18.6891
    19.9993  19.9993  23.7823  23.7823  27.6944

     occupation numbers 
     1.0000   1.0000   1.0000   1.0000   1.0000   1.0000   1.0000   1.0000
     1.0000   1.0000   1.0000   1.0000   1.0000   1.0000   1.0000   1.0000
     0.0000   0.0000   0.0000   0.0000   0.0000

          k = 0.3333 0.5774 0.0000 (  2856 PWs)   bands (ev):

   -75.1203 -75.1203 -38.5689 -38.5181 -38.5181 -38.4642 -38.4459 -38.4459
    15.8190  15.9347  15.9347  16.1238  17.4427  17.4427  18.4896  19.7491
    19.7491  19.9031  24.1202  24.9300  24.9300

     occupation numbers 
     1.0000   1.0000   1.0000   1.0000   1.0000   1.0000   1.0000   1.0000
     1.0000   1.0000   1.0000   1.0000   1.0000   1.0000   1.0000   0.0000
     0.0000   0.0000   0.0000   0.0000   0.0000

          k = 0.3333 0.5774 0.1021 (  2847 PWs)   bands (ev):

   -75.1203 -75.1203 -38.5619 -38.5439 -38.5439 -38.4713 -38.4198 -38.4198
    15.8921  16.0059  16.0059  16.1548  17.3558  17.3558  18.4711  19.6330
    19.8025  19.8025  24.5291  24.9744  24.9744

     occupation numbers 
     1.0000   1.0000   1.0000   1.0000   1.0000   1.0000   1.0000   1.0000
     1.0000   1.0000   1.0000   1.0000   1.0000   1.0000   1.0000   0.0000
     0.0000   0.0000   0.0000   0.0000   0.0000

          k = 0.3333 0.5774 0.2041 (  2850 PWs)   bands (ev):

   -75.1203 -75.1203 -38.5763 -38.5763 -38.5428 -38.4905 -38.3871 -38.3871
    16.0625  16.1755  16.1755  16.2117  17.1629  17.1629  18.4752  19.0913
    19.9012  19.9012  25.0841  25.0841  25.5283

     occupation numbers 
     1.0000   1.0000   1.0000   1.0000   1.0000   1.0000   1.0000   1.0000
     1.0000   1.0000   1.0000   1.0000   1.0000   1.0000   1.0000   0.0000
     0.0000   0.0000   0.0000   0.0000   0.0000

          k = 0.3333 0.5774-0.3062 (  2832 PWs)   bands (ev):

   -75.1203 -75.1203 -38.5889 -38.5889 -38.5167 -38.5167 -38.3744 -38.3744
    16.1999  16.1999  16.2860  16.2860  17.0444  17.0444  18.6531  18.6531
    19.9470  19.9470  25.1536  25.1536  26.8504

     occupation numbers 
     1.0000   1.0000   1.0000   1.0000   1.0000   1.0000   1.0000   1.0000
     1.0000   1.0000   1.0000   1.0000   1.0000   1.0000   1.0000   1.0000
     0.0000   0.0000   0.0000   0.0000   0.0000

     the Fermi energy is    18.7934 ev

!    total energy              =    -753.45505080 Ry
     total all-electron energy =     -5573.811742 Ry
     estimated scf accuracy    <       0.00000063 Ry
     smearing contrib. (-TS)   =      -0.00002506 Ry
     internal energy E=F+TS    =    -753.45502574 Ry

     The total energy is F=E-TS. E is the sum of the following terms:
     one-electron contribution =    -281.67320767 Ry
     hartree contribution      =     164.62892093 Ry
     xc contribution           =     -61.41366293 Ry
     ewald contribution        =    -399.82048718 Ry
     one-center paw contrib.   =    -175.17658889 Ry
      -> PAW hartree energy AE =     222.04163871 Ry
      -> PAW hartree energy PS =    -220.98640374 Ry
      -> PAW xc energy AE      =    -117.67537895 Ry
      -> PAW xc energy PS      =      29.03184954 Ry
      -> total E_H with PAW    =     165.68415589 Ry
      -> total E_XC with PAW   =    -150.05719234 Ry

     total magnetization       =     3.35 Bohr mag/cell
     absolute magnetization    =     3.66 Bohr mag/cell

     convergence has been achieved in  12 iterations

     Writing all to output data dir ./out/Co.save/
 
     init_run     :      0.39s CPU      0.50s WALL (       1 calls)
     electrons    :     26.38s CPU     27.79s WALL (       1 calls)

     Called by init_run:
     wfcinit      :      0.27s CPU      0.35s WALL (       1 calls)
     potinit      :      0.08s CPU      0.11s WALL (       1 calls)
     hinit0       :      0.03s CPU      0.03s WALL (       1 calls)

     Called by electrons:
     c_bands      :     23.04s CPU     24.16s WALL (      12 calls)
     sum_band     :      2.24s CPU      2.34s WALL (      12 calls)
     v_of_rho     :      0.04s CPU      0.04s WALL (      13 calls)
     v_h          :      0.00s CPU      0.00s WALL (      13 calls)
     v_xc         :      0.04s CPU      0.04s WALL (      13 calls)
     newd         :      0.05s CPU      0.06s WALL (      13 calls)
     PAW_pot      :      1.07s CPU      1.26s WALL (      13 calls)
     mix_rho      :      0.01s CPU      0.01s WALL (      12 calls)

     Called by c_bands:
     init_us_2    :      0.13s CPU      0.13s WALL (    3648 calls)
     init_us_2:cp :      0.12s CPU      0.13s WALL (    3648 calls)
     cegterg      :     22.22s CPU     23.20s WALL (    1824 calls)

     Called by sum_band:
     sum_band:wei :      0.02s CPU      0.02s WALL (      12 calls)
     sum_band:loo :      2.12s CPU      2.22s WALL (      12 calls)
     sum_band:buf :      0.01s CPU      0.01s WALL (    1824 calls)
     sum_band:ini :      0.07s CPU      0.06s WALL (    1824 calls)
     sum_band:cal :      0.18s CPU      0.17s WALL (    1824 calls)
     sum_band:bec :      0.00s CPU      0.02s WALL (    1824 calls)
     addusdens    :      0.08s CPU      0.09s WALL (      12 calls)
                                        0.00s GPU  (      12 calls)
     addusd:skk   :      0.00s CPU      0.00s WALL (      12 calls)
                                        0.00s GPU  (      12 calls)

     Called by *egterg:
     cdiaghg      :      5.17s CPU      5.30s WALL (   10642 calls)
     cegterg:over :      0.74s CPU      0.70s WALL (    8970 calls)
     cegterg:upda :      0.08s CPU      0.17s WALL (    8970 calls)
     cegterg:last :      0.31s CPU      0.34s WALL (    6733 calls)
     h_psi        :     14.98s CPU     15.75s WALL (   10794 calls)
     s_psi        :      0.30s CPU      0.25s WALL (   10794 calls)
     g_psi        :      0.04s CPU      0.06s WALL (    8970 calls)

     Called by h_psi:
     h_psi:calbec :      0.79s CPU      0.76s WALL (   10794 calls)
     vloc_psi     :     14.01s CPU     14.67s WALL (   10794 calls)
     add_vuspsi   :      0.15s CPU      0.25s WALL (   10794 calls)

     General routines
     calbec       :      0.96s CPU      0.92s WALL (   12618 calls)
     fft          :      0.02s CPU      0.02s WALL (     319 calls)
     ffts         :      0.00s CPU      0.00s WALL (      50 calls)
     fftw         :     15.06s CPU     15.49s WALL (  344496 calls)
     interpolate  :      0.00s CPU      0.00s WALL (      26 calls)
 
     Parallel routines

     PAW routines
     PAW_pot      :      1.07s CPU      1.26s WALL (      13 calls)
     PAW_symme    :      0.01s CPU      0.01s WALL (      24 calls)
 
     PWSCF        :     27.10s CPU     29.08s WALL

 
   This run was terminated on:   7:52:47  22Mar2024            

=------------------------------------------------------------------------------=
   JOB DONE.
=------------------------------------------------------------------------------=
