
     Program PWSCF v.7.2 starts on 22Mar2024 at  8:39:12 

     This program is part of the open-source Quantum ESPRESSO suite
     for quantum simulation of materials; please cite
         "P. Giannozzi et al., J. Phys.:Condens. Matter 21 395502 (2009);
         "P. Giannozzi et al., J. Phys.:Condens. Matter 29 465901 (2017);
         "P. Giannozzi et al., J. Chem. Phys. 152 154105 (2020);
          URL http://www.quantum-espresso.org", 
     in publications or presentations arising from this work. More details at
     http://www.quantum-espresso.org/quote

     Parallel version (MPI), running on    20 processors

     MPI processes distributed on     1 nodes
     241513 MiB available memory on the printing compute node when the environment starts
 
     Waiting for input...
     Reading input from standard input

     Current dimensions of program PWSCF are:
     Max number of different atomic species (ntypx) = 10
     Max number of k-points (npk) = 120000
     Max angular momentum in pseudopotentials (lmaxx) =  4
     file Co.pbe-spn-kjpaw_psl.0.3.1.UPF: wavefunction(s)  3P 3D renormalized
 
     R & G space division:  proc/nbgrp/npool/nimage =      20
     Subspace diagonalization in iterative solution of the eigenvalue problem:
     a serial algorithm will be used

 
     Parallelization info
     --------------------
     sticks:   dense  smooth     PW     G-vecs:    dense   smooth      PW
     Min          32      32      9                 1128     1092     179
     Max          34      33     10                 1136     1099     186
     Sum         661     649    199                22635    21903    3657
 
     Using Slab Decomposition
 


     bravais-lattice index     =            4
     lattice parameter (alat)  =       4.6204  a.u.
     unit-cell volume          =     140.6212 (a.u.)^3
     number of atoms/cell      =            2
     number of atomic types    =            1
     number of electrons       =        34.00
     number of Kohn-Sham states=           21
     kinetic-energy cutoff     =     110.0000  Ry
     charge density cutoff     =     450.0000  Ry
     scf convergence threshold =      1.0E-06
     mixing beta               =       0.7000
     number of iterations used =            8  plain     mixing
     Exchange-correlation= SLA  PW   PBX  PBC
                           (   1   4   3   4   0   0   0)

     celldm(1)=   4.620380  celldm(2)=   0.000000  celldm(3)=   1.646217
     celldm(4)=   0.000000  celldm(5)=   0.000000  celldm(6)=   0.000000

     crystal axes: (cart. coord. in units of alat)
               a(1) = (   1.000000   0.000000   0.000000 )  
               a(2) = (  -0.500000   0.866025   0.000000 )  
               a(3) = (   0.000000   0.000000   1.646217 )  

     reciprocal axes: (cart. coord. in units 2 pi/alat)
               b(1) = (  1.000000  0.577350  0.000000 )  
               b(2) = (  0.000000  1.154701  0.000000 )  
               b(3) = (  0.000000  0.000000  0.607453 )  


     PseudoPot. # 1 for Co read from file:
     /truba/home/amuhaymin/ZnS/pseudo/QE/Co.pbe-spn-kjpaw_psl.0.3.1.UPF
     MD5 check sum: b0a1ad65bf214e88c1f3d33b20c7d919
     Pseudo is Projector augmented-wave + core cor, Zval = 17.0
     Generated using &quot;atomic&quot; code by A. Dal Corso  v.6.2.2
     Shape of augmentation charge: PSQ
     Using radial grid of 1193 points,  6 beta functions with: 
                l(1) =   0
                l(2) =   0
                l(3) =   1
                l(4) =   1
                l(5) =   2
                l(6) =   2
     Q(r) pseudized with 0 coefficients 


     atomic species   valence    mass     pseudopotential
        Co            17.00    58.93300     Co( 1.00)

     Starting magnetic structure 
     atomic species   magnetization
        Co           0.294

     24 Sym. Ops., with inversion, found (12 have fractional translation)


                                    s                        frac. trans.

      isym =  1     identity                                     

 cryst.   s( 1) = (     1          0          0      )
                  (     0          1          0      )
                  (     0          0          1      )

 cart.    s( 1) = (  1.0000000  0.0000000  0.0000000 )
                  (  0.0000000  1.0000000  0.0000000 )
                  (  0.0000000  0.0000000  1.0000000 )


      isym =  2     180 deg rotation - cart. axis [0,0,1]        

 cryst.   s( 2) = (    -1          0          0      )    f =(  0.0000000 )
                  (     0         -1          0      )       (  0.0000000 )
                  (     0          0          1      )       ( -0.5000000 )

 cart.    s( 2) = ( -1.0000000  0.0000000  0.0000000 )    f =(  0.0000000 )
                  (  0.0000000 -1.0000000  0.0000000 )       (  0.0000000 )
                  (  0.0000000  0.0000000  1.0000000 )       ( -0.8231084 )


      isym =  3     180 deg rotation - cart. axis [0,1,0]        

 cryst.   s( 3) = (    -1          0          0      )    f =(  0.0000000 )
                  (     1          1          0      )       (  0.0000000 )
                  (     0          0         -1      )       (  0.5000000 )

 cart.    s( 3) = ( -1.0000000  0.0000000  0.0000000 )    f =(  0.0000000 )
                  (  0.0000000  1.0000000  0.0000000 )       (  0.0000000 )
                  (  0.0000000  0.0000000 -1.0000000 )       (  0.8231084 )


      isym =  4     180 deg rotation - cart. axis [1,0,0]        

 cryst.   s( 4) = (     1          0          0      )
                  (    -1         -1          0      )
                  (     0          0         -1      )

 cart.    s( 4) = (  1.0000000  0.0000000  0.0000000 )
                  (  0.0000000 -1.0000000  0.0000000 )
                  (  0.0000000  0.0000000 -1.0000000 )


      isym =  5      60 deg rotation - cryst. axis [0,0,1]       

 cryst.   s( 5) = (     1          1          0      )    f =(  0.0000000 )
                  (    -1          0          0      )       ( -0.0000000 )
                  (     0          0          1      )       ( -0.5000000 )

 cart.    s( 5) = (  0.5000000 -0.8660254  0.0000000 )    f =(  0.0000000 )
                  (  0.8660254  0.5000000  0.0000000 )       ( -0.0000000 )
                  (  0.0000000  0.0000000  1.0000000 )       ( -0.8231084 )


      isym =  6      60 deg rotation - cryst. axis [0,0,-1]      

 cryst.   s( 6) = (     0         -1          0      )    f =(  0.0000000 )
                  (     1          1          0      )       ( -0.0000000 )
                  (     0          0          1      )       ( -0.5000000 )

 cart.    s( 6) = (  0.5000000  0.8660254  0.0000000 )    f =(  0.0000000 )
                  ( -0.8660254  0.5000000  0.0000000 )       ( -0.0000000 )
                  (  0.0000000  0.0000000  1.0000000 )       ( -0.8231084 )


      isym =  7     120 deg rotation - cryst. axis [0,0,1]       

 cryst.   s( 7) = (     0          1          0      )
                  (    -1         -1          0      )
                  (     0          0          1      )

 cart.    s( 7) = ( -0.5000000 -0.8660254  0.0000000 )
                  (  0.8660254 -0.5000000  0.0000000 )
                  (  0.0000000  0.0000000  1.0000000 )


      isym =  8     120 deg rotation - cryst. axis [0,0,-1]      

 cryst.   s( 8) = (    -1         -1          0      )
                  (     1          0          0      )
                  (     0          0          1      )

 cart.    s( 8) = ( -0.5000000  0.8660254  0.0000000 )
                  ( -0.8660254 -0.5000000  0.0000000 )
                  (  0.0000000  0.0000000  1.0000000 )


      isym =  9     180 deg rotation - cryst. axis [1,-1,0]      

 cryst.   s( 9) = (     0         -1          0      )    f =(  0.0000000 )
                  (    -1          0          0      )       (  0.0000000 )
                  (     0          0         -1      )       (  0.5000000 )

 cart.    s( 9) = (  0.5000000 -0.8660254  0.0000000 )    f =(  0.0000000 )
                  ( -0.8660254 -0.5000000  0.0000000 )       (  0.0000000 )
                  (  0.0000000  0.0000000 -1.0000000 )       (  0.8231084 )


      isym = 10     180 deg rotation - cryst. axis [2,1,0]       

 cryst.   s(10) = (     1          1          0      )    f =(  0.0000000 )
                  (     0         -1          0      )       ( -0.0000000 )
                  (     0          0         -1      )       (  0.5000000 )

 cart.    s(10) = (  0.5000000  0.8660254  0.0000000 )    f =(  0.0000000 )
                  (  0.8660254 -0.5000000  0.0000000 )       ( -0.0000000 )
                  (  0.0000000  0.0000000 -1.0000000 )       (  0.8231084 )


      isym = 11     180 deg rotation - cryst. axis [0,1,0]       

 cryst.   s(11) = (    -1         -1          0      )
                  (     0          1          0      )
                  (     0          0         -1      )

 cart.    s(11) = ( -0.5000000 -0.8660254  0.0000000 )
                  ( -0.8660254  0.5000000  0.0000000 )
                  (  0.0000000  0.0000000 -1.0000000 )


      isym = 12     180 deg rotation - cryst. axis [1,1,0]       

 cryst.   s(12) = (     0          1          0      )
                  (     1          0          0      )
                  (     0          0         -1      )

 cart.    s(12) = ( -0.5000000  0.8660254  0.0000000 )
                  (  0.8660254  0.5000000  0.0000000 )
                  (  0.0000000  0.0000000 -1.0000000 )


      isym = 13     inversion                                    

 cryst.   s(13) = (    -1          0          0      )
                  (     0         -1          0      )
                  (     0          0         -1      )

 cart.    s(13) = ( -1.0000000  0.0000000  0.0000000 )
                  (  0.0000000 -1.0000000  0.0000000 )
                  (  0.0000000  0.0000000 -1.0000000 )


      isym = 14     inv. 180 deg rotation - cart. axis [0,0,1]   

 cryst.   s(14) = (     1          0          0      )    f =(  0.0000000 )
                  (     0          1          0      )       (  0.0000000 )
                  (     0          0         -1      )       (  0.5000000 )

 cart.    s(14) = (  1.0000000  0.0000000  0.0000000 )    f =(  0.0000000 )
                  (  0.0000000  1.0000000  0.0000000 )       (  0.0000000 )
                  (  0.0000000  0.0000000 -1.0000000 )       (  0.8231084 )


      isym = 15     inv. 180 deg rotation - cart. axis [0,1,0]   

 cryst.   s(15) = (     1          0          0      )    f =(  0.0000000 )
                  (    -1         -1          0      )       (  0.0000000 )
                  (     0          0          1      )       ( -0.5000000 )

 cart.    s(15) = (  1.0000000  0.0000000  0.0000000 )    f =(  0.0000000 )
                  (  0.0000000 -1.0000000  0.0000000 )       (  0.0000000 )
                  (  0.0000000  0.0000000  1.0000000 )       ( -0.8231084 )


      isym = 16     inv. 180 deg rotation - cart. axis [1,0,0]   

 cryst.   s(16) = (    -1          0          0      )
                  (     1          1          0      )
                  (     0          0          1      )

 cart.    s(16) = ( -1.0000000  0.0000000  0.0000000 )
                  (  0.0000000  1.0000000  0.0000000 )
                  (  0.0000000  0.0000000  1.0000000 )


      isym = 17     inv.  60 deg rotation - cryst. axis [0,0,1]  

 cryst.   s(17) = (    -1         -1          0      )    f =(  0.0000000 )
                  (     1          0          0      )       (  0.0000000 )
                  (     0          0         -1      )       (  0.5000000 )

 cart.    s(17) = ( -0.5000000  0.8660254  0.0000000 )    f =(  0.0000000 )
                  ( -0.8660254 -0.5000000  0.0000000 )       (  0.0000000 )
                  (  0.0000000  0.0000000 -1.0000000 )       (  0.8231084 )


      isym = 18     inv.  60 deg rotation - cryst. axis [0,0,-1] 

 cryst.   s(18) = (     0          1          0      )    f =(  0.0000000 )
                  (    -1         -1          0      )       ( -0.0000000 )
                  (     0          0         -1      )       (  0.5000000 )

 cart.    s(18) = ( -0.5000000 -0.8660254  0.0000000 )    f =(  0.0000000 )
                  (  0.8660254 -0.5000000  0.0000000 )       ( -0.0000000 )
                  (  0.0000000  0.0000000 -1.0000000 )       (  0.8231084 )


      isym = 19     inv. 120 deg rotation - cryst. axis [0,0,1]  

 cryst.   s(19) = (     0         -1          0      )
                  (     1          1          0      )
                  (     0          0         -1      )

 cart.    s(19) = (  0.5000000  0.8660254  0.0000000 )
                  ( -0.8660254  0.5000000  0.0000000 )
                  (  0.0000000  0.0000000 -1.0000000 )


      isym = 20     inv. 120 deg rotation - cryst. axis [0,0,-1] 

 cryst.   s(20) = (     1          1          0      )
                  (    -1          0          0      )
                  (     0          0         -1      )

 cart.    s(20) = (  0.5000000 -0.8660254  0.0000000 )
                  (  0.8660254  0.5000000  0.0000000 )
                  (  0.0000000  0.0000000 -1.0000000 )


      isym = 21     inv. 180 deg rotation - cryst. axis [1,-1,0] 

 cryst.   s(21) = (     0          1          0      )    f =(  0.0000000 )
                  (     1          0          0      )       ( -0.0000000 )
                  (     0          0          1      )       ( -0.5000000 )

 cart.    s(21) = ( -0.5000000  0.8660254  0.0000000 )    f =(  0.0000000 )
                  (  0.8660254  0.5000000  0.0000000 )       ( -0.0000000 )
                  (  0.0000000  0.0000000  1.0000000 )       ( -0.8231084 )


      isym = 22     inv. 180 deg rotation - cryst. axis [2,1,0]  

 cryst.   s(22) = (    -1         -1          0      )    f =(  0.0000000 )
                  (     0          1          0      )       ( -0.0000000 )
                  (     0          0          1      )       ( -0.5000000 )

 cart.    s(22) = ( -0.5000000 -0.8660254  0.0000000 )    f =(  0.0000000 )
                  ( -0.8660254  0.5000000  0.0000000 )       ( -0.0000000 )
                  (  0.0000000  0.0000000  1.0000000 )       ( -0.8231084 )


      isym = 23     inv. 180 deg rotation - cryst. axis [0,1,0]  

 cryst.   s(23) = (     1          1          0      )
                  (     0         -1          0      )
                  (     0          0          1      )

 cart.    s(23) = (  0.5000000  0.8660254  0.0000000 )
                  (  0.8660254 -0.5000000  0.0000000 )
                  (  0.0000000  0.0000000  1.0000000 )


      isym = 24     inv. 180 deg rotation - cryst. axis [1,1,0]  

 cryst.   s(24) = (     0         -1          0      )
                  (    -1          0          0      )
                  (     0          0          1      )

 cart.    s(24) = (  0.5000000 -0.8660254  0.0000000 )
                  ( -0.8660254 -0.5000000  0.0000000 )
                  (  0.0000000  0.0000000  1.0000000 )


     point group D_6h(6/mmm)
     there are 12 classes
     the character table:

       E     2C6   2C3   C2    3C2'  3C2'' i     2S3   2S6   s_h   3s_d  3s_v 
A_1g   1.00  1.00  1.00  1.00  1.00  1.00  1.00  1.00  1.00  1.00  1.00  1.00
A_2g   1.00  1.00  1.00  1.00 -1.00 -1.00  1.00  1.00  1.00  1.00 -1.00 -1.00
B_1g   1.00 -1.00  1.00 -1.00  1.00 -1.00  1.00 -1.00  1.00 -1.00  1.00 -1.00
B_2g   1.00 -1.00  1.00 -1.00 -1.00  1.00  1.00 -1.00  1.00 -1.00 -1.00  1.00
E_1g   2.00  1.00 -1.00 -2.00  0.00  0.00  2.00  1.00 -1.00 -2.00  0.00  0.00
E_2g   2.00 -1.00 -1.00  2.00  0.00  0.00  2.00 -1.00 -1.00  2.00  0.00  0.00
A_1u   1.00  1.00  1.00  1.00  1.00  1.00 -1.00 -1.00 -1.00 -1.00 -1.00 -1.00
A_2u   1.00  1.00  1.00  1.00 -1.00 -1.00 -1.00 -1.00 -1.00 -1.00  1.00  1.00
B_1u   1.00 -1.00  1.00 -1.00  1.00 -1.00 -1.00  1.00 -1.00  1.00 -1.00  1.00
B_2u   1.00 -1.00  1.00 -1.00 -1.00  1.00 -1.00  1.00 -1.00  1.00  1.00 -1.00
E_1u   2.00  1.00 -1.00 -2.00  0.00  0.00 -2.00 -1.00  1.00  2.00  0.00  0.00
E_2u   2.00 -1.00 -1.00  2.00  0.00  0.00 -2.00  1.00  1.00 -2.00  0.00  0.00

     the symmetry operations in each class and the name of the first element:

     E        1
          identity                                               
     2C6      5    6
           60 deg rotation - cryst. axis [0,0,1]                 
     2C3      7    8
          120 deg rotation - cryst. axis [0,0,1]                 
     C2       2
          180 deg rotation - cart. axis [0,0,1]                  
     3C2'     4   12   11
          180 deg rotation - cart. axis [1,0,0]                  
     3C2''    3    9   10
          180 deg rotation - cart. axis [0,1,0]                  
     i       13
          inversion                                              
     2S3     17   18
          inv.  60 deg rotation - cryst. axis [0,0,1]            
     2S6     19   20
          inv. 120 deg rotation - cryst. axis [0,0,1]            
     s_h     14
          inv. 180 deg rotation - cart. axis [0,0,1]             
     3s_d    16   24   23
          inv. 180 deg rotation - cart. axis [1,0,0]             
     3s_v    15   21   22
          inv. 180 deg rotation - cart. axis [0,1,0]             

   Cartesian axes

     site n.     atom                  positions (alat units)
         1           Co  tau(   1) = (  -0.0000000   0.5773503   0.4115542  )
         2           Co  tau(   2) = (   0.5000000   0.2886751   1.2346626  )

   Crystallographic axes

     site n.     atom                  positions (cryst. coord.)
         1           Co  tau(   1) = (  0.3333333  0.6666667  0.2500000  )
         2           Co  tau(   2) = (  0.6666667  0.3333333  0.7500000  )

     number of k points=    76  Gaussian smearing, width (Ry)=  0.0010
                       cart. coord. in units 2pi/alat
        k(    1) = (   0.0000000   0.0000000   0.0000000), wk =   0.0011574
        k(    2) = (   0.0000000   0.0000000   0.1012422), wk =   0.0023148
        k(    3) = (   0.0000000   0.0000000   0.2024845), wk =   0.0023148
        k(    4) = (   0.0000000   0.0000000  -0.3037267), wk =   0.0011574
        k(    5) = (   0.0000000   0.0962250   0.0000000), wk =   0.0069444
        k(    6) = (   0.0000000   0.0962250   0.1012422), wk =   0.0138889
        k(    7) = (   0.0000000   0.0962250   0.2024845), wk =   0.0138889
        k(    8) = (   0.0000000   0.0962250  -0.3037267), wk =   0.0069444
        k(    9) = (   0.0000000   0.1924501   0.0000000), wk =   0.0069444
        k(   10) = (   0.0000000   0.1924501   0.1012422), wk =   0.0138889
        k(   11) = (   0.0000000   0.1924501   0.2024845), wk =   0.0138889
        k(   12) = (   0.0000000   0.1924501  -0.3037267), wk =   0.0069444
        k(   13) = (   0.0000000   0.2886751   0.0000000), wk =   0.0069444
        k(   14) = (   0.0000000   0.2886751   0.1012422), wk =   0.0138889
        k(   15) = (   0.0000000   0.2886751   0.2024845), wk =   0.0138889
        k(   16) = (   0.0000000   0.2886751  -0.3037267), wk =   0.0069444
        k(   17) = (   0.0000000   0.3849002   0.0000000), wk =   0.0069444
        k(   18) = (   0.0000000   0.3849002   0.1012422), wk =   0.0138889
        k(   19) = (   0.0000000   0.3849002   0.2024845), wk =   0.0138889
        k(   20) = (   0.0000000   0.3849002  -0.3037267), wk =   0.0069444
        k(   21) = (   0.0000000   0.4811252   0.0000000), wk =   0.0069444
        k(   22) = (   0.0000000   0.4811252   0.1012422), wk =   0.0138889
        k(   23) = (   0.0000000   0.4811252   0.2024845), wk =   0.0138889
        k(   24) = (   0.0000000   0.4811252  -0.3037267), wk =   0.0069444
        k(   25) = (   0.0000000  -0.5773503   0.0000000), wk =   0.0034722
        k(   26) = (   0.0000000  -0.5773503   0.1012422), wk =   0.0069444
        k(   27) = (   0.0000000  -0.5773503   0.2024845), wk =   0.0069444
        k(   28) = (   0.0000000  -0.5773503  -0.3037267), wk =   0.0034722
        k(   29) = (   0.0833333   0.1443376   0.0000000), wk =   0.0069444
        k(   30) = (   0.0833333   0.1443376   0.1012422), wk =   0.0138889
        k(   31) = (   0.0833333   0.1443376   0.2024845), wk =   0.0138889
        k(   32) = (   0.0833333   0.1443376  -0.3037267), wk =   0.0069444
        k(   33) = (   0.0833333   0.2405626   0.0000000), wk =   0.0138889
        k(   34) = (   0.0833333   0.2405626   0.1012422), wk =   0.0277778
        k(   35) = (   0.0833333   0.2405626   0.2024845), wk =   0.0277778
        k(   36) = (   0.0833333   0.2405626  -0.3037267), wk =   0.0138889
        k(   37) = (   0.0833333   0.3367877   0.0000000), wk =   0.0138889
        k(   38) = (   0.0833333   0.3367877   0.1012422), wk =   0.0277778
        k(   39) = (   0.0833333   0.3367877   0.2024845), wk =   0.0277778
        k(   40) = (   0.0833333   0.3367877  -0.3037267), wk =   0.0138889
        k(   41) = (   0.0833333   0.4330127   0.0000000), wk =   0.0138889
        k(   42) = (   0.0833333   0.4330127   0.1012422), wk =   0.0277778
        k(   43) = (   0.0833333   0.4330127   0.2024845), wk =   0.0277778
        k(   44) = (   0.0833333   0.4330127  -0.3037267), wk =   0.0138889
        k(   45) = (   0.0833333   0.5292377   0.0000000), wk =   0.0138889
        k(   46) = (   0.0833333   0.5292377   0.1012422), wk =   0.0277778
        k(   47) = (   0.0833333   0.5292377   0.2024845), wk =   0.0277778
        k(   48) = (   0.0833333   0.5292377  -0.3037267), wk =   0.0138889
        k(   49) = (   0.1666667   0.2886751   0.0000000), wk =   0.0069444
        k(   50) = (   0.1666667   0.2886751   0.1012422), wk =   0.0138889
        k(   51) = (   0.1666667   0.2886751   0.2024845), wk =   0.0138889
        k(   52) = (   0.1666667   0.2886751  -0.3037267), wk =   0.0069444
        k(   53) = (   0.1666667   0.3849002   0.0000000), wk =   0.0138889
        k(   54) = (   0.1666667   0.3849002   0.1012422), wk =   0.0277778
        k(   55) = (   0.1666667   0.3849002   0.2024845), wk =   0.0277778
        k(   56) = (   0.1666667   0.3849002  -0.3037267), wk =   0.0138889
        k(   57) = (   0.1666667   0.4811252   0.0000000), wk =   0.0138889
        k(   58) = (   0.1666667   0.4811252   0.1012422), wk =   0.0277778
        k(   59) = (   0.1666667   0.4811252   0.2024845), wk =   0.0277778
        k(   60) = (   0.1666667   0.4811252  -0.3037267), wk =   0.0138889
        k(   61) = (   0.1666667   0.5773503   0.0000000), wk =   0.0069444
        k(   62) = (   0.1666667   0.5773503   0.1012422), wk =   0.0138889
        k(   63) = (   0.1666667   0.5773503   0.2024845), wk =   0.0138889
        k(   64) = (   0.1666667   0.5773503  -0.3037267), wk =   0.0069444
        k(   65) = (   0.2500000   0.4330127   0.0000000), wk =   0.0069444
        k(   66) = (   0.2500000   0.4330127   0.1012422), wk =   0.0138889
        k(   67) = (   0.2500000   0.4330127   0.2024845), wk =   0.0138889
        k(   68) = (   0.2500000   0.4330127  -0.3037267), wk =   0.0069444
        k(   69) = (   0.2500000   0.5292377   0.0000000), wk =   0.0138889
        k(   70) = (   0.2500000   0.5292377   0.1012422), wk =   0.0277778
        k(   71) = (   0.2500000   0.5292377   0.2024845), wk =   0.0277778
        k(   72) = (   0.2500000   0.5292377  -0.3037267), wk =   0.0138889
        k(   73) = (   0.3333333   0.5773503   0.0000000), wk =   0.0023148
        k(   74) = (   0.3333333   0.5773503   0.1012422), wk =   0.0046296
        k(   75) = (   0.3333333   0.5773503   0.2024845), wk =   0.0046296
        k(   76) = (   0.3333333   0.5773503  -0.3037267), wk =   0.0023148

                       cryst. coord.
        k(    1) = (   0.0000000   0.0000000   0.0000000), wk =   0.0011574
        k(    2) = (   0.0000000   0.0000000   0.1666667), wk =   0.0023148
        k(    3) = (   0.0000000   0.0000000   0.3333333), wk =   0.0023148
        k(    4) = (   0.0000000   0.0000000  -0.5000000), wk =   0.0011574
        k(    5) = (   0.0000000   0.0833333   0.0000000), wk =   0.0069444
        k(    6) = (   0.0000000   0.0833333   0.1666667), wk =   0.0138889
        k(    7) = (   0.0000000   0.0833333   0.3333333), wk =   0.0138889
        k(    8) = (   0.0000000   0.0833333  -0.5000000), wk =   0.0069444
        k(    9) = (   0.0000000   0.1666667   0.0000000), wk =   0.0069444
        k(   10) = (   0.0000000   0.1666667   0.1666667), wk =   0.0138889
        k(   11) = (   0.0000000   0.1666667   0.3333333), wk =   0.0138889
        k(   12) = (   0.0000000   0.1666667  -0.5000000), wk =   0.0069444
        k(   13) = (   0.0000000   0.2500000   0.0000000), wk =   0.0069444
        k(   14) = (   0.0000000   0.2500000   0.1666667), wk =   0.0138889
        k(   15) = (   0.0000000   0.2500000   0.3333333), wk =   0.0138889
        k(   16) = (   0.0000000   0.2500000  -0.5000000), wk =   0.0069444
        k(   17) = (   0.0000000   0.3333333   0.0000000), wk =   0.0069444
        k(   18) = (   0.0000000   0.3333333   0.1666667), wk =   0.0138889
        k(   19) = (   0.0000000   0.3333333   0.3333333), wk =   0.0138889
        k(   20) = (   0.0000000   0.3333333  -0.5000000), wk =   0.0069444
        k(   21) = (   0.0000000   0.4166667   0.0000000), wk =   0.0069444
        k(   22) = (   0.0000000   0.4166667   0.1666667), wk =   0.0138889
        k(   23) = (   0.0000000   0.4166667   0.3333333), wk =   0.0138889
        k(   24) = (   0.0000000   0.4166667  -0.5000000), wk =   0.0069444
        k(   25) = (   0.0000000  -0.5000000   0.0000000), wk =   0.0034722
        k(   26) = (   0.0000000  -0.5000000   0.1666667), wk =   0.0069444
        k(   27) = (   0.0000000  -0.5000000   0.3333333), wk =   0.0069444
        k(   28) = (   0.0000000  -0.5000000  -0.5000000), wk =   0.0034722
        k(   29) = (   0.0833333   0.0833333   0.0000000), wk =   0.0069444
        k(   30) = (   0.0833333   0.0833333   0.1666667), wk =   0.0138889
        k(   31) = (   0.0833333   0.0833333   0.3333333), wk =   0.0138889
        k(   32) = (   0.0833333   0.0833333  -0.5000000), wk =   0.0069444
        k(   33) = (   0.0833333   0.1666667   0.0000000), wk =   0.0138889
        k(   34) = (   0.0833333   0.1666667   0.1666667), wk =   0.0277778
        k(   35) = (   0.0833333   0.1666667   0.3333333), wk =   0.0277778
        k(   36) = (   0.0833333   0.1666667  -0.5000000), wk =   0.0138889
        k(   37) = (   0.0833333   0.2500000   0.0000000), wk =   0.0138889
        k(   38) = (   0.0833333   0.2500000   0.1666667), wk =   0.0277778
        k(   39) = (   0.0833333   0.2500000   0.3333333), wk =   0.0277778
        k(   40) = (   0.0833333   0.2500000  -0.5000000), wk =   0.0138889
        k(   41) = (   0.0833333   0.3333333   0.0000000), wk =   0.0138889
        k(   42) = (   0.0833333   0.3333333   0.1666667), wk =   0.0277778
        k(   43) = (   0.0833333   0.3333333   0.3333333), wk =   0.0277778
        k(   44) = (   0.0833333   0.3333333  -0.5000000), wk =   0.0138889
        k(   45) = (   0.0833333   0.4166667   0.0000000), wk =   0.0138889
        k(   46) = (   0.0833333   0.4166667   0.1666667), wk =   0.0277778
        k(   47) = (   0.0833333   0.4166667   0.3333333), wk =   0.0277778
        k(   48) = (   0.0833333   0.4166667  -0.5000000), wk =   0.0138889
        k(   49) = (   0.1666667   0.1666667   0.0000000), wk =   0.0069444
        k(   50) = (   0.1666667   0.1666667   0.1666667), wk =   0.0138889
        k(   51) = (   0.1666667   0.1666667   0.3333333), wk =   0.0138889
        k(   52) = (   0.1666667   0.1666667  -0.5000000), wk =   0.0069444
        k(   53) = (   0.1666667   0.2500000   0.0000000), wk =   0.0138889
        k(   54) = (   0.1666667   0.2500000   0.1666667), wk =   0.0277778
        k(   55) = (   0.1666667   0.2500000   0.3333333), wk =   0.0277778
        k(   56) = (   0.1666667   0.2500000  -0.5000000), wk =   0.0138889
        k(   57) = (   0.1666667   0.3333333   0.0000000), wk =   0.0138889
        k(   58) = (   0.1666667   0.3333333   0.1666667), wk =   0.0277778
        k(   59) = (   0.1666667   0.3333333   0.3333333), wk =   0.0277778
        k(   60) = (   0.1666667   0.3333333  -0.5000000), wk =   0.0138889
        k(   61) = (   0.1666667   0.4166667   0.0000000), wk =   0.0069444
        k(   62) = (   0.1666667   0.4166667   0.1666667), wk =   0.0138889
        k(   63) = (   0.1666667   0.4166667   0.3333333), wk =   0.0138889
        k(   64) = (   0.1666667   0.4166667  -0.5000000), wk =   0.0069444
        k(   65) = (   0.2500000   0.2500000   0.0000000), wk =   0.0069444
        k(   66) = (   0.2500000   0.2500000   0.1666667), wk =   0.0138889
        k(   67) = (   0.2500000   0.2500000   0.3333333), wk =   0.0138889
        k(   68) = (   0.2500000   0.2500000  -0.5000000), wk =   0.0069444
        k(   69) = (   0.2500000   0.3333333   0.0000000), wk =   0.0138889
        k(   70) = (   0.2500000   0.3333333   0.1666667), wk =   0.0277778
        k(   71) = (   0.2500000   0.3333333   0.3333333), wk =   0.0277778
        k(   72) = (   0.2500000   0.3333333  -0.5000000), wk =   0.0138889
        k(   73) = (   0.3333333   0.3333333   0.0000000), wk =   0.0023148
        k(   74) = (   0.3333333   0.3333333   0.1666667), wk =   0.0046296
        k(   75) = (   0.3333333   0.3333333   0.3333333), wk =   0.0046296
        k(   76) = (   0.3333333   0.3333333  -0.5000000), wk =   0.0023148

     Dense  grid:    22635 G-vectors     FFT dimensions: (  32,  32,  54)

     Smooth grid:    21903 G-vectors     FFT dimensions: (  32,  32,  54)

     Dynamical RAM for                 wfc:       0.04 MB

     Dynamical RAM for     wfc (w. buffer):       6.72 MB

     Dynamical RAM for           str. fact:       0.02 MB

     Dynamical RAM for           local pot:       0.00 MB

     Dynamical RAM for          nlocal pot:       0.08 MB

     Dynamical RAM for                qrad:       1.70 MB

     Dynamical RAM for          rho,v,vnew:       0.24 MB

     Dynamical RAM for               rhoin:       0.08 MB

     Dynamical RAM for            rho*nmix:       0.55 MB

     Dynamical RAM for           G-vectors:       0.07 MB

     Dynamical RAM for          h,s,v(r/c):       0.08 MB

     Dynamical RAM for          <psi|beta>:       0.01 MB

     Dynamical RAM for                 psi:       0.09 MB

     Dynamical RAM for                hpsi:       0.09 MB

     Dynamical RAM for                spsi:       0.09 MB

     Dynamical RAM for      wfcinit/wfcrot:       0.10 MB

     Dynamical RAM for           addusdens:       3.27 MB

     Estimated static dynamical RAM per process >       9.09 MB

     Estimated max dynamical RAM per process >      12.91 MB

     Estimated total dynamical RAM >     258.27 MB

     Check: negative core charge=   -0.000045
     Generating pointlists ...
     new r_m :   0.4125 (alat units)  1.9059 (a.u.) for type    1

     The initial density is read from file :
     ./out/Co.save/charge-density


     starting charge      34.0549, renormalised to      34.0000

     negative rho (up, down):  1.605E-01 1.366E-01
     Starting wfcs from file
     Checking if some PAW data can be deallocated... 

     total cpu time spent up to now is        0.6 secs

     Self-consistent Calculation

     iteration #  1     ecut=   110.00 Ry     beta= 0.70
     Davidson diagonalization with overlap

---- Real-time Memory Report at c_bands before calling an iterative solver
            56 MiB given to the printing process from OS
             0 MiB allocation reported by mallinfo(arena+hblkhd)
        240943 MiB available memory on the node where the printing process lives
------------------
     ethr =  1.00E-05,  avg # of iterations = 15.6

     negative rho (up, down):  1.382E-03 9.137E-04

     total cpu time spent up to now is        8.0 secs

     total energy              =    -753.24256739 Ry
     estimated scf accuracy    <       0.08026443 Ry

     total magnetization       =     3.21 Bohr mag/cell
     absolute magnetization    =     3.48 Bohr mag/cell

     iteration #  2     ecut=   110.00 Ry     beta= 0.70
     Davidson diagonalization with overlap

---- Real-time Memory Report at c_bands before calling an iterative solver
            77 MiB given to the printing process from OS
             0 MiB allocation reported by mallinfo(arena+hblkhd)
        240747 MiB available memory on the node where the printing process lives
------------------
     ethr =  2.36E-04,  avg # of iterations =  3.9

     negative rho (up, down):  2.431E-04 6.537E-05

     total cpu time spent up to now is        9.8 secs

     total energy              =    -753.31779254 Ry
     estimated scf accuracy    <       0.07542782 Ry

     total magnetization       =     3.11 Bohr mag/cell
     absolute magnetization    =     3.34 Bohr mag/cell

     iteration #  3     ecut=   110.00 Ry     beta= 0.70
     Davidson diagonalization with overlap

---- Real-time Memory Report at c_bands before calling an iterative solver
            78 MiB given to the printing process from OS
             0 MiB allocation reported by mallinfo(arena+hblkhd)
        240734 MiB available memory on the node where the printing process lives
------------------
     ethr =  2.22E-04,  avg # of iterations =  3.7

     total cpu time spent up to now is       11.5 secs

     total energy              =    -753.45182440 Ry
     estimated scf accuracy    <       0.01053884 Ry

     total magnetization       =     3.15 Bohr mag/cell
     absolute magnetization    =     3.42 Bohr mag/cell

     iteration #  4     ecut=   110.00 Ry     beta= 0.70
     Davidson diagonalization with overlap

---- Real-time Memory Report at c_bands before calling an iterative solver
            79 MiB given to the printing process from OS
             0 MiB allocation reported by mallinfo(arena+hblkhd)
        240722 MiB available memory on the node where the printing process lives
------------------
     ethr =  3.10E-05,  avg # of iterations =  4.5

     total cpu time spent up to now is       13.6 secs

     total energy              =    -753.45069638 Ry
     estimated scf accuracy    <       0.01519948 Ry

     total magnetization       =     3.16 Bohr mag/cell
     absolute magnetization    =     3.45 Bohr mag/cell

     iteration #  5     ecut=   110.00 Ry     beta= 0.70
     Davidson diagonalization with overlap

---- Real-time Memory Report at c_bands before calling an iterative solver
            80 MiB given to the printing process from OS
             0 MiB allocation reported by mallinfo(arena+hblkhd)
        240712 MiB available memory on the node where the printing process lives
------------------
     ethr =  3.10E-05,  avg # of iterations =  2.1

     total cpu time spent up to now is       15.1 secs

     total energy              =    -753.45240415 Ry
     estimated scf accuracy    <       0.00083992 Ry

     total magnetization       =     3.14 Bohr mag/cell
     absolute magnetization    =     3.44 Bohr mag/cell

     iteration #  6     ecut=   110.00 Ry     beta= 0.70
     Davidson diagonalization with overlap

---- Real-time Memory Report at c_bands before calling an iterative solver
            81 MiB given to the printing process from OS
             0 MiB allocation reported by mallinfo(arena+hblkhd)
        240703 MiB available memory on the node where the printing process lives
------------------
     ethr =  2.47E-06,  avg # of iterations =  5.8

     total cpu time spent up to now is       17.5 secs

     total energy              =    -753.45330922 Ry
     estimated scf accuracy    <       0.00042149 Ry

     total magnetization       =     3.14 Bohr mag/cell
     absolute magnetization    =     3.45 Bohr mag/cell

     iteration #  7     ecut=   110.00 Ry     beta= 0.70
     Davidson diagonalization with overlap

---- Real-time Memory Report at c_bands before calling an iterative solver
            81 MiB given to the printing process from OS
             0 MiB allocation reported by mallinfo(arena+hblkhd)
        240696 MiB available memory on the node where the printing process lives
------------------
     ethr =  1.24E-06,  avg # of iterations =  1.2

     total cpu time spent up to now is       18.8 secs

     total energy              =    -753.45329222 Ry
     estimated scf accuracy    <       0.00016796 Ry

     total magnetization       =     3.14 Bohr mag/cell
     absolute magnetization    =     3.45 Bohr mag/cell

     iteration #  8     ecut=   110.00 Ry     beta= 0.70
     Davidson diagonalization with overlap

---- Real-time Memory Report at c_bands before calling an iterative solver
            82 MiB given to the printing process from OS
             0 MiB allocation reported by mallinfo(arena+hblkhd)
        240690 MiB available memory on the node where the printing process lives
------------------
     ethr =  4.94E-07,  avg # of iterations =  2.0

     total cpu time spent up to now is       20.2 secs

     total energy              =    -753.45329141 Ry
     estimated scf accuracy    <       0.00003287 Ry

     total magnetization       =     3.15 Bohr mag/cell
     absolute magnetization    =     3.45 Bohr mag/cell

     iteration #  9     ecut=   110.00 Ry     beta= 0.70
     Davidson diagonalization with overlap

---- Real-time Memory Report at c_bands before calling an iterative solver
            82 MiB given to the printing process from OS
             0 MiB allocation reported by mallinfo(arena+hblkhd)
        240686 MiB available memory on the node where the printing process lives
------------------
     ethr =  9.67E-08,  avg # of iterations =  5.6

     total cpu time spent up to now is       22.6 secs

     total energy              =    -753.45333261 Ry
     estimated scf accuracy    <       0.00003757 Ry

     total magnetization       =     3.15 Bohr mag/cell
     absolute magnetization    =     3.46 Bohr mag/cell

     iteration # 10     ecut=   110.00 Ry     beta= 0.70
     Davidson diagonalization with overlap

---- Real-time Memory Report at c_bands before calling an iterative solver
            84 MiB given to the printing process from OS
             0 MiB allocation reported by mallinfo(arena+hblkhd)
        240680 MiB available memory on the node where the printing process lives
------------------
     ethr =  9.67E-08,  avg # of iterations =  1.9

     total cpu time spent up to now is       24.0 secs

     total energy              =    -753.45329983 Ry
     estimated scf accuracy    <       0.00007037 Ry

     total magnetization       =     3.15 Bohr mag/cell
     absolute magnetization    =     3.46 Bohr mag/cell

     iteration # 11     ecut=   110.00 Ry     beta= 0.70
     Davidson diagonalization with overlap

---- Real-time Memory Report at c_bands before calling an iterative solver
            84 MiB given to the printing process from OS
             0 MiB allocation reported by mallinfo(arena+hblkhd)
        240678 MiB available memory on the node where the printing process lives
------------------
     ethr =  9.67E-08,  avg # of iterations =  4.0

     total cpu time spent up to now is       26.1 secs

     total energy              =    -753.45332003 Ry
     estimated scf accuracy    <       0.00000642 Ry

     total magnetization       =     3.15 Bohr mag/cell
     absolute magnetization    =     3.46 Bohr mag/cell

     iteration # 12     ecut=   110.00 Ry     beta= 0.70
     Davidson diagonalization with overlap

---- Real-time Memory Report at c_bands before calling an iterative solver
            85 MiB given to the printing process from OS
             0 MiB allocation reported by mallinfo(arena+hblkhd)
        240676 MiB available memory on the node where the printing process lives
------------------
     ethr =  1.89E-08,  avg # of iterations =  2.1

     total cpu time spent up to now is       27.5 secs

     total energy              =    -753.45331882 Ry
     estimated scf accuracy    <       0.00000471 Ry

     total magnetization       =     3.16 Bohr mag/cell
     absolute magnetization    =     3.46 Bohr mag/cell

     iteration # 13     ecut=   110.00 Ry     beta= 0.70
     Davidson diagonalization with overlap

---- Real-time Memory Report at c_bands before calling an iterative solver
            86 MiB given to the printing process from OS
             0 MiB allocation reported by mallinfo(arena+hblkhd)
        240674 MiB available memory on the node where the printing process lives
------------------
     ethr =  1.38E-08,  avg # of iterations =  2.8
 
     Magnetic moment per site  (integrated on atomic sphere of radius R)
     atom   1 (R=0.413)  charge= 15.5619  magn=  1.6489
     atom   2 (R=0.413)  charge= 15.5619  magn=  1.6489

     total cpu time spent up to now is       29.1 secs

     End of self-consistent calculation

 ------ SPIN UP ------------


          k = 0.0000 0.0000 0.0000 (  2767 PWs)   bands (ev):

   -76.5006 -76.4380 -39.9127 -39.5842 -39.5842 -39.5511 -39.5349 -39.5349
    10.3777  14.2270  16.8433  16.9678  16.9678  17.2833  17.2833  17.7290
    17.7290  18.8381  18.8381  19.1536  26.0337

     occupation numbers 
     1.0000   1.0000   1.0000   1.0000   1.0000   1.0000   1.0000   1.0000
     1.0000   1.0000   1.0000   1.0000   1.0000   1.0000   1.0000   1.0000
     1.0000   1.0000   1.0000   1.0000   0.0000

          k = 0.0000 0.0000 0.1012 (  2761 PWs)   bands (ev):

   -76.4965 -76.4422 -39.8888 -39.5809 -39.5809 -39.5756 -39.5382 -39.5382
    10.6565  14.1492  16.7722  16.9122  16.9122  17.2130  17.2130  17.8835
    17.8835  18.2415  18.8177  18.8177  27.5159

     occupation numbers 
     1.0000   1.0000   1.0000   1.0000   1.0000   1.0000   1.0000   1.0000
     1.0000   1.0000   1.0000   1.0000   1.0000   1.0000   1.0000   1.0000
     1.0000   1.0000   1.0000   1.0000   0.0000

          k = 0.0000 0.0000 0.2025 (  2750 PWs)   bands (ev):

   -76.4850 -76.4537 -39.8233 -39.6425 -39.5719 -39.5719 -39.5472 -39.5472
    11.4548  13.6896  16.6082  16.8640  16.8640  16.9683  17.0566  17.0566
    18.2002  18.2002  18.7220  18.7220  30.6946

     occupation numbers 
     1.0000   1.0000   1.0000   1.0000   1.0000   1.0000   1.0000   1.0000
     1.0000   1.0000   1.0000   1.0000   1.0000   1.0000   1.0000   1.0000
     1.0000   1.0000   1.0000   1.0000   0.0000

          k = 0.0000 0.0000-0.3037 (  2774 PWs)   bands (ev):

   -76.4694 -76.4694 -39.7333 -39.7333 -39.5595 -39.5595 -39.5595 -39.5595
    12.6155  12.6155  16.5297  16.5297  16.9160  16.9160  16.9160  16.9160
    18.5094  18.5094  18.5094  18.5094  34.5065

     occupation numbers 
     1.0000   1.0000   1.0000   1.0000   1.0000   1.0000   1.0000   1.0000
     1.0000   1.0000   1.0000   1.0000   1.0000   1.0000   1.0000   1.0000
     1.0000   1.0000   1.0000   1.0000   0.0000

          k = 0.0000 0.0962 0.0000 (  2747 PWs)   bands (ev):

   -76.4967 -76.4359 -39.9046 -39.6034 -39.5902 -39.5547 -39.5541 -39.5382
    10.6302  14.3852  16.6845  17.0899  17.0911  17.2261  17.3937  17.5252
    17.6531  17.9070  18.8683  20.4486  26.0705

     occupation numbers 
     1.0000   1.0000   1.0000   1.0000   1.0000   1.0000   1.0000   1.0000
     1.0000   1.0000   1.0000   1.0000   1.0000   1.0000   1.0000   1.0000
     1.0000   1.0000   1.0000   0.0000   0.0000

          k = 0.0000 0.0962 0.1012 (  2747 PWs)   bands (ev):

   -76.4926 -76.4400 -39.8820 -39.5996 -39.5868 -39.5842 -39.5515 -39.5417
    10.9045  14.3218  16.6838  16.9257  17.0209  17.0313  17.3178  17.5554
    17.8324  17.8831  18.8404  19.7429  27.6239

     occupation numbers 
     1.0000   1.0000   1.0000   1.0000   1.0000   1.0000   1.0000   1.0000
     1.0000   1.0000   1.0000   1.0000   1.0000   1.0000   1.0000   1.0000
     1.0000   1.0000   1.0000   0.0000   0.0000

          k = 0.0000 0.0962 0.2025 (  2750 PWs)   bands (ev):

   -76.4816 -76.4512 -39.8201 -39.6489 -39.5890 -39.5772 -39.5607 -39.5512
    11.6897  13.8889  16.5526  16.5978  16.7734  16.9647  17.1595  17.1752
    18.1702  18.2130  18.7272  19.0218  30.8519

     occupation numbers 
     1.0000   1.0000   1.0000   1.0000   1.0000   1.0000   1.0000   1.0000
     1.0000   1.0000   1.0000   1.0000   1.0000   1.0000   1.0000   1.0000
     1.0000   1.0000   1.0000   1.0000   0.0000

          k = 0.0000 0.0962-0.3037 (  2774 PWs)   bands (ev):

   -76.4664 -76.4664 -39.7349 -39.7349 -39.5747 -39.5747 -39.5643 -39.5643
    12.8318  12.8318  16.3988  16.3988  16.9063  16.9063  17.0173  17.0173
    18.4960  18.4960  18.6012  18.6012  34.6823

     occupation numbers 
     1.0000   1.0000   1.0000   1.0000   1.0000   1.0000   1.0000   1.0000
     1.0000   1.0000   1.0000   1.0000   1.0000   1.0000   1.0000   1.0000
     1.0000   1.0000   1.0000   1.0000   0.0000

          k = 0.0000 0.1925 0.0000 (  2743 PWs)   bands (ev):

   -76.4858 -76.4306 -39.8814 -39.6561 -39.6083 -39.6065 -39.5631 -39.5476
    11.3589  14.7767  16.4123  16.6665  17.0178  17.4102  17.4396  17.4664
    17.6042  17.7034  18.9313  22.1040  26.2026

     occupation numbers 
     1.0000   1.0000   1.0000   1.0000   1.0000   1.0000   1.0000   1.0000
     1.0000   1.0000   1.0000   1.0000   1.0000   1.0000   1.0000   1.0000
     1.0000   1.0000   1.0000   0.0000   0.0000

          k = 0.0000 0.1925 0.1012 (  2745 PWs)   bands (ev):

   -76.4821 -76.4343 -39.8632 -39.6506 -39.6257 -39.6025 -39.5698 -39.5516
    11.6162  14.7580  16.3828  16.4567  16.8963  17.2677  17.2901  17.5914
    17.7911  17.8619  18.8867  21.0068  27.9777

     occupation numbers 
     1.0000   1.0000   1.0000   1.0000   1.0000   1.0000   1.0000   1.0000
     1.0000   1.0000   1.0000   1.0000   1.0000   1.0000   1.0000   1.0000
     1.0000   1.0000   1.0000   0.0000   0.0000

          k = 0.0000 0.1925 0.2025 (  2738 PWs)   bands (ev):

   -76.4720 -76.4444 -39.8134 -39.6772 -39.6324 -39.5918 -39.5872 -39.5623
    12.3498  14.4033  16.0421  16.5234  16.5978  17.1105  17.2140  17.4441
    18.1338  18.2885  18.7376  19.6756  31.3235

     occupation numbers 
     1.0000   1.0000   1.0000   1.0000   1.0000   1.0000   1.0000   1.0000
     1.0000   1.0000   1.0000   1.0000   1.0000   1.0000   1.0000   1.0000
     1.0000   1.0000   1.0000   0.0000   0.0000

          k = 0.0000 0.1925-0.3037 (  2758 PWs)   bands (ev):

   -76.4582 -76.4582 -39.7452 -39.7452 -39.6101 -39.6101 -39.5771 -39.5771
    13.4118  13.4118  16.1724  16.1724  16.8266  16.8266  17.2879  17.2879
    18.4750  18.4750  18.8490  18.8490  35.1706

     occupation numbers 
     1.0000   1.0000   1.0000   1.0000   1.0000   1.0000   1.0000   1.0000
     1.0000   1.0000   1.0000   1.0000   1.0000   1.0000   1.0000   1.0000
     1.0000   1.0000   1.0000   1.0000   0.0000

          k = 0.0000 0.2887 0.0000 (  2749 PWs)   bands (ev):

   -76.4704 -76.4238 -39.8467 -39.7286 -39.6803 -39.6280 -39.5784 -39.5610
    12.4560  15.0859  15.9025  16.2495  16.8981  17.2421  17.3788  17.8774
    17.9460  18.1488  18.9884  23.9519  26.4648

     occupation numbers 
     1.0000   1.0000   1.0000   1.0000   1.0000   1.0000   1.0000   1.0000
     1.0000   1.0000   1.0000   1.0000   1.0000   1.0000   1.0000   1.0000
     1.0000   1.0000   1.0000   0.0000   0.0000

          k = 0.0000 0.2887 0.1012 (  2739 PWs)   bands (ev):

   -76.4672 -76.4269 -39.8393 -39.7174 -39.6932 -39.6236 -39.5844 -39.5655
    12.6677  15.1209  15.7572  16.3064  16.7480  17.2820  17.3641  17.9881
    18.0209  18.1080  18.9298  22.3186  28.6212

     occupation numbers 
     1.0000   1.0000   1.0000   1.0000   1.0000   1.0000   1.0000   1.0000
     1.0000   1.0000   1.0000   1.0000   1.0000   1.0000   1.0000   1.0000
     1.0000   1.0000   1.0000   0.0000   0.0000

          k = 0.0000 0.2887 0.2025 (  2726 PWs)   bands (ev):

   -76.4587 -76.4354 -39.8161 -39.7356 -39.6784 -39.6113 -39.6046 -39.5778
    13.2574  14.8514  15.6994  16.3200  16.6326  17.1934  17.4069  17.8436
    18.2605  18.4437  18.7623  20.4594  32.0054

     occupation numbers 
     1.0000   1.0000   1.0000   1.0000   1.0000   1.0000   1.0000   1.0000
     1.0000   1.0000   1.0000   1.0000   1.0000   1.0000   1.0000   1.0000
     1.0000   1.0000   1.0000   0.0000   0.0000

          k = 0.0000 0.2887-0.3037 (  2730 PWs)   bands (ev):

   -76.4471 -76.4471 -39.7788 -39.7788 -39.6387 -39.6387 -39.5946 -39.5946
    14.0766  14.0766  16.0069  16.0069  16.8915  16.8915  17.6094  17.6094
    18.5186  18.5186  19.1979  19.1979  34.5129

     occupation numbers 
     1.0000   1.0000   1.0000   1.0000   1.0000   1.0000   1.0000   1.0000
     1.0000   1.0000   1.0000   1.0000   1.0000   1.0000   1.0000   1.0000
     1.0000   1.0000   1.0000   1.0000   0.0000

          k = 0.0000 0.3849 0.0000 (  2736 PWs)   bands (ev):

   -76.4539 -76.4179 -39.8063 -39.8017 -39.7509 -39.6491 -39.5995 -39.5748
    13.6401  15.0036  15.3567  16.3696  17.0325  17.0401  17.1677  18.4884
    18.6282  18.6309  19.0254  25.9577  26.5613

     occupation numbers 
     1.0000   1.0000   1.0000   1.0000   1.0000   1.0000   1.0000   1.0000
     1.0000   1.0000   1.0000   1.0000   1.0000   1.0000   1.0000   1.0000
     1.0000   1.0000   1.0000   0.0000   0.0000

          k = 0.0000 0.3849 0.1012 (  2736 PWs)   bands (ev):

   -76.4515 -76.4203 -39.8367 -39.7726 -39.7473 -39.6442 -39.6018 -39.5798
    13.7313  15.0221  15.4034  16.2028  16.9722  17.1357  17.5302  18.5002
    18.5407  18.5642  18.9745  23.5817  28.8960

     occupation numbers 
     1.0000   1.0000   1.0000   1.0000   1.0000   1.0000   1.0000   1.0000
     1.0000   1.0000   1.0000   1.0000   1.0000   1.0000   1.0000   1.0000
     1.0000   1.0000   1.0000   0.0000   0.0000

          k = 0.0000 0.3849 0.2025 (  2732 PWs)   bands (ev):

   -76.4449 -76.4269 -39.8461 -39.8015 -39.6955 -39.6306 -39.6153 -39.5934
    13.9949  14.8258  15.5618  16.0832  17.1035  17.4051  17.8607  18.2065
    18.6109  18.6847  18.8622  21.3544  30.1694

     occupation numbers 
     1.0000   1.0000   1.0000   1.0000   1.0000   1.0000   1.0000   1.0000
     1.0000   1.0000   1.0000   1.0000   1.0000   1.0000   1.0000   1.0000
     1.0000   1.0000   1.0000   0.0000   0.0000

          k = 0.0000 0.3849-0.3037 (  2734 PWs)   bands (ev):

   -76.4359 -76.4359 -39.8319 -39.8319 -39.6473 -39.6473 -39.6120 -39.6120
    14.3941  14.3941  15.8559  15.8559  17.5376  17.5376  17.7939  17.7939
    18.7321  18.7321  19.6826  19.6826  31.2832

     occupation numbers 
     1.0000   1.0000   1.0000   1.0000   1.0000   1.0000   1.0000   1.0000
     1.0000   1.0000   1.0000   1.0000   1.0000   1.0000   1.0000   1.0000
     1.0000   1.0000   0.0000   0.0000   0.0000

          k = 0.0000 0.4811 0.0000 (  2736 PWs)   bands (ev):

   -76.4405 -76.4149 -39.8555 -39.8019 -39.7691 -39.6643 -39.6225 -39.5851
    14.3991  14.8005  15.0321  16.7474  16.9021  17.0171  17.2609  18.8971
    19.0288  19.0439  19.8166  24.8613  28.0233

     occupation numbers 
     1.0000   1.0000   1.0000   1.0000   1.0000   1.0000   1.0000   1.0000
     1.0000   1.0000   1.0000   1.0000   1.0000   1.0000   1.0000   1.0000
     1.0000   1.0000   0.0000   0.0000   0.0000

          k = 0.0000 0.4811 0.1012 (  2740 PWs)   bands (ev):

   -76.4388 -76.4167 -39.8709 -39.8184 -39.7391 -39.6590 -39.6205 -39.5904
    14.2776  14.7816  15.3665  16.0860  17.0183  17.2736  17.9091  18.7975
    18.9235  19.0844  19.6436  23.9813  27.5323

     occupation numbers 
     1.0000   1.0000   1.0000   1.0000   1.0000   1.0000   1.0000   1.0000
     1.0000   1.0000   1.0000   1.0000   1.0000   1.0000   1.0000   1.0000
     1.0000   1.0000   0.0000   0.0000   0.0000

          k = 0.0000 0.4811 0.2025 (  2738 PWs)   bands (ev):

   -76.4341 -76.4213 -39.8846 -39.8505 -39.6889 -39.6446 -39.6245 -39.6049
    14.2325  14.7060  15.5454  15.8635  17.3479  17.5589  18.3633  18.9581
    18.9585  19.0600  19.2555  22.2010  27.7427

     occupation numbers 
     1.0000   1.0000   1.0000   1.0000   1.0000   1.0000   1.0000   1.0000
     1.0000   1.0000   1.0000   1.0000   1.0000   1.0000   1.0000   1.0000
     1.0000   1.0000   1.0000   0.0000   0.0000

          k = 0.0000 0.4811-0.3037 (  2742 PWs)   bands (ev):

   -76.4277 -76.4277 -39.8770 -39.8770 -39.6472 -39.6472 -39.6248 -39.6248
    14.4144  14.4144  15.7192  15.7192  17.8313  17.8313  18.3095  18.3095
    19.0106  19.0106  20.5151  20.5151  28.5168

     occupation numbers 
     1.0000   1.0000   1.0000   1.0000   1.0000   1.0000   1.0000   1.0000
     1.0000   1.0000   1.0000   1.0000   1.0000   1.0000   1.0000   1.0000
     1.0000   1.0000   0.0000   0.0000   0.0000

          k = 0.0000-0.5774 0.0000 (  2722 PWs)   bands (ev):

   -76.4350 -76.4145 -39.8752 -39.8204 -39.7518 -39.6698 -39.6346 -39.5888
    14.6315  14.6738  14.9246  16.8533  16.9627  17.0158  17.3383  19.0452
    19.0492  19.1898  21.0132  23.1344  29.3618

     occupation numbers 
     1.0000   1.0000   1.0000   1.0000   1.0000   1.0000   1.0000   1.0000
     1.0000   1.0000   1.0000   1.0000   1.0000   1.0000   1.0000   1.0000
     1.0000   1.0000   0.0000   0.0000   0.0000

          k = 0.0000-0.5774 0.1012 (  2740 PWs)   bands (ev):

   -76.4336 -76.4159 -39.8877 -39.8362 -39.7277 -39.6644 -39.6303 -39.5943
    14.3712  14.6796  15.3968  16.0575  16.9754  17.3633  18.1281  18.8475
    19.0784  19.1822  20.7728  22.9275  28.5776

     occupation numbers 
     1.0000   1.0000   1.0000   1.0000   1.0000   1.0000   1.0000   1.0000
     1.0000   1.0000   1.0000   1.0000   1.0000   1.0000   1.0000   1.0000
     1.0000   1.0000   0.0000   0.0000   0.0000

          k = 0.0000-0.5774 0.2025 (  2748 PWs)   bands (ev):

   -76.4299 -76.4196 -39.9007 -39.8684 -39.6830 -39.6497 -39.6293 -39.6092
    14.2473  14.6581  15.5772  15.7597  17.3221  17.7077  18.3930  19.0857
    19.1020  19.1610  20.3613  22.2525  27.6068

     occupation numbers 
     1.0000   1.0000   1.0000   1.0000   1.0000   1.0000   1.0000   1.0000
     1.0000   1.0000   1.0000   1.0000   1.0000   1.0000   1.0000   1.0000
     1.0000   1.0000   0.0000   0.0000   0.0000

          k = 0.0000-0.5774-0.3037 (  2732 PWs)   bands (ev):

   -76.4247 -76.4247 -39.8942 -39.8942 -39.6464 -39.6464 -39.6294 -39.6294
    14.3947  14.3947  15.6667  15.6667  17.8316  17.8316  18.5662  18.5662
    19.1319  19.1319  21.1700  21.1700  27.2419

     occupation numbers 
     1.0000   1.0000   1.0000   1.0000   1.0000   1.0000   1.0000   1.0000
     1.0000   1.0000   1.0000   1.0000   1.0000   1.0000   1.0000   1.0000
     1.0000   1.0000   0.0000   0.0000   0.0000

          k = 0.0833 0.1443 0.0000 (  2737 PWs)   bands (ev):

   -76.4893 -76.4322 -39.8889 -39.6361 -39.6109 -39.5826 -39.5601 -39.5470
    11.1218  14.6667  16.4705  16.9281  17.1071  17.2420  17.3430  17.4210
    17.6348  17.7498  18.9028  21.6430  26.1570

     occupation numbers 
     1.0000   1.0000   1.0000   1.0000   1.0000   1.0000   1.0000   1.0000
     1.0000   1.0000   1.0000   1.0000   1.0000   1.0000   1.0000   1.0000
     1.0000   1.0000   1.0000   0.0000   0.0000

          k = 0.0833 0.1443 0.1012 (  2738 PWs)   bands (ev):

   -76.4855 -76.4361 -39.8691 -39.6311 -39.6164 -39.5950 -39.5638 -39.5508
    11.3855  14.6334  16.5020  16.5806  16.9490  17.1962  17.2743  17.5009
    17.8010  17.8744  18.8663  20.6639  27.8569

     occupation numbers 
     1.0000   1.0000   1.0000   1.0000   1.0000   1.0000   1.0000   1.0000
     1.0000   1.0000   1.0000   1.0000   1.0000   1.0000   1.0000   1.0000
     1.0000   1.0000   1.0000   0.0000   0.0000

          k = 0.0833 0.1443 0.2025 (  2747 PWs)   bands (ev):

   -76.4751 -76.4465 -39.8150 -39.6662 -39.6173 -39.5930 -39.5748 -39.5609
    12.1392  14.2529  16.1699  16.5670  16.6160  17.0983  17.1651  17.3577
    18.1661  18.2373  18.7362  19.4864  31.1692

     occupation numbers 
     1.0000   1.0000   1.0000   1.0000   1.0000   1.0000   1.0000   1.0000
     1.0000   1.0000   1.0000   1.0000   1.0000   1.0000   1.0000   1.0000
     1.0000   1.0000   1.0000   1.0000   0.0000

          k = 0.0833 0.1443-0.3037 (  2758 PWs)   bands (ev):

   -76.4608 -76.4608 -39.7407 -39.7407 -39.5996 -39.5996 -39.5737 -39.5737
    13.2338  13.2338  16.2317  16.2317  16.8304  16.8304  17.2160  17.2160
    18.4812  18.4812  18.7721  18.7721  35.0224

     occupation numbers 
     1.0000   1.0000   1.0000   1.0000   1.0000   1.0000   1.0000   1.0000
     1.0000   1.0000   1.0000   1.0000   1.0000   1.0000   1.0000   1.0000
     1.0000   1.0000   1.0000   1.0000   0.0000

          k = 0.0833 0.2406 0.0000 (  2735 PWs)   bands (ev):

   -76.4761 -76.4262 -39.8599 -39.6943 -39.6629 -39.6130 -39.5723 -39.5621
    12.0442  15.0686  16.1803  16.1884  16.9571  17.1701  17.5219  17.5947
    17.8028  18.0884  18.9431  23.2876  26.3764

     occupation numbers 
     1.0000   1.0000   1.0000   1.0000   1.0000   1.0000   1.0000   1.0000
     1.0000   1.0000   1.0000   1.0000   1.0000   1.0000   1.0000   1.0000
     1.0000   1.0000   1.0000   0.0000   0.0000

          k = 0.0833 0.2406 0.1012 (  2743 PWs)   bands (ev):

   -76.4728 -76.4295 -39.8471 -39.6867 -39.6720 -39.6161 -39.5772 -39.5659
    12.2789  15.0953  15.9633  16.2428  16.8476  17.1340  17.4086  17.7043
    18.0005  18.0652  18.9015  21.8696  28.3778

     occupation numbers 
     1.0000   1.0000   1.0000   1.0000   1.0000   1.0000   1.0000   1.0000
     1.0000   1.0000   1.0000   1.0000   1.0000   1.0000   1.0000   1.0000
     1.0000   1.0000   1.0000   0.0000   0.0000

          k = 0.0833 0.2406 0.2025 (  2738 PWs)   bands (ev):

   -76.4636 -76.4387 -39.8117 -39.7110 -39.6601 -39.6156 -39.5905 -39.5766
    12.9418  14.7945  15.7877  16.3600  16.5562  17.0007  17.3766  17.7058
    18.2544  18.3613  18.7717  20.1896  31.7931

     occupation numbers 
     1.0000   1.0000   1.0000   1.0000   1.0000   1.0000   1.0000   1.0000
     1.0000   1.0000   1.0000   1.0000   1.0000   1.0000   1.0000   1.0000
     1.0000   1.0000   1.0000   0.0000   0.0000

          k = 0.0833 0.2406-0.3037 (  2736 PWs)   bands (ev):

   -76.4512 -76.4512 -39.7620 -39.7620 -39.6310 -39.6310 -39.5900 -39.5900
    13.8876  13.8876  16.0737  16.0737  16.7112  16.7112  17.5241  17.5241
    18.5244  18.5244  19.0741  19.0741  35.5196

     occupation numbers 
     1.0000   1.0000   1.0000   1.0000   1.0000   1.0000   1.0000   1.0000
     1.0000   1.0000   1.0000   1.0000   1.0000   1.0000   1.0000   1.0000
     1.0000   1.0000   1.0000   1.0000   0.0000

          k = 0.0833 0.3368 0.0000 (  2737 PWs)   bands (ev):

   -76.4601 -76.4199 -39.8221 -39.7653 -39.7254 -39.6422 -39.5908 -39.5784
    13.2255  15.1906  15.5831  16.1266  16.9534  16.9627  17.3705  17.9740
    18.3489  18.7017  18.9757  25.1753  26.7215

     occupation numbers 
     1.0000   1.0000   1.0000   1.0000   1.0000   1.0000   1.0000   1.0000
     1.0000   1.0000   1.0000   1.0000   1.0000   1.0000   1.0000   1.0000
     1.0000   1.0000   1.0000   0.0000   0.0000

          k = 0.0833 0.3368 0.1012 (  2735 PWs)   bands (ev):

   -76.4574 -76.4226 -39.8288 -39.7500 -39.7284 -39.6412 -39.5946 -39.5813
    13.3850  15.2459  15.4948  16.1752  16.7515  17.1976  17.3291  18.0162
    18.4367  18.5536  18.9897  23.1610  29.1446

     occupation numbers 
     1.0000   1.0000   1.0000   1.0000   1.0000   1.0000   1.0000   1.0000
     1.0000   1.0000   1.0000   1.0000   1.0000   1.0000   1.0000   1.0000
     1.0000   1.0000   1.0000   0.0000   0.0000

          k = 0.0833 0.3368 0.2025 (  2734 PWs)   bands (ev):

   -76.4501 -76.4299 -39.8267 -39.7729 -39.6905 -39.6354 -39.6075 -39.5916
    13.8182  14.9742  15.6279  16.2286  16.6712  17.1803  17.4360  18.0527
    18.4906  18.6666  18.9566  21.0571  31.7912

     occupation numbers 
     1.0000   1.0000   1.0000   1.0000   1.0000   1.0000   1.0000   1.0000
     1.0000   1.0000   1.0000   1.0000   1.0000   1.0000   1.0000   1.0000
     1.0000   1.0000   1.0000   0.0000   0.0000

          k = 0.0833 0.3368-0.3037 (  2734 PWs)   bands (ev):

   -76.4400 -76.4400 -39.8057 -39.8057 -39.6492 -39.6492 -39.6075 -39.6075
    14.4029  14.4029  15.9760  15.9760  16.9080  16.9080  17.7269  17.7269
    18.7478  18.7478  19.5410  19.5410  33.0262

     occupation numbers 
     1.0000   1.0000   1.0000   1.0000   1.0000   1.0000   1.0000   1.0000
     1.0000   1.0000   1.0000   1.0000   1.0000   1.0000   1.0000   1.0000
     1.0000   1.0000   1.0000   1.0000   0.0000

          k = 0.0833 0.4330 0.0000 (  2743 PWs)   bands (ev):

   -76.4450 -76.4157 -39.8281 -39.7822 -39.7794 -39.6659 -39.6139 -39.5925
    14.2486  14.9955  15.1817  16.3730  16.8358  17.1395  17.1656  18.5476
    18.8132  18.9943  19.5472  26.1682  27.2200

     occupation numbers 
     1.0000   1.0000   1.0000   1.0000   1.0000   1.0000   1.0000   1.0000
     1.0000   1.0000   1.0000   1.0000   1.0000   1.0000   1.0000   1.0000
     1.0000   1.0000   1.0000   0.0000   0.0000

          k = 0.0833 0.4330 0.1012 (  2740 PWs)   bands (ev):

   -76.4430 -76.4176 -39.8484 -39.7975 -39.7442 -39.6620 -39.6149 -39.5949
    14.2286  15.0038  15.3548  16.1008  16.9107  17.2368  17.4867  18.4989
    18.8064  18.8745  19.5437  24.2701  28.1123

     occupation numbers 
     1.0000   1.0000   1.0000   1.0000   1.0000   1.0000   1.0000   1.0000
     1.0000   1.0000   1.0000   1.0000   1.0000   1.0000   1.0000   1.0000
     1.0000   1.0000   1.0000   0.0000   0.0000

          k = 0.0833 0.4330 0.2025 (  2739 PWs)   bands (ev):

   -76.4377 -76.4230 -39.8625 -39.8276 -39.6949 -39.6498 -39.6245 -39.6026
    14.2948  14.8666  15.5534  16.0334  17.0179  17.4769  17.9079  18.2453
    18.6802  19.0299  19.5950  22.0944  28.8758

     occupation numbers 
     1.0000   1.0000   1.0000   1.0000   1.0000   1.0000   1.0000   1.0000
     1.0000   1.0000   1.0000   1.0000   1.0000   1.0000   1.0000   1.0000
     1.0000   1.0000   0.1914   0.0000   0.0000

          k = 0.0833 0.4330-0.3037 (  2740 PWs)   bands (ev):

   -76.4303 -76.4303 -39.8540 -39.8540 -39.6573 -39.6573 -39.6195 -39.6195
    14.5336  14.5336  15.8394  15.8394  17.4718  17.4718  17.8966  17.8966
    18.9744  18.9744  20.4097  20.4097  29.9091

     occupation numbers 
     1.0000   1.0000   1.0000   1.0000   1.0000   1.0000   1.0000   1.0000
     1.0000   1.0000   1.0000   1.0000   1.0000   1.0000   1.0000   1.0000
     1.0000   1.0000   0.0000   0.0000   0.0000

          k = 0.0833 0.5292 0.0000 (  2738 PWs)   bands (ev):

   -76.4350 -76.4145 -39.8644 -39.8105 -39.7520 -39.6791 -39.6344 -39.6006
    14.6862  14.8265  14.9817  16.7626  16.8034  16.9706  17.3358  18.9687
    19.0016  19.0543  20.8632  23.9218  29.1692

     occupation numbers 
     1.0000   1.0000   1.0000   1.0000   1.0000   1.0000   1.0000   1.0000
     1.0000   1.0000   1.0000   1.0000   1.0000   1.0000   1.0000   1.0000
     1.0000   1.0000   0.0000   0.0000   0.0000

          k = 0.0833 0.5292 0.1012 (  2740 PWs)   bands (ev):

   -76.4336 -76.4158 -39.8770 -39.8267 -39.7296 -39.6720 -39.6323 -39.6033
    14.4599  14.8211  15.4401  16.0417  16.8476  17.4201  17.7773  18.7849
    18.9815  19.0846  20.7797  23.6142  28.0158

     occupation numbers 
     1.0000   1.0000   1.0000   1.0000   1.0000   1.0000   1.0000   1.0000
     1.0000   1.0000   1.0000   1.0000   1.0000   1.0000   1.0000   1.0000
     1.0000   1.0000   0.0000   0.0000   0.0000

          k = 0.0833 0.5292 0.2025 (  2734 PWs)   bands (ev):

   -76.4299 -76.4196 -39.8901 -39.8588 -39.6921 -39.6519 -39.6386 -39.6090
    14.3588  14.7941  15.5867  15.8782  17.0225  17.7886  18.2089  18.4989
    18.9404  19.1485  20.7833  22.6781  27.3755

     occupation numbers 
     1.0000   1.0000   1.0000   1.0000   1.0000   1.0000   1.0000   1.0000
     1.0000   1.0000   1.0000   1.0000   1.0000   1.0000   1.0000   1.0000
     1.0000   1.0000   0.0000   0.0000   0.0000

          k = 0.0833 0.5292-0.3037 (  2742 PWs)   bands (ev):

   -76.4247 -76.4247 -39.8841 -39.8841 -39.6621 -39.6621 -39.6241 -39.6241
    14.5160  14.5160  15.7465  15.7465  17.5899  17.5899  18.3474  18.3474
    19.0183  19.0183  21.5148  21.5148  27.6623

     occupation numbers 
     1.0000   1.0000   1.0000   1.0000   1.0000   1.0000   1.0000   1.0000
     1.0000   1.0000   1.0000   1.0000   1.0000   1.0000   1.0000   1.0000
     1.0000   1.0000   0.0000   0.0000   0.0000

          k = 0.1667 0.2887 0.0000 (  2738 PWs)   bands (ev):

   -76.4623 -76.4207 -39.8276 -39.7372 -39.7277 -39.6348 -39.5879 -39.5879
    13.0798  15.3969  15.7036  15.8732  16.8783  16.9605  17.4849  17.7003
    18.3339  18.7291  18.9302  24.9121  26.7631

     occupation numbers 
     1.0000   1.0000   1.0000   1.0000   1.0000   1.0000   1.0000   1.0000
     1.0000   1.0000   1.0000   1.0000   1.0000   1.0000   1.0000   1.0000
     1.0000   1.0000   1.0000   0.0000   0.0000

          k = 0.1667 0.2887 0.1012 (  2739 PWs)   bands (ev):

   -76.4595 -76.4235 -39.8276 -39.7353 -39.7195 -39.6414 -39.5921 -39.5873
    13.2627  15.4926  15.5521  15.9294  16.8210  16.9704  17.3728  17.8185
    18.4533  18.5419  19.0027  23.0239  29.1226

     occupation numbers 
     1.0000   1.0000   1.0000   1.0000   1.0000   1.0000   1.0000   1.0000
     1.0000   1.0000   1.0000   1.0000   1.0000   1.0000   1.0000   1.0000
     1.0000   1.0000   1.0000   0.0000   0.0000

          k = 0.1667 0.2887 0.2025 (  2740 PWs)   bands (ev):

   -76.4519 -76.4311 -39.8182 -39.7604 -39.6821 -39.6457 -39.6020 -39.5951
    13.7643  15.1016  15.7550  16.0894  16.6076  16.8322  17.3816  17.9854
    18.4912  18.6588  19.0357  20.9837  32.5193

     occupation numbers 
     1.0000   1.0000   1.0000   1.0000   1.0000   1.0000   1.0000   1.0000
     1.0000   1.0000   1.0000   1.0000   1.0000   1.0000   1.0000   1.0000
     1.0000   1.0000   1.0000   0.0000   0.0000

          k = 0.1667 0.2887-0.3037 (  2736 PWs)   bands (ev):

   -76.4415 -76.4415 -39.7934 -39.7934 -39.6512 -39.6512 -39.6073 -39.6073
    14.4445  14.4445  16.0828  16.0828  16.5462  16.5462  17.6701  17.6701
    18.8005  18.8005  19.5241  19.5241  34.7533

     occupation numbers 
     1.0000   1.0000   1.0000   1.0000   1.0000   1.0000   1.0000   1.0000
     1.0000   1.0000   1.0000   1.0000   1.0000   1.0000   1.0000   1.0000
     1.0000   1.0000   1.0000   1.0000   0.0000

          k = 0.1667 0.3849 0.0000 (  2745 PWs)   bands (ev):

   -76.4475 -76.4162 -39.7928 -39.7892 -39.7690 -39.6676 -39.6130 -39.6095
    14.2085  15.3360  15.3656  15.8595  16.7015  17.1103  17.2654  18.0458
    18.8064  18.9150  19.5934  26.8205  27.1939

     occupation numbers 
     1.0000   1.0000   1.0000   1.0000   1.0000   1.0000   1.0000   1.0000
     1.0000   1.0000   1.0000   1.0000   1.0000   1.0000   1.0000   1.0000
     1.0000   1.0000   0.2406   0.0000   0.0000

          k = 0.1667 0.3849 0.1012 (  2740 PWs)   bands (ev):

   -76.4454 -76.4183 -39.8238 -39.7869 -39.7359 -39.6727 -39.6194 -39.6023
    14.2773  15.2674  15.4625  15.9438  16.7352  17.1151  17.2190  18.0970
    18.6998  18.8973  19.6737  24.3493  29.5284

     occupation numbers 
     1.0000   1.0000   1.0000   1.0000   1.0000   1.0000   1.0000   1.0000
     1.0000   1.0000   1.0000   1.0000   1.0000   1.0000   1.0000   1.0000
     1.0000   1.0000   0.0000   0.0000   0.0000

          k = 0.1667 0.3849 0.2025 (  2740 PWs)   bands (ev):

   -76.4397 -76.4240 -39.8385 -39.8082 -39.6934 -39.6715 -39.6273 -39.6022
    14.4719  15.0570  15.7148  16.1707  16.6367  16.9574  17.3706  18.1008
    18.6034  19.0520  19.8473  22.1270  30.6119

     occupation numbers 
     1.0000   1.0000   1.0000   1.0000   1.0000   1.0000   1.0000   1.0000
     1.0000   1.0000   1.0000   1.0000   1.0000   1.0000   1.0000   1.0000
     1.0000   1.0000   0.0000   0.0000   0.0000

          k = 0.1667 0.3849-0.3037 (  2744 PWs)   bands (ev):

   -76.4318 -76.4318 -39.8308 -39.8308 -39.6722 -39.6722 -39.6175 -39.6175
    14.7561  14.7561  16.0619  16.0619  16.7294  16.7294  17.6697  17.6697
    19.0272  19.0272  20.5244  20.5244  31.7522

     occupation numbers 
     1.0000   1.0000   1.0000   1.0000   1.0000   1.0000   1.0000   1.0000
     1.0000   1.0000   1.0000   1.0000   1.0000   1.0000   1.0000   1.0000
     1.0000   1.0000   0.0000   0.0000   0.0000

          k = 0.1667 0.4811 0.0000 (  2736 PWs)   bands (ev):

   -76.4351 -76.4144 -39.8365 -39.7911 -39.7525 -39.6976 -39.6339 -39.6302
    14.9063  15.1114  15.1455  16.1965  16.6584  17.0196  17.3291  18.5070
    18.9036  19.0301  20.8234  25.6238  28.8848

     occupation numbers 
     1.0000   1.0000   1.0000   1.0000   1.0000   1.0000   1.0000   1.0000
     1.0000   1.0000   1.0000   1.0000   1.0000   1.0000   1.0000   1.0000
     1.0000   1.0000   0.0000   0.0000   0.0000

          k = 0.1667 0.4811 0.1012 (  2742 PWs)   bands (ev):

   -76.4337 -76.4158 -39.8490 -39.8092 -39.7319 -39.6908 -39.6430 -39.6177
    14.7217  15.1960  15.4103  15.9889  16.7067  17.1621  17.4288  18.4981
    18.7051  19.0933  20.8997  24.9734  27.8687

     occupation numbers 
     1.0000   1.0000   1.0000   1.0000   1.0000   1.0000   1.0000   1.0000
     1.0000   1.0000   1.0000   1.0000   1.0000   1.0000   1.0000   1.0000
     1.0000   1.0000   0.0000   0.0000   0.0000

          k = 0.1667 0.4811 0.2025 (  2738 PWs)   bands (ev):

   -76.4299 -76.4196 -39.8637 -39.8380 -39.7112 -39.6752 -39.6437 -39.6096
    14.6676  15.1121  15.6081  16.1572  16.5966  17.3026  17.6835  18.1831
    18.7040  19.1710  21.1941  23.3888  28.0160

     occupation numbers 
     1.0000   1.0000   1.0000   1.0000   1.0000   1.0000   1.0000   1.0000
     1.0000   1.0000   1.0000   1.0000   1.0000   1.0000   1.0000   1.0000
     1.0000   1.0000   0.0000   0.0000   0.0000

          k = 0.1667 0.4811-0.3037 (  2744 PWs)   bands (ev):

   -76.4247 -76.4247 -39.8600 -39.8600 -39.6907 -39.6907 -39.6199 -39.6199
    14.8229  14.8229  15.9495  15.9495  17.0157  17.0157  17.8582  17.8582
    19.0313  19.0313  21.9826  21.9826  28.8894

     occupation numbers 
     1.0000   1.0000   1.0000   1.0000   1.0000   1.0000   1.0000   1.0000
     1.0000   1.0000   1.0000   1.0000   1.0000   1.0000   1.0000   1.0000
     1.0000   1.0000   0.0000   0.0000   0.0000

          k = 0.1667 0.5774 0.0000 (  2736 PWs)   bands (ev):

   -76.4297 -76.4146 -39.8523 -39.7983 -39.7339 -39.7098 -39.6480 -39.6363
    15.0348  15.0366  15.0802  16.4338  16.6967  16.8760  17.4230  18.8224
    18.8993  18.9922  22.1058  23.7799  30.3801

     occupation numbers 
     1.0000   1.0000   1.0000   1.0000   1.0000   1.0000   1.0000   1.0000
     1.0000   1.0000   1.0000   1.0000   1.0000   1.0000   1.0000   1.0000
     1.0000   1.0000   0.0000   0.0000   0.0000

          k = 0.1667 0.5774 0.1012 (  2744 PWs)   bands (ev):

   -76.4287 -76.4156 -39.8624 -39.8151 -39.7334 -39.6858 -39.6568 -39.6249
    14.7364  15.1072  15.5810  15.9699  16.6243  17.2889  17.5295  18.6780
    18.8202  19.0431  22.1891  23.7084  29.1209

     occupation numbers 
     1.0000   1.0000   1.0000   1.0000   1.0000   1.0000   1.0000   1.0000
     1.0000   1.0000   1.0000   1.0000   1.0000   1.0000   1.0000   1.0000
     1.0000   1.0000   0.0000   0.0000   0.0000

          k = 0.1667 0.5774 0.2025 (  2734 PWs)   bands (ev):

   -76.4259 -76.4184 -39.8750 -39.8474 -39.7200 -39.6748 -39.6474 -39.6135
    14.6601  15.1205  15.6520  16.1061  16.5112  17.5091  17.8223  18.2543
    18.8420  19.0859  22.4641  23.4471  27.9016

     occupation numbers 
     1.0000   1.0000   1.0000   1.0000   1.0000   1.0000   1.0000   1.0000
     1.0000   1.0000   1.0000   1.0000   1.0000   1.0000   1.0000   1.0000
     1.0000   1.0000   0.0000   0.0000   0.0000

          k = 0.1667 0.5774-0.3037 (  2732 PWs)   bands (ev):

   -76.4221 -76.4221 -39.8709 -39.8709 -39.6979 -39.6979 -39.6200 -39.6200
    14.8244  14.8244  15.9070  15.9070  17.0570  17.0570  18.0749  18.0749
    18.9651  18.9651  22.9585  22.9585  27.4388

     occupation numbers 
     1.0000   1.0000   1.0000   1.0000   1.0000   1.0000   1.0000   1.0000
     1.0000   1.0000   1.0000   1.0000   1.0000   1.0000   1.0000   1.0000
     1.0000   1.0000   0.0000   0.0000   0.0000

          k = 0.2500 0.4330 0.0000 (  2734 PWs)   bands (ev):

   -76.4351 -76.4144 -39.8123 -39.7896 -39.7527 -39.7016 -39.6522 -39.6337
    15.0652  15.1871  15.5928  15.6063  16.5717  17.0496  17.3357  18.2415
    18.8528  19.0312  20.8447  27.3662  28.2710

     occupation numbers 
     1.0000   1.0000   1.0000   1.0000   1.0000   1.0000   1.0000   1.0000
     1.0000   1.0000   1.0000   1.0000   1.0000   1.0000   1.0000   1.0000
     1.0000   1.0000   0.0000   0.0000   0.0000

          k = 0.2500 0.4330 0.1012 (  2736 PWs)   bands (ev):

   -76.4337 -76.4158 -39.8185 -39.8164 -39.7186 -39.7131 -39.6543 -39.6212
    15.0591  15.1364  15.6175  15.7755  16.7237  16.8886  17.3452  18.2938
    18.6437  19.0997  20.9649  25.7188  28.5507

     occupation numbers 
     1.0000   1.0000   1.0000   1.0000   1.0000   1.0000   1.0000   1.0000
     1.0000   1.0000   1.0000   1.0000   1.0000   1.0000   1.0000   1.0000
     1.0000   1.0000   0.0000   0.0000   0.0000

          k = 0.2500 0.4330 0.2025 (  2745 PWs)   bands (ev):

   -76.4299 -76.4196 -39.8425 -39.8307 -39.7185 -39.6962 -39.6439 -39.6100
    15.0337  15.0772  15.7910  16.1648  16.5417  16.8289  17.4044  18.0825
    18.6689  19.1798  21.3289  23.6758  29.3230

     occupation numbers 
     1.0000   1.0000   1.0000   1.0000   1.0000   1.0000   1.0000   1.0000
     1.0000   1.0000   1.0000   1.0000   1.0000   1.0000   1.0000   1.0000
     1.0000   1.0000   0.0000   0.0000   0.0000

          k = 0.2500 0.4330-0.3037 (  2750 PWs)   bands (ev):

   -76.4247 -76.4247 -39.8448 -39.8448 -39.7073 -39.7073 -39.6188 -39.6188
    15.0381  15.0381  16.1225  16.1225  16.6090  16.6090  17.6368  17.6368
    19.0527  19.0527  22.1579  22.1579  30.3375

     occupation numbers 
     1.0000   1.0000   1.0000   1.0000   1.0000   1.0000   1.0000   1.0000
     1.0000   1.0000   1.0000   1.0000   1.0000   1.0000   1.0000   1.0000
     1.0000   1.0000   0.0000   0.0000   0.0000

          k = 0.2500 0.5292 0.0000 (  2755 PWs)   bands (ev):

   -76.4260 -76.4153 -39.8265 -39.7803 -39.7368 -39.7203 -39.6777 -39.6591
    15.1222  15.3529  15.4362  15.9616  16.5887  16.8216  17.5148  18.5504
    18.8165  18.9487  22.5538  25.2129  27.5999

     occupation numbers 
     1.0000   1.0000   1.0000   1.0000   1.0000   1.0000   1.0000   1.0000
     1.0000   1.0000   1.0000   1.0000   1.0000   1.0000   1.0000   1.0000
     1.0000   1.0000   0.0000   0.0000   0.0000

          k = 0.2500 0.5292 0.1012 (  2746 PWs)   bands (ev):

   -76.4253 -76.4160 -39.8318 -39.8012 -39.7532 -39.6977 -39.6770 -39.6394
    15.0662  15.4707  15.5630  15.8490  16.6087  16.8253  17.5344  18.5576
    18.6212  18.9988  22.7368  25.2038  27.5979

     occupation numbers 
     1.0000   1.0000   1.0000   1.0000   1.0000   1.0000   1.0000   1.0000
     1.0000   1.0000   1.0000   1.0000   1.0000   1.0000   1.0000   1.0000
     1.0000   1.0000   0.0000   0.0000   0.0000

          k = 0.2500 0.5292 0.2025 (  2734 PWs)   bands (ev):

   -76.4233 -76.4180 -39.8454 -39.8299 -39.7534 -39.7117 -39.6412 -39.6183
    15.0791  15.4510  15.7169  16.0513  16.4458  16.8474  17.6028  18.0999
    18.7526  19.0503  23.2212  24.8344  27.5099

     occupation numbers 
     1.0000   1.0000   1.0000   1.0000   1.0000   1.0000   1.0000   1.0000
     1.0000   1.0000   1.0000   1.0000   1.0000   1.0000   1.0000   1.0000
     1.0000   1.0000   0.0000   0.0000   0.0000

          k = 0.2500 0.5292-0.3037 (  2718 PWs)   bands (ev):

   -76.4207 -76.4207 -39.8474 -39.8474 -39.7346 -39.7346 -39.6178 -39.6178
    15.2192  15.2192  16.0208  16.0208  16.6104  16.6104  17.7477  17.7477
    18.9594  18.9594  23.9750  23.9750  28.0627

     occupation numbers 
     1.0000   1.0000   1.0000   1.0000   1.0000   1.0000   1.0000   1.0000
     1.0000   1.0000   1.0000   1.0000   1.0000   1.0000   1.0000   1.0000
     1.0000   1.0000   0.0000   0.0000   0.0000

          k = 0.3333 0.5774 0.0000 (  2772 PWs)   bands (ev):

   -76.4192 -76.4192 -39.8130 -39.7621 -39.7621 -39.7083 -39.6884 -39.6884
    15.1412  15.5627  15.5627  15.8172  16.6492  16.6492  17.6182  18.7128
    18.7128  18.7818  24.3168  25.2346  25.2346

     occupation numbers 
     1.0000   1.0000   1.0000   1.0000   1.0000   1.0000   1.0000   1.0000
     1.0000   1.0000   1.0000   1.0000   1.0000   1.0000   1.0000   1.0000
     1.0000   1.0000   0.0000   0.0000   0.0000

          k = 0.3333 0.5774 0.1012 (  2745 PWs)   bands (ev):

   -76.4192 -76.4192 -39.8060 -39.7879 -39.7879 -39.7154 -39.6624 -39.6624
    15.2377  15.5788  15.5788  15.8344  16.6218  16.6218  17.5936  18.5460
    18.7643  18.7643  24.7163  25.2939  25.2939

     occupation numbers 
     1.0000   1.0000   1.0000   1.0000   1.0000   1.0000   1.0000   1.0000
     1.0000   1.0000   1.0000   1.0000   1.0000   1.0000   1.0000   1.0000
     1.0000   1.0000   0.0000   0.0000   0.0000

          k = 0.3333 0.5774 0.2025 (  2736 PWs)   bands (ev):

   -76.4192 -76.4192 -39.8203 -39.8203 -39.7869 -39.7346 -39.6296 -39.6296
    15.4832  15.6089  15.6089  15.8438  16.5739  16.5739  17.5675  18.0586
    18.8635  18.8635  25.4394  25.4394  25.7422

     occupation numbers 
     1.0000   1.0000   1.0000   1.0000   1.0000   1.0000   1.0000   1.0000
     1.0000   1.0000   1.0000   1.0000   1.0000   1.0000   1.0000   1.0000
     1.0000   1.0000   0.0000   0.0000   0.0000

          k = 0.3333 0.5774-0.3037 (  2712 PWs)   bands (ev):

   -76.4192 -76.4192 -39.8329 -39.8329 -39.7608 -39.7608 -39.6168 -39.6168
    15.6228  15.6228  15.7364  15.7364  16.5533  16.5533  17.6821  17.6821
    18.9115  18.9115  25.5314  25.5314  27.1541

     occupation numbers 
     1.0000   1.0000   1.0000   1.0000   1.0000   1.0000   1.0000   1.0000
     1.0000   1.0000   1.0000   1.0000   1.0000   1.0000   1.0000   1.0000
     1.0000   1.0000   0.0000   0.0000   0.0000

 ------ SPIN DOWN ----------


          k = 0.0000 0.0000 0.0000 (  2767 PWs)   bands (ev):

   -74.4765 -74.4092 -37.9478 -37.6167 -37.6167 -37.5639 -37.5639 -37.5548
    10.3778  15.1320  18.4395  18.5758  18.5758  18.9433  18.9433  19.1019
    19.4989  19.4989  20.7251  20.7251  27.0722

     occupation numbers 
     1.0000   1.0000   1.0000   1.0000   1.0000   1.0000   1.0000   1.0000
     1.0000   1.0000   1.0000   1.0000   1.0000   1.0000   1.0000   1.0000
     1.0000   1.0000   0.0000   0.0000   0.0000

          k = 0.0000 0.0000 0.1012 (  2761 PWs)   bands (ev):

   -74.4720 -74.4138 -37.9219 -37.6132 -37.6132 -37.5815 -37.5675 -37.5675
    10.6581  14.8993  18.3468  18.5198  18.5198  18.5365  18.8642  18.8642
    19.6664  19.6664  20.7042  20.7042  28.3626

     occupation numbers 
     1.0000   1.0000   1.0000   1.0000   1.0000   1.0000   1.0000   1.0000
     1.0000   1.0000   1.0000   1.0000   1.0000   1.0000   1.0000   1.0000
     0.0000   0.0000   0.0000   0.0000   0.0000

          k = 0.0000 0.0000 0.2025 (  2750 PWs)   bands (ev):

   -74.4597 -74.4261 -37.8508 -37.6542 -37.6035 -37.6035 -37.5771 -37.5771
    11.4673  14.0211  17.9075  18.1126  18.4715  18.4715  18.6886  18.6886
    20.0171  20.0171  20.6002  20.6002  31.3101

     occupation numbers 
     1.0000   1.0000   1.0000   1.0000   1.0000   1.0000   1.0000   1.0000
     1.0000   1.0000   1.0000   1.0000   1.0000   1.0000   1.0000   1.0000
     0.0000   0.0000   0.0000   0.0000   0.0000

          k = 0.0000 0.0000-0.3037 (  2774 PWs)   bands (ev):

   -74.4429 -74.4429 -37.7529 -37.7529 -37.5903 -37.5903 -37.5903 -37.5903
    12.6886  12.6886  17.8751  17.8751  18.5312  18.5312  18.5312  18.5312
    20.3631  20.3631  20.3631  20.3631  34.9421

     occupation numbers 
     1.0000   1.0000   1.0000   1.0000   1.0000   1.0000   1.0000   1.0000
     1.0000   1.0000   1.0000   1.0000   1.0000   1.0000   1.0000   1.0000
     0.0000   0.0000   0.0000   0.0000   0.0000

          k = 0.0000 0.0962 0.0000 (  2747 PWs)   bands (ev):

   -74.4723 -74.4071 -37.9389 -37.6376 -37.6233 -37.5854 -37.5675 -37.5579
[...]
    20.9044  20.9154  22.1684  24.8059  29.6744

     occupation numbers 
     1.0000   1.0000   1.0000   1.0000   1.0000   1.0000   1.0000   1.0000
     1.0000   1.0000   1.0000   1.0000   1.0000   1.0000   1.0000   0.0000
     0.0000   0.0000   0.0000   0.0000   0.0000

          k = 0.0833 0.5292 0.1012 (  2740 PWs)   bands (ev):

   -74.4046 -74.3855 -37.9326 -37.8785 -37.7520 -37.7101 -37.6499 -37.6315
    15.3764  15.9558  16.5452  17.1485  18.4325  18.9306  18.9604  20.6524
    20.8204  20.9432  22.0226  24.4299  28.7262

     occupation numbers 
     1.0000   1.0000   1.0000   1.0000   1.0000   1.0000   1.0000   1.0000
     1.0000   1.0000   1.0000   1.0000   1.0000   1.0000   1.0000   0.0000
     0.0000   0.0000   0.0000   0.0000   0.0000

          k = 0.0833 0.5292 0.2025 (  2734 PWs)   bands (ev):

   -74.4006 -74.3896 -37.9447 -37.9113 -37.7194 -37.6819 -37.6658 -37.6311
    15.3294  15.8061  16.8527  17.1606  18.4803  19.2857  19.4875  20.1806
    20.7753  21.0251  21.7951  23.4330  28.2518

     occupation numbers 
     1.0000   1.0000   1.0000   1.0000   1.0000   1.0000   1.0000   1.0000
     1.0000   1.0000   1.0000   1.0000   1.0000   1.0000   1.0000   0.0000
     0.0000   0.0000   0.0000   0.0000   0.0000

          k = 0.0833 0.5292-0.3037 (  2742 PWs)   bands (ev):

   -74.3951 -74.3951 -37.9378 -37.9378 -37.6917 -37.6917 -37.6475 -37.6475
    15.5023  15.5023  17.0978  17.0978  19.0149  19.0149  19.8261  19.8261
    20.8684  20.8684  22.3389  22.3389  28.5205

     occupation numbers 
     1.0000   1.0000   1.0000   1.0000   1.0000   1.0000   1.0000   1.0000
     1.0000   1.0000   1.0000   1.0000   1.0000   1.0000   0.0000   0.0000
     0.0000   0.0000   0.0000   0.0000   0.0000

          k = 0.1667 0.2887 0.0000 (  2738 PWs)   bands (ev):

   -74.4354 -74.3907 -37.8547 -37.7827 -37.7732 -37.6716 -37.6211 -37.5944
    13.1510  16.5360  16.8061  17.2156  18.4668  18.4853  19.1009  19.3951
    20.0718  20.4473  20.8334  25.6957  27.5102

     occupation numbers 
     1.0000   1.0000   1.0000   1.0000   1.0000   1.0000   1.0000   1.0000
     1.0000   1.0000   1.0000   1.0000   1.0000   1.0000   1.0000   1.0000
     0.0000   0.0000   0.0000   0.0000   0.0000

          k = 0.1667 0.2887 0.1012 (  2739 PWs)   bands (ev):

   -74.4324 -74.3937 -37.8596 -37.7801 -37.7588 -37.6762 -37.6255 -37.5977
    13.3604  16.4343  16.7414  17.2843  18.3675  18.4910  18.9970  19.5230
    20.2030  20.3109  20.8470  24.0278  29.7165

     occupation numbers 
     1.0000   1.0000   1.0000   1.0000   1.0000   1.0000   1.0000   1.0000
     1.0000   1.0000   1.0000   1.0000   1.0000   1.0000   1.0000   1.0000
     0.0000   0.0000   0.0000   0.0000   0.0000

          k = 0.1667 0.2887 0.2025 (  2740 PWs)   bands (ev):

   -74.4242 -74.4019 -37.8556 -37.8030 -37.7125 -37.6782 -37.6359 -37.6131
    13.9534  15.7413  17.0131  17.4600  18.0694  18.3300  19.0519  19.6687
    20.2855  20.4355  20.8038  22.2744  32.9973

     occupation numbers 
     1.0000   1.0000   1.0000   1.0000   1.0000   1.0000   1.0000   1.0000
     1.0000   1.0000   1.0000   1.0000   1.0000   1.0000   1.0000   0.0000
     0.0000   0.0000   0.0000   0.0000   0.0000

          k = 0.1667 0.2887-0.3037 (  2736 PWs)   bands (ev):

   -74.4131 -74.4130 -37.8338 -37.8338 -37.6788 -37.6788 -37.6366 -37.6366
    14.8159  14.8159  17.3984  17.3984  18.0138  18.0138  19.3679  19.3679
    20.6292  20.6292  21.0482  21.0482  35.1657

     occupation numbers 
     1.0000   1.0000   1.0000   1.0000   1.0000   1.0000   1.0000   1.0000
     1.0000   1.0000   1.0000   1.0000   1.0000   1.0000   1.0000   1.0000
     0.0000   0.0000   0.0000   0.0000   0.0000

          k = 0.1667 0.3849 0.0000 (  2745 PWs)   bands (ev):

   -74.4195 -74.3859 -37.8436 -37.8175 -37.8129 -37.7071 -37.6481 -37.6176
    14.4333  16.5018  16.5914  17.0450  18.2621  18.6086  18.8382  19.7724
    20.6085  20.8161  21.2361  27.5157  27.8013

     occupation numbers 
     1.0000   1.0000   1.0000   1.0000   1.0000   1.0000   1.0000   1.0000
     1.0000   1.0000   1.0000   1.0000   1.0000   1.0000   1.0000   0.0000
     0.0000   0.0000   0.0000   0.0000   0.0000

          k = 0.1667 0.3849 0.1012 (  2740 PWs)   bands (ev):

   -74.4172 -74.3881 -37.8671 -37.8348 -37.7664 -37.7103 -37.6536 -37.6146
    14.5720  16.3647  16.6945  17.1511  18.2167  18.5962  18.7914  19.8335
    20.5506  20.7144  21.3349  25.1596  30.1257

     occupation numbers 
     1.0000   1.0000   1.0000   1.0000   1.0000   1.0000   1.0000   1.0000
     1.0000   1.0000   1.0000   1.0000   1.0000   1.0000   1.0000   0.0000
     0.0000   0.0000   0.0000   0.0000   0.0000

          k = 0.1667 0.3849 0.2025 (  2740 PWs)   bands (ev):

   -74.4111 -74.3943 -37.8839 -37.8560 -37.7229 -37.7043 -37.6607 -37.6190
    14.9524  15.9930  16.9797  17.3681  18.0574  18.3282  18.9879  19.8429
    20.3954  20.9048  21.4186  23.1349  31.1969

     occupation numbers 
     1.0000   1.0000   1.0000   1.0000   1.0000   1.0000   1.0000   1.0000
     1.0000   1.0000   1.0000   1.0000   1.0000   1.0000   1.0000   0.0000
     0.0000   0.0000   0.0000   0.0000   0.0000

          k = 0.1667 0.3849-0.3037 (  2744 PWs)   bands (ev):

   -74.4027 -74.4027 -37.8777 -37.8777 -37.7047 -37.7047 -37.6410 -37.6410
    15.4740  15.4740  17.3318  17.3318  18.0445  18.0445  19.3739  19.3739
    20.8906  20.8906  21.7783  21.7783  32.2971

     occupation numbers 
     1.0000   1.0000   1.0000   1.0000   1.0000   1.0000   1.0000   1.0000
     1.0000   1.0000   1.0000   1.0000   1.0000   1.0000   1.0000   1.0000
     0.0000   0.0000   0.0000   0.0000   0.0000

          k = 0.1667 0.4811 0.0000 (  2736 PWs)   bands (ev):

   -74.4062 -74.3840 -37.8911 -37.8414 -37.7728 -37.7396 -37.6666 -37.6441
    15.5291  16.3265  16.3444  17.1381  18.1969  18.5421  18.8613  20.2753
    20.8028  20.8728  22.2168  26.3421  29.4730

     occupation numbers 
     1.0000   1.0000   1.0000   1.0000   1.0000   1.0000   1.0000   1.0000
     1.0000   1.0000   1.0000   1.0000   1.0000   1.0000   1.0000   0.0000
     0.0000   0.0000   0.0000   0.0000   0.0000

          k = 0.1667 0.4811 0.1012 (  2742 PWs)   bands (ev):

   -74.4047 -74.3855 -37.9016 -37.8586 -37.7607 -37.7251 -37.6757 -37.6337
    15.5189  16.2883  16.5285  17.1498  18.2079  18.5139  18.9612  20.2765
    20.5628  20.9506  22.2640  25.6469  28.6130

     occupation numbers 
     1.0000   1.0000   1.0000   1.0000   1.0000   1.0000   1.0000   1.0000
     1.0000   1.0000   1.0000   1.0000   1.0000   1.0000   1.0000   0.0000
     0.0000   0.0000   0.0000   0.0000   0.0000

          k = 0.1667 0.4811 0.2025 (  2738 PWs)   bands (ev):

   -74.4006 -74.3895 -37.9149 -37.8881 -37.7471 -37.7071 -37.6711 -37.6267
    15.5864  16.0921  16.8653  17.4003  18.0260  18.5072  19.2163  19.9564
    20.5144  21.0520  22.4117  24.1453  28.7956

     occupation numbers 
     1.0000   1.0000   1.0000   1.0000   1.0000   1.0000   1.0000   1.0000
     1.0000   1.0000   1.0000   1.0000   1.0000   1.0000   1.0000   0.0000
     0.0000   0.0000   0.0000   0.0000   0.0000

          k = 0.1667 0.4811-0.3037 (  2744 PWs)   bands (ev):

   -74.3951 -74.3951 -37.9109 -37.9109 -37.7267 -37.7267 -37.6399 -37.6399
    15.7969  15.7969  17.2759  17.2759  18.2388  18.2388  19.5093  19.5093
    20.8835  20.8835  22.9466  22.9466  29.6047

     occupation numbers 
     1.0000   1.0000   1.0000   1.0000   1.0000   1.0000   1.0000   1.0000
     1.0000   1.0000   1.0000   1.0000   1.0000   1.0000   1.0000   1.0000
     0.0000   0.0000   0.0000   0.0000   0.0000

          k = 0.1667 0.5774 0.0000 (  2736 PWs)   bands (ev):

   -74.4003 -74.3842 -37.9082 -37.8491 -37.7528 -37.7526 -37.6733 -37.6594
    15.9700  16.1967  16.2703  17.2360  18.2681  18.3378  18.9735  20.6296
    20.7977  20.8379  23.1679  24.7542  30.7909

     occupation numbers 
     1.0000   1.0000   1.0000   1.0000   1.0000   1.0000   1.0000   1.0000
     1.0000   1.0000   1.0000   1.0000   1.0000   1.0000   1.0000   0.0000
     0.0000   0.0000   0.0000   0.0000   0.0000

          k = 0.1667 0.5774 0.1012 (  2744 PWs)   bands (ev):

   -74.3993 -74.3853 -37.9169 -37.8657 -37.7672 -37.7139 -37.6876 -37.6439
    15.7731  16.2437  16.6918  17.0147  18.1638  18.5514  19.0823  20.5361
    20.6308  20.9004  23.1889  24.6386  29.7143

     occupation numbers 
     1.0000   1.0000   1.0000   1.0000   1.0000   1.0000   1.0000   1.0000
     1.0000   1.0000   1.0000   1.0000   1.0000   1.0000   1.0000   0.0000
     0.0000   0.0000   0.0000   0.0000   0.0000

          k = 0.1667 0.5774 0.2025 (  2734 PWs)   bands (ev):

   -74.3963 -74.3883 -37.9281 -37.8984 -37.7575 -37.7097 -37.6697 -37.6312
    15.7120  16.1515  16.9426  17.3112  17.9342  18.6930  19.3748  20.0255
    20.6677  20.9554  23.3043  24.2664  28.6726

     occupation numbers 
     1.0000   1.0000   1.0000   1.0000   1.0000   1.0000   1.0000   1.0000
     1.0000   1.0000   1.0000   1.0000   1.0000   1.0000   1.0000   0.0000
     0.0000   0.0000   0.0000   0.0000   0.0000

          k = 0.1667 0.5774-0.3037 (  2732 PWs)   bands (ev):

   -74.3923 -74.3923 -37.9231 -37.9231 -37.7351 -37.7351 -37.6390 -37.6390
    15.8694  15.8694  17.2622  17.2622  18.2985  18.2985  19.6824  19.6824
    20.8164  20.8164  23.7111  23.7111  28.3061

     occupation numbers 
     1.0000   1.0000   1.0000   1.0000   1.0000   1.0000   1.0000   1.0000
     1.0000   1.0000   1.0000   1.0000   1.0000   1.0000   0.0000   0.0000
     0.0000   0.0000   0.0000   0.0000   0.0000

          k = 0.2500 0.4330 0.0000 (  2734 PWs)   bands (ev):

   -74.4062 -74.3840 -37.8648 -37.8397 -37.7731 -37.7441 -37.6905 -37.6439
    15.5626  16.4104  16.7130  16.7752  18.0916  18.5748  18.8625  20.0000
    20.7452  20.8719  22.2662  27.9131  28.8650

     occupation numbers 
     1.0000   1.0000   1.0000   1.0000   1.0000   1.0000   1.0000   1.0000
     1.0000   1.0000   1.0000   1.0000   1.0000   1.0000   1.0000   0.0000
     0.0000   0.0000   0.0000   0.0000   0.0000

          k = 0.2500 0.4330 0.1012 (  2736 PWs)   bands (ev):

   -74.4047 -74.3854 -37.8682 -37.8647 -37.7537 -37.7437 -37.6914 -37.6341
    15.6286  16.3277  16.7812  16.9631  18.1353  18.3792  18.8849  20.0598
    20.4962  20.9578  22.3672  26.3636  29.1502

     occupation numbers 
     1.0000   1.0000   1.0000   1.0000   1.0000   1.0000   1.0000   1.0000
     1.0000   1.0000   1.0000   1.0000   1.0000   1.0000   1.0000   0.0000
     0.0000   0.0000   0.0000   0.0000   0.0000

          k = 0.2500 0.4330 0.2025 (  2745 PWs)   bands (ev):

   -74.4006 -74.3895 -37.8898 -37.8808 -37.7587 -37.7307 -37.6699 -37.6257
    15.7972  16.1884  17.0073  17.3268  17.9707  18.1050  18.9957  19.8462
    20.4710  21.0623  22.6039  24.4701  29.9235

     occupation numbers 
     1.0000   1.0000   1.0000   1.0000   1.0000   1.0000   1.0000   1.0000
     1.0000   1.0000   1.0000   1.0000   1.0000   1.0000   1.0000   0.0000
     0.0000   0.0000   0.0000   0.0000   0.0000

          k = 0.2500 0.4330-0.3037 (  2750 PWs)   bands (ev):

   -74.3951 -74.3951 -37.8936 -37.8936 -37.7464 -37.7464 -37.6378 -37.6378
    16.0047  16.0047  17.3610  17.3610  17.8724  17.8724  19.3206  19.3206
    20.9099  20.9099  23.1755  23.1755  30.9269

     occupation numbers 
     1.0000   1.0000   1.0000   1.0000   1.0000   1.0000   1.0000   1.0000
     1.0000   1.0000   1.0000   1.0000   1.0000   1.0000   1.0000   1.0000
     0.0000   0.0000   0.0000   0.0000   0.0000

          k = 0.2500 0.5292 0.0000 (  2755 PWs)   bands (ev):

   -74.3964 -74.3850 -37.8800 -37.8296 -37.7823 -37.7378 -37.7181 -37.6714
    16.2595  16.3881  16.5563  16.8853  18.0909  18.3017  19.0727  20.3394
    20.7037  20.7861  23.6258  25.9885  28.1603

     occupation numbers 
     1.0000   1.0000   1.0000   1.0000   1.0000   1.0000   1.0000   1.0000
     1.0000   1.0000   1.0000   1.0000   1.0000   1.0000   1.0000   0.0000
     0.0000   0.0000   0.0000   0.0000   0.0000

          k = 0.2500 0.5292 0.1012 (  2746 PWs)   bands (ev):

   -74.3956 -74.3857 -37.8838 -37.8490 -37.7959 -37.7325 -37.7030 -37.6547
    16.1750  16.5503  16.6390  16.9389  18.0614  18.1987  19.0968  20.3696
    20.4540  20.8489  23.7860  25.9397  28.1905

     occupation numbers 
     1.0000   1.0000   1.0000   1.0000   1.0000   1.0000   1.0000   1.0000
     1.0000   1.0000   1.0000   1.0000   1.0000   1.0000   1.0000   0.0000
     0.0000   0.0000   0.0000   0.0000   0.0000

          k = 0.2500 0.5292 0.2025 (  2734 PWs)   bands (ev):

   -74.3935 -74.3878 -37.8951 -37.8782 -37.7970 -37.7525 -37.6610 -37.6345
    16.1897  16.4943  16.9283  17.2861  17.7838  18.0652  19.1895  19.8685
    20.5758  20.9137  24.1670  25.5151  28.2398

     occupation numbers 
     1.0000   1.0000   1.0000   1.0000   1.0000   1.0000   1.0000   1.0000
     1.0000   1.0000   1.0000   1.0000   1.0000   1.0000   1.0000   0.0000
     0.0000   0.0000   0.0000   0.0000   0.0000

          k = 0.2500 0.5292-0.3037 (  2718 PWs)   bands (ev):

   -74.3907 -74.3907 -37.8963 -37.8963 -37.7775 -37.7775 -37.6351 -37.6351
    16.3205  16.3205  17.3306  17.3306  17.7749  17.7749  19.4157  19.4157
    20.8093  20.8093  24.7601  24.7601  28.7934

     occupation numbers 
     1.0000   1.0000   1.0000   1.0000   1.0000   1.0000   1.0000   1.0000
     1.0000   1.0000   1.0000   1.0000   1.0000   1.0000   1.0000   1.0000
     0.0000   0.0000   0.0000   0.0000   0.0000

          k = 0.3333 0.5774 0.0000 (  2772 PWs)   bands (ev):

   -74.3891 -74.3891 -37.8652 -37.8099 -37.8099 -37.7512 -37.7031 -37.7031
    16.4333  16.6036  16.6036  16.7743  18.1216  18.1216  19.1837  20.5256
    20.5256  20.6644  25.1177  26.0050  26.0050

     occupation numbers 
     1.0000   1.0000   1.0000   1.0000   1.0000   1.0000   1.0000   1.0000
     1.0000   1.0000   1.0000   1.0000   1.0000   1.0000   1.0000   0.0000
     0.0000   0.0000   0.0000   0.0000   0.0000

          k = 0.3333 0.5774 0.1012 (  2745 PWs)   bands (ev):

   -74.3891 -74.3891 -37.8576 -37.8333 -37.8333 -37.7589 -37.6796 -37.6796
    16.5101  16.6710  16.6710  16.8041  18.0322  18.0322  19.1671  20.3876
    20.5874  20.5874  25.5328  26.0413  26.0413

     occupation numbers 
     1.0000   1.0000   1.0000   1.0000   1.0000   1.0000   1.0000   1.0000
     1.0000   1.0000   1.0000   1.0000   1.0000   1.0000   1.0000   0.0000
     0.0000   0.0000   0.0000   0.0000   0.0000

          k = 0.3333 0.5774 0.2025 (  2736 PWs)   bands (ev):

   -74.3891 -74.3891 -37.8658 -37.8658 -37.8368 -37.7798 -37.6467 -37.6466
    16.6900  16.8310  16.8310  16.8571  17.8369  17.8369  19.1780  19.8280
    20.7030  20.7030  26.1303  26.1303  26.5494

     occupation numbers 
     1.0000   1.0000   1.0000   1.0000   1.0000   1.0000   1.0000   1.0000
     1.0000   1.0000   1.0000   1.0000   1.0000   1.0000   1.0000   0.0000
     0.0000   0.0000   0.0000   0.0000   0.0000

          k = 0.3333 0.5774-0.3037 (  2712 PWs)   bands (ev):

   -74.3891 -74.3891 -37.8788 -37.8788 -37.8083 -37.8083 -37.6334 -37.6334
    16.8379  16.8379  16.9341  16.9341  17.7200  17.7200  19.3698  19.3698
    20.7573  20.7573  26.1861  26.1861  27.8937

     occupation numbers 
     1.0000   1.0000   1.0000   1.0000   1.0000   1.0000   1.0000   1.0000
     1.0000   1.0000   1.0000   1.0000   1.0000   1.0000   1.0000   1.0000
     0.0000   0.0000   0.0000   0.0000   0.0000

     the Fermi energy is    19.5866 ev

!    total energy              =    -753.45331958 Ry
     total all-electron energy =     -5573.810011 Ry
     estimated scf accuracy    <       0.00000017 Ry
     smearing contrib. (-TS)   =      -0.00001687 Ry
     internal energy E=F+TS    =    -753.45330272 Ry

     The total energy is F=E-TS. E is the sum of the following terms:
     one-electron contribution =    -274.25557376 Ry
     hartree contribution      =     161.89051638 Ry
     xc contribution           =     -61.45262275 Ry
     ewald contribution        =    -404.45873696 Ry
     one-center paw contrib.   =    -175.17688563 Ry
      -> PAW hartree energy AE =     222.33868203 Ry
      -> PAW hartree energy PS =    -221.28194395 Ry
      -> PAW xc energy AE      =    -117.68575492 Ry
      -> PAW xc energy PS      =      29.04057403 Ry
      -> total E_H with PAW    =     162.94725445 Ry
      -> total E_XC with PAW   =    -150.09780364 Ry

     total magnetization       =     3.16 Bohr mag/cell
     absolute magnetization    =     3.46 Bohr mag/cell

     convergence has been achieved in  13 iterations

     Writing all to output data dir ./out/Co.save/
 
     init_run     :      0.37s CPU      0.49s WALL (       1 calls)
     electrons    :     26.94s CPU     28.49s WALL (       1 calls)

     Called by init_run:
     wfcinit      :      0.22s CPU      0.31s WALL (       1 calls)
     potinit      :      0.10s CPU      0.13s WALL (       1 calls)
     hinit0       :      0.03s CPU      0.03s WALL (       1 calls)

     Called by electrons:
     c_bands      :     23.03s CPU     24.16s WALL (      13 calls)
     sum_band     :      2.51s CPU      2.65s WALL (      13 calls)
     v_of_rho     :      0.04s CPU      0.04s WALL (      14 calls)
     v_h          :      0.00s CPU      0.00s WALL (      14 calls)
     v_xc         :      0.04s CPU      0.04s WALL (      14 calls)
     newd         :      0.05s CPU      0.06s WALL (      14 calls)
     PAW_pot      :      1.38s CPU      1.65s WALL (      14 calls)
     mix_rho      :      0.01s CPU      0.01s WALL (      13 calls)

     Called by c_bands:
     init_us_2    :      0.17s CPU      0.18s WALL (    3952 calls)
     init_us_2:cp :      0.17s CPU      0.17s WALL (    3952 calls)
     cegterg      :     22.01s CPU     22.96s WALL (    1976 calls)

     Called by sum_band:
     sum_band:wei :      0.02s CPU      0.02s WALL (      13 calls)
     sum_band:loo :      2.37s CPU      2.50s WALL (      13 calls)
     sum_band:buf :      0.01s CPU      0.02s WALL (    1976 calls)
     sum_band:ini :      0.10s CPU      0.08s WALL (    1976 calls)
     sum_band:cal :      0.19s CPU      0.18s WALL (    1976 calls)
     sum_band:bec :      0.01s CPU      0.02s WALL (    1976 calls)
     addusdens    :      0.10s CPU      0.11s WALL (      13 calls)
                                        0.00s GPU  (      13 calls)
     addusd:skk   :      0.00s CPU      0.00s WALL (      13 calls)
                                        0.00s GPU  (      13 calls)

     Called by *egterg:
     cdiaghg      :      5.58s CPU      5.71s WALL (   10197 calls)
     cegterg:over :      0.73s CPU      0.70s WALL (    8373 calls)
     cegterg:upda :      0.10s CPU      0.19s WALL (    8373 calls)
     cegterg:last :      0.33s CPU      0.36s WALL (    6220 calls)
     h_psi        :     14.28s CPU     15.00s WALL (   10349 calls)
     s_psi        :      0.30s CPU      0.27s WALL (   10349 calls)
     g_psi        :      0.05s CPU      0.06s WALL (    8373 calls)

     Called by h_psi:
     h_psi:calbec :      0.72s CPU      0.68s WALL (   10349 calls)
     vloc_psi     :     13.29s CPU     13.93s WALL (   10349 calls)
     add_vuspsi   :      0.22s CPU      0.31s WALL (   10349 calls)

     General routines
     calbec       :      0.90s CPU      0.84s WALL (   12325 calls)
     fft          :      0.03s CPU      0.03s WALL (     344 calls)
     ffts         :      0.00s CPU      0.00s WALL (      54 calls)
     fftw         :     14.37s CPU     14.84s WALL (  326640 calls)
     interpolate  :      0.00s CPU      0.00s WALL (      28 calls)
 
     Parallel routines

     PAW routines
     PAW_pot      :      1.38s CPU      1.65s WALL (      14 calls)
     PAW_symme    :      0.01s CPU      0.01s WALL (      26 calls)
 
     PWSCF        :     27.60s CPU     29.74s WALL

 
   This run was terminated on:   8:39:41  22Mar2024            

=------------------------------------------------------------------------------=
   JOB DONE.
=------------------------------------------------------------------------------=
