
     Program PWSCF v.7.2 starts on 22Mar2024 at  7:46: 1 

     This program is part of the open-source Quantum ESPRESSO suite
     for quantum simulation of materials; please cite
         "P. Giannozzi et al., J. Phys.:Condens. Matter 21 395502 (2009);
         "P. Giannozzi et al., J. Phys.:Condens. Matter 29 465901 (2017);
         "P. Giannozzi et al., J. Chem. Phys. 152 154105 (2020);
          URL http://www.quantum-espresso.org", 
     in publications or presentations arising from this work. More details at
     http://www.quantum-espresso.org/quote

     Parallel version (MPI), running on    20 processors

     MPI processes distributed on     1 nodes
     352984 MiB available memory on the printing compute node when the environment starts
 
     Waiting for input...
     Reading input from standard input

     Current dimensions of program PWSCF are:
     Max number of different atomic species (ntypx) = 10
     Max number of k-points (npk) = 120000
     Max angular momentum in pseudopotentials (lmaxx) =  4
     file Co.pbe-spn-kjpaw_psl.0.3.1.UPF: wavefunction(s)  3P 3D renormalized
 
     R & G space division:  proc/nbgrp/npool/nimage =      20
     Subspace diagonalization in iterative solution of the eigenvalue problem:
     a serial algorithm will be used

 
     Parallelization info
     --------------------
     sticks:   dense  smooth     PW     G-vecs:    dense   smooth      PW
     Min          33      33      9                 1160     1125     181
     Max          35      34     10                 1169     1133     186
     Sum         673     661    199                23283    22551    3693
 
     Using Slab Decomposition
 


     bravais-lattice index     =            4
     lattice parameter (alat)  =       4.6676  a.u.
     unit-cell volume          =     144.4030 (a.u.)^3
     number of atoms/cell      =            2
     number of atomic types    =            1
     number of electrons       =        34.00
     number of Kohn-Sham states=           21
     kinetic-energy cutoff     =     110.0000  Ry
     charge density cutoff     =     450.0000  Ry
     scf convergence threshold =      1.0E-06
     mixing beta               =       0.7000
     number of iterations used =            8  plain     mixing
     Exchange-correlation= SLA  PW   PBX  PBC
                           (   1   4   3   4   0   0   0)

     celldm(1)=   4.667624  celldm(2)=   0.000000  celldm(3)=   1.639676
     celldm(4)=   0.000000  celldm(5)=   0.000000  celldm(6)=   0.000000

     crystal axes: (cart. coord. in units of alat)
               a(1) = (   1.000000   0.000000   0.000000 )  
               a(2) = (  -0.500000   0.866025   0.000000 )  
               a(3) = (   0.000000   0.000000   1.639676 )  

     reciprocal axes: (cart. coord. in units 2 pi/alat)
               b(1) = (  1.000000  0.577350  0.000000 )  
               b(2) = (  0.000000  1.154701  0.000000 )  
               b(3) = (  0.000000  0.000000  0.609877 )  


     PseudoPot. # 1 for Co read from file:
     /truba/home/amuhaymin/ZnS/pseudo/QE/Co.pbe-spn-kjpaw_psl.0.3.1.UPF
     MD5 check sum: b0a1ad65bf214e88c1f3d33b20c7d919
     Pseudo is Projector augmented-wave + core cor, Zval = 17.0
     Generated using &quot;atomic&quot; code by A. Dal Corso  v.6.2.2
     Shape of augmentation charge: PSQ
     Using radial grid of 1193 points,  6 beta functions with: 
                l(1) =   0
                l(2) =   0
                l(3) =   1
                l(4) =   1
                l(5) =   2
                l(6) =   2
     Q(r) pseudized with 0 coefficients 


     atomic species   valence    mass     pseudopotential
        Co            17.00    58.93300     Co( 1.00)

     Starting magnetic structure 
     atomic species   magnetization
        Co           0.294

     24 Sym. Ops., with inversion, found (12 have fractional translation)


                                    s                        frac. trans.

      isym =  1     identity                                     

 cryst.   s( 1) = (     1          0          0      )
                  (     0          1          0      )
                  (     0          0          1      )

 cart.    s( 1) = (  1.0000000  0.0000000  0.0000000 )
                  (  0.0000000  1.0000000  0.0000000 )
                  (  0.0000000  0.0000000  1.0000000 )


      isym =  2     180 deg rotation - cart. axis [0,0,1]        

 cryst.   s( 2) = (    -1          0          0      )    f =(  0.0000000 )
                  (     0         -1          0      )       ( -0.0000000 )
                  (     0          0          1      )       ( -0.5000000 )

 cart.    s( 2) = ( -1.0000000  0.0000000  0.0000000 )    f =(  0.0000000 )
                  (  0.0000000 -1.0000000  0.0000000 )       ( -0.0000000 )
                  (  0.0000000  0.0000000  1.0000000 )       ( -0.8198381 )


      isym =  3     180 deg rotation - cart. axis [0,1,0]        

 cryst.   s( 3) = (    -1          0          0      )    f =(  0.0000000 )
                  (     1          1          0      )       (  0.0000000 )
                  (     0          0         -1      )       (  0.5000000 )

 cart.    s( 3) = ( -1.0000000  0.0000000  0.0000000 )    f =(  0.0000000 )
                  (  0.0000000  1.0000000  0.0000000 )       (  0.0000000 )
                  (  0.0000000  0.0000000 -1.0000000 )       (  0.8198381 )


      isym =  4     180 deg rotation - cart. axis [1,0,0]        

 cryst.   s( 4) = (     1          0          0      )
                  (    -1         -1          0      )
                  (     0          0         -1      )

 cart.    s( 4) = (  1.0000000  0.0000000  0.0000000 )
                  (  0.0000000 -1.0000000  0.0000000 )
                  (  0.0000000  0.0000000 -1.0000000 )


      isym =  5      60 deg rotation - cryst. axis [0,0,1]       

 cryst.   s( 5) = (     1          1          0      )    f =(  0.0000000 )
                  (    -1          0          0      )       ( -0.0000000 )
                  (     0          0          1      )       ( -0.5000000 )

 cart.    s( 5) = (  0.5000000 -0.8660254  0.0000000 )    f =(  0.0000000 )
                  (  0.8660254  0.5000000  0.0000000 )       ( -0.0000000 )
                  (  0.0000000  0.0000000  1.0000000 )       ( -0.8198381 )


      isym =  6      60 deg rotation - cryst. axis [0,0,-1]      

 cryst.   s( 6) = (     0         -1          0      )    f =(  0.0000000 )
                  (     1          1          0      )       ( -0.0000000 )
                  (     0          0          1      )       ( -0.5000000 )

 cart.    s( 6) = (  0.5000000  0.8660254  0.0000000 )    f =(  0.0000000 )
                  ( -0.8660254  0.5000000  0.0000000 )       ( -0.0000000 )
                  (  0.0000000  0.0000000  1.0000000 )       ( -0.8198381 )


      isym =  7     120 deg rotation - cryst. axis [0,0,1]       

 cryst.   s( 7) = (     0          1          0      )
                  (    -1         -1          0      )
                  (     0          0          1      )

 cart.    s( 7) = ( -0.5000000 -0.8660254  0.0000000 )
                  (  0.8660254 -0.5000000  0.0000000 )
                  (  0.0000000  0.0000000  1.0000000 )


      isym =  8     120 deg rotation - cryst. axis [0,0,-1]      

 cryst.   s( 8) = (    -1         -1          0      )
                  (     1          0          0      )
                  (     0          0          1      )

 cart.    s( 8) = ( -0.5000000  0.8660254  0.0000000 )
                  ( -0.8660254 -0.5000000  0.0000000 )
                  (  0.0000000  0.0000000  1.0000000 )


      isym =  9     180 deg rotation - cryst. axis [1,-1,0]      

 cryst.   s( 9) = (     0         -1          0      )    f =( -0.0000000 )
                  (    -1          0          0      )       ( -0.0000000 )
                  (     0          0         -1      )       (  0.5000000 )

 cart.    s( 9) = (  0.5000000 -0.8660254  0.0000000 )    f =( -0.0000000 )
                  ( -0.8660254 -0.5000000  0.0000000 )       ( -0.0000000 )
                  (  0.0000000  0.0000000 -1.0000000 )       (  0.8198381 )


      isym = 10     180 deg rotation - cryst. axis [2,1,0]       

 cryst.   s(10) = (     1          1          0      )    f =(  0.0000000 )
                  (     0         -1          0      )       ( -0.0000000 )
                  (     0          0         -1      )       (  0.5000000 )

 cart.    s(10) = (  0.5000000  0.8660254  0.0000000 )    f =(  0.0000000 )
                  (  0.8660254 -0.5000000  0.0000000 )       ( -0.0000000 )
                  (  0.0000000  0.0000000 -1.0000000 )       (  0.8198381 )


      isym = 11     180 deg rotation - cryst. axis [0,1,0]       

 cryst.   s(11) = (    -1         -1          0      )
                  (     0          1          0      )
                  (     0          0         -1      )

 cart.    s(11) = ( -0.5000000 -0.8660254  0.0000000 )
                  ( -0.8660254  0.5000000  0.0000000 )
                  (  0.0000000  0.0000000 -1.0000000 )


      isym = 12     180 deg rotation - cryst. axis [1,1,0]       

 cryst.   s(12) = (     0          1          0      )
                  (     1          0          0      )
                  (     0          0         -1      )

 cart.    s(12) = ( -0.5000000  0.8660254  0.0000000 )
                  (  0.8660254  0.5000000  0.0000000 )
                  (  0.0000000  0.0000000 -1.0000000 )


      isym = 13     inversion                                    

 cryst.   s(13) = (    -1          0          0      )
                  (     0         -1          0      )
                  (     0          0         -1      )

 cart.    s(13) = ( -1.0000000  0.0000000  0.0000000 )
                  (  0.0000000 -1.0000000  0.0000000 )
                  (  0.0000000  0.0000000 -1.0000000 )


      isym = 14     inv. 180 deg rotation - cart. axis [0,0,1]   

 cryst.   s(14) = (     1          0          0      )    f =(  0.0000000 )
                  (     0          1          0      )       (  0.0000000 )
                  (     0          0         -1      )       (  0.5000000 )

 cart.    s(14) = (  1.0000000  0.0000000  0.0000000 )    f =(  0.0000000 )
                  (  0.0000000  1.0000000  0.0000000 )       (  0.0000000 )
                  (  0.0000000  0.0000000 -1.0000000 )       (  0.8198381 )


      isym = 15     inv. 180 deg rotation - cart. axis [0,1,0]   

 cryst.   s(15) = (     1          0          0      )    f =(  0.0000000 )
                  (    -1         -1          0      )       ( -0.0000000 )
                  (     0          0          1      )       ( -0.5000000 )

 cart.    s(15) = (  1.0000000  0.0000000  0.0000000 )    f =(  0.0000000 )
                  (  0.0000000 -1.0000000  0.0000000 )       ( -0.0000000 )
                  (  0.0000000  0.0000000  1.0000000 )       ( -0.8198381 )


      isym = 16     inv. 180 deg rotation - cart. axis [1,0,0]   

 cryst.   s(16) = (    -1          0          0      )
                  (     1          1          0      )
                  (     0          0          1      )

 cart.    s(16) = ( -1.0000000  0.0000000  0.0000000 )
                  (  0.0000000  1.0000000  0.0000000 )
                  (  0.0000000  0.0000000  1.0000000 )


      isym = 17     inv.  60 deg rotation - cryst. axis [0,0,1]  

 cryst.   s(17) = (    -1         -1          0      )    f =(  0.0000000 )
                  (     1          0          0      )       ( -0.0000000 )
                  (     0          0         -1      )       (  0.5000000 )

 cart.    s(17) = ( -0.5000000  0.8660254  0.0000000 )    f =(  0.0000000 )
                  ( -0.8660254 -0.5000000  0.0000000 )       ( -0.0000000 )
                  (  0.0000000  0.0000000 -1.0000000 )       (  0.8198381 )


      isym = 18     inv.  60 deg rotation - cryst. axis [0,0,-1] 

 cryst.   s(18) = (     0          1          0      )    f =( -0.0000000 )
                  (    -1         -1          0      )       ( -0.0000000 )
                  (     0          0         -1      )       (  0.5000000 )

 cart.    s(18) = ( -0.5000000 -0.8660254  0.0000000 )    f =(  0.0000000 )
                  (  0.8660254 -0.5000000  0.0000000 )       ( -0.0000000 )
                  (  0.0000000  0.0000000 -1.0000000 )       (  0.8198381 )


      isym = 19     inv. 120 deg rotation - cryst. axis [0,0,1]  

 cryst.   s(19) = (     0         -1          0      )
                  (     1          1          0      )
                  (     0          0         -1      )

 cart.    s(19) = (  0.5000000  0.8660254  0.0000000 )
                  ( -0.8660254  0.5000000  0.0000000 )
                  (  0.0000000  0.0000000 -1.0000000 )


      isym = 20     inv. 120 deg rotation - cryst. axis [0,0,-1] 

 cryst.   s(20) = (     1          1          0      )
                  (    -1          0          0      )
                  (     0          0         -1      )

 cart.    s(20) = (  0.5000000 -0.8660254  0.0000000 )
                  (  0.8660254  0.5000000  0.0000000 )
                  (  0.0000000  0.0000000 -1.0000000 )


      isym = 21     inv. 180 deg rotation - cryst. axis [1,-1,0] 

 cryst.   s(21) = (     0          1          0      )    f =(  0.0000000 )
                  (     1          0          0      )       ( -0.0000000 )
                  (     0          0          1      )       ( -0.5000000 )

 cart.    s(21) = ( -0.5000000  0.8660254  0.0000000 )    f =(  0.0000000 )
                  (  0.8660254  0.5000000  0.0000000 )       ( -0.0000000 )
                  (  0.0000000  0.0000000  1.0000000 )       ( -0.8198381 )


      isym = 22     inv. 180 deg rotation - cryst. axis [2,1,0]  

 cryst.   s(22) = (    -1         -1          0      )    f =(  0.0000000 )
                  (     0          1          0      )       ( -0.0000000 )
                  (     0          0          1      )       ( -0.5000000 )

 cart.    s(22) = ( -0.5000000 -0.8660254  0.0000000 )    f =(  0.0000000 )
                  ( -0.8660254  0.5000000  0.0000000 )       ( -0.0000000 )
                  (  0.0000000  0.0000000  1.0000000 )       ( -0.8198381 )


      isym = 23     inv. 180 deg rotation - cryst. axis [0,1,0]  

 cryst.   s(23) = (     1          1          0      )
                  (     0         -1          0      )
                  (     0          0          1      )

 cart.    s(23) = (  0.5000000  0.8660254  0.0000000 )
                  (  0.8660254 -0.5000000  0.0000000 )
                  (  0.0000000  0.0000000  1.0000000 )


      isym = 24     inv. 180 deg rotation - cryst. axis [1,1,0]  

 cryst.   s(24) = (     0         -1          0      )
                  (    -1          0          0      )
                  (     0          0          1      )

 cart.    s(24) = (  0.5000000 -0.8660254  0.0000000 )
                  ( -0.8660254 -0.5000000  0.0000000 )
                  (  0.0000000  0.0000000  1.0000000 )


     point group D_6h(6/mmm)
     there are 12 classes
     the character table:

       E     2C6   2C3   C2    3C2'  3C2'' i     2S3   2S6   s_h   3s_d  3s_v 
A_1g   1.00  1.00  1.00  1.00  1.00  1.00  1.00  1.00  1.00  1.00  1.00  1.00
A_2g   1.00  1.00  1.00  1.00 -1.00 -1.00  1.00  1.00  1.00  1.00 -1.00 -1.00
B_1g   1.00 -1.00  1.00 -1.00  1.00 -1.00  1.00 -1.00  1.00 -1.00  1.00 -1.00
B_2g   1.00 -1.00  1.00 -1.00 -1.00  1.00  1.00 -1.00  1.00 -1.00 -1.00  1.00
E_1g   2.00  1.00 -1.00 -2.00  0.00  0.00  2.00  1.00 -1.00 -2.00  0.00  0.00
E_2g   2.00 -1.00 -1.00  2.00  0.00  0.00  2.00 -1.00 -1.00  2.00  0.00  0.00
A_1u   1.00  1.00  1.00  1.00  1.00  1.00 -1.00 -1.00 -1.00 -1.00 -1.00 -1.00
A_2u   1.00  1.00  1.00  1.00 -1.00 -1.00 -1.00 -1.00 -1.00 -1.00  1.00  1.00
B_1u   1.00 -1.00  1.00 -1.00  1.00 -1.00 -1.00  1.00 -1.00  1.00 -1.00  1.00
B_2u   1.00 -1.00  1.00 -1.00 -1.00  1.00 -1.00  1.00 -1.00  1.00  1.00 -1.00
E_1u   2.00  1.00 -1.00 -2.00  0.00  0.00 -2.00 -1.00  1.00  2.00  0.00  0.00
E_2u   2.00 -1.00 -1.00  2.00  0.00  0.00 -2.00  1.00  1.00 -2.00  0.00  0.00

     the symmetry operations in each class and the name of the first element:

     E        1
          identity                                               
     2C6      5    6
           60 deg rotation - cryst. axis [0,0,1]                 
     2C3      7    8
          120 deg rotation - cryst. axis [0,0,1]                 
     C2       2
          180 deg rotation - cart. axis [0,0,1]                  
     3C2'     4   12   11
          180 deg rotation - cart. axis [1,0,0]                  
     3C2''    3    9   10
          180 deg rotation - cart. axis [0,1,0]                  
     i       13
          inversion                                              
     2S3     17   18
          inv.  60 deg rotation - cryst. axis [0,0,1]            
     2S6     19   20
          inv. 120 deg rotation - cryst. axis [0,0,1]            
     s_h     14
          inv. 180 deg rotation - cart. axis [0,0,1]             
     3s_d    16   24   23
          inv. 180 deg rotation - cart. axis [1,0,0]             
     3s_v    15   21   22
          inv. 180 deg rotation - cart. axis [0,1,0]             

   Cartesian axes

     site n.     atom                  positions (alat units)
         1           Co  tau(   1) = (  -0.0000000   0.5773503   0.4099190  )
         2           Co  tau(   2) = (   0.5000000   0.2886751   1.2297571  )

   Crystallographic axes

     site n.     atom                  positions (cryst. coord.)
         1           Co  tau(   1) = (  0.3333333  0.6666667  0.2500000  )
         2           Co  tau(   2) = (  0.6666667  0.3333333  0.7500000  )

     number of k points=    76  Gaussian smearing, width (Ry)=  0.0010
                       cart. coord. in units 2pi/alat
        k(    1) = (   0.0000000   0.0000000   0.0000000), wk =   0.0011574
        k(    2) = (   0.0000000   0.0000000   0.1016461), wk =   0.0023148
        k(    3) = (   0.0000000   0.0000000   0.2032922), wk =   0.0023148
        k(    4) = (   0.0000000   0.0000000  -0.3049383), wk =   0.0011574
        k(    5) = (   0.0000000   0.0962250   0.0000000), wk =   0.0069444
        k(    6) = (   0.0000000   0.0962250   0.1016461), wk =   0.0138889
        k(    7) = (   0.0000000   0.0962250   0.2032922), wk =   0.0138889
        k(    8) = (   0.0000000   0.0962250  -0.3049383), wk =   0.0069444
        k(    9) = (   0.0000000   0.1924501   0.0000000), wk =   0.0069444
        k(   10) = (   0.0000000   0.1924501   0.1016461), wk =   0.0138889
        k(   11) = (   0.0000000   0.1924501   0.2032922), wk =   0.0138889
        k(   12) = (   0.0000000   0.1924501  -0.3049383), wk =   0.0069444
        k(   13) = (   0.0000000   0.2886751   0.0000000), wk =   0.0069444
        k(   14) = (   0.0000000   0.2886751   0.1016461), wk =   0.0138889
        k(   15) = (   0.0000000   0.2886751   0.2032922), wk =   0.0138889
        k(   16) = (   0.0000000   0.2886751  -0.3049383), wk =   0.0069444
        k(   17) = (   0.0000000   0.3849002   0.0000000), wk =   0.0069444
        k(   18) = (   0.0000000   0.3849002   0.1016461), wk =   0.0138889
        k(   19) = (   0.0000000   0.3849002   0.2032922), wk =   0.0138889
        k(   20) = (   0.0000000   0.3849002  -0.3049383), wk =   0.0069444
        k(   21) = (   0.0000000   0.4811252   0.0000000), wk =   0.0069444
        k(   22) = (   0.0000000   0.4811252   0.1016461), wk =   0.0138889
        k(   23) = (   0.0000000   0.4811252   0.2032922), wk =   0.0138889
        k(   24) = (   0.0000000   0.4811252  -0.3049383), wk =   0.0069444
        k(   25) = (   0.0000000  -0.5773503   0.0000000), wk =   0.0034722
        k(   26) = (   0.0000000  -0.5773503   0.1016461), wk =   0.0069444
        k(   27) = (   0.0000000  -0.5773503   0.2032922), wk =   0.0069444
        k(   28) = (   0.0000000  -0.5773503  -0.3049383), wk =   0.0034722
        k(   29) = (   0.0833333   0.1443376   0.0000000), wk =   0.0069444
        k(   30) = (   0.0833333   0.1443376   0.1016461), wk =   0.0138889
        k(   31) = (   0.0833333   0.1443376   0.2032922), wk =   0.0138889
        k(   32) = (   0.0833333   0.1443376  -0.3049383), wk =   0.0069444
        k(   33) = (   0.0833333   0.2405626   0.0000000), wk =   0.0138889
        k(   34) = (   0.0833333   0.2405626   0.1016461), wk =   0.0277778
        k(   35) = (   0.0833333   0.2405626   0.2032922), wk =   0.0277778
        k(   36) = (   0.0833333   0.2405626  -0.3049383), wk =   0.0138889
        k(   37) = (   0.0833333   0.3367877   0.0000000), wk =   0.0138889
        k(   38) = (   0.0833333   0.3367877   0.1016461), wk =   0.0277778
        k(   39) = (   0.0833333   0.3367877   0.2032922), wk =   0.0277778
        k(   40) = (   0.0833333   0.3367877  -0.3049383), wk =   0.0138889
        k(   41) = (   0.0833333   0.4330127   0.0000000), wk =   0.0138889
        k(   42) = (   0.0833333   0.4330127   0.1016461), wk =   0.0277778
        k(   43) = (   0.0833333   0.4330127   0.2032922), wk =   0.0277778
        k(   44) = (   0.0833333   0.4330127  -0.3049383), wk =   0.0138889
        k(   45) = (   0.0833333   0.5292377   0.0000000), wk =   0.0138889
        k(   46) = (   0.0833333   0.5292377   0.1016461), wk =   0.0277778
        k(   47) = (   0.0833333   0.5292377   0.2032922), wk =   0.0277778
        k(   48) = (   0.0833333   0.5292377  -0.3049383), wk =   0.0138889
        k(   49) = (   0.1666667   0.2886751   0.0000000), wk =   0.0069444
        k(   50) = (   0.1666667   0.2886751   0.1016461), wk =   0.0138889
        k(   51) = (   0.1666667   0.2886751   0.2032922), wk =   0.0138889
        k(   52) = (   0.1666667   0.2886751  -0.3049383), wk =   0.0069444
        k(   53) = (   0.1666667   0.3849002   0.0000000), wk =   0.0138889
        k(   54) = (   0.1666667   0.3849002   0.1016461), wk =   0.0277778
        k(   55) = (   0.1666667   0.3849002   0.2032922), wk =   0.0277778
        k(   56) = (   0.1666667   0.3849002  -0.3049383), wk =   0.0138889
        k(   57) = (   0.1666667   0.4811252   0.0000000), wk =   0.0138889
        k(   58) = (   0.1666667   0.4811252   0.1016461), wk =   0.0277778
        k(   59) = (   0.1666667   0.4811252   0.2032922), wk =   0.0277778
        k(   60) = (   0.1666667   0.4811252  -0.3049383), wk =   0.0138889
        k(   61) = (   0.1666667   0.5773503   0.0000000), wk =   0.0069444
        k(   62) = (   0.1666667   0.5773503   0.1016461), wk =   0.0138889
        k(   63) = (   0.1666667   0.5773503   0.2032922), wk =   0.0138889
        k(   64) = (   0.1666667   0.5773503  -0.3049383), wk =   0.0069444
        k(   65) = (   0.2500000   0.4330127   0.0000000), wk =   0.0069444
        k(   66) = (   0.2500000   0.4330127   0.1016461), wk =   0.0138889
        k(   67) = (   0.2500000   0.4330127   0.2032922), wk =   0.0138889
        k(   68) = (   0.2500000   0.4330127  -0.3049383), wk =   0.0069444
        k(   69) = (   0.2500000   0.5292377   0.0000000), wk =   0.0138889
        k(   70) = (   0.2500000   0.5292377   0.1016461), wk =   0.0277778
        k(   71) = (   0.2500000   0.5292377   0.2032922), wk =   0.0277778
        k(   72) = (   0.2500000   0.5292377  -0.3049383), wk =   0.0138889
        k(   73) = (   0.3333333   0.5773503   0.0000000), wk =   0.0023148
        k(   74) = (   0.3333333   0.5773503   0.1016461), wk =   0.0046296
        k(   75) = (   0.3333333   0.5773503   0.2032922), wk =   0.0046296
        k(   76) = (   0.3333333   0.5773503  -0.3049383), wk =   0.0023148

                       cryst. coord.
        k(    1) = (   0.0000000   0.0000000   0.0000000), wk =   0.0011574
        k(    2) = (   0.0000000   0.0000000   0.1666667), wk =   0.0023148
        k(    3) = (   0.0000000   0.0000000   0.3333333), wk =   0.0023148
        k(    4) = (   0.0000000   0.0000000  -0.5000000), wk =   0.0011574
        k(    5) = (   0.0000000   0.0833333   0.0000000), wk =   0.0069444
        k(    6) = (   0.0000000   0.0833333   0.1666667), wk =   0.0138889
        k(    7) = (   0.0000000   0.0833333   0.3333333), wk =   0.0138889
        k(    8) = (   0.0000000   0.0833333  -0.5000000), wk =   0.0069444
        k(    9) = (   0.0000000   0.1666667   0.0000000), wk =   0.0069444
        k(   10) = (   0.0000000   0.1666667   0.1666667), wk =   0.0138889
        k(   11) = (   0.0000000   0.1666667   0.3333333), wk =   0.0138889
        k(   12) = (   0.0000000   0.1666667  -0.5000000), wk =   0.0069444
        k(   13) = (   0.0000000   0.2500000   0.0000000), wk =   0.0069444
        k(   14) = (   0.0000000   0.2500000   0.1666667), wk =   0.0138889
        k(   15) = (   0.0000000   0.2500000   0.3333333), wk =   0.0138889
        k(   16) = (   0.0000000   0.2500000  -0.5000000), wk =   0.0069444
        k(   17) = (   0.0000000   0.3333333   0.0000000), wk =   0.0069444
        k(   18) = (   0.0000000   0.3333333   0.1666667), wk =   0.0138889
        k(   19) = (   0.0000000   0.3333333   0.3333333), wk =   0.0138889
        k(   20) = (   0.0000000   0.3333333  -0.5000000), wk =   0.0069444
        k(   21) = (   0.0000000   0.4166667   0.0000000), wk =   0.0069444
        k(   22) = (   0.0000000   0.4166667   0.1666667), wk =   0.0138889
        k(   23) = (   0.0000000   0.4166667   0.3333333), wk =   0.0138889
        k(   24) = (   0.0000000   0.4166667  -0.5000000), wk =   0.0069444
        k(   25) = (   0.0000000  -0.5000000   0.0000000), wk =   0.0034722
        k(   26) = (   0.0000000  -0.5000000   0.1666667), wk =   0.0069444
        k(   27) = (   0.0000000  -0.5000000   0.3333333), wk =   0.0069444
        k(   28) = (   0.0000000  -0.5000000  -0.5000000), wk =   0.0034722
        k(   29) = (   0.0833333   0.0833333   0.0000000), wk =   0.0069444
        k(   30) = (   0.0833333   0.0833333   0.1666667), wk =   0.0138889
        k(   31) = (   0.0833333   0.0833333   0.3333333), wk =   0.0138889
        k(   32) = (   0.0833333   0.0833333  -0.5000000), wk =   0.0069444
        k(   33) = (   0.0833333   0.1666667   0.0000000), wk =   0.0138889
        k(   34) = (   0.0833333   0.1666667   0.1666667), wk =   0.0277778
        k(   35) = (   0.0833333   0.1666667   0.3333333), wk =   0.0277778
        k(   36) = (   0.0833333   0.1666667  -0.5000000), wk =   0.0138889
        k(   37) = (   0.0833333   0.2500000   0.0000000), wk =   0.0138889
        k(   38) = (   0.0833333   0.2500000   0.1666667), wk =   0.0277778
        k(   39) = (   0.0833333   0.2500000   0.3333333), wk =   0.0277778
        k(   40) = (   0.0833333   0.2500000  -0.5000000), wk =   0.0138889
        k(   41) = (   0.0833333   0.3333333   0.0000000), wk =   0.0138889
        k(   42) = (   0.0833333   0.3333333   0.1666667), wk =   0.0277778
        k(   43) = (   0.0833333   0.3333333   0.3333333), wk =   0.0277778
        k(   44) = (   0.0833333   0.3333333  -0.5000000), wk =   0.0138889
        k(   45) = (   0.0833333   0.4166667   0.0000000), wk =   0.0138889
        k(   46) = (   0.0833333   0.4166667   0.1666667), wk =   0.0277778
        k(   47) = (   0.0833333   0.4166667   0.3333333), wk =   0.0277778
        k(   48) = (   0.0833333   0.4166667  -0.5000000), wk =   0.0138889
        k(   49) = (   0.1666667   0.1666667   0.0000000), wk =   0.0069444
        k(   50) = (   0.1666667   0.1666667   0.1666667), wk =   0.0138889
        k(   51) = (   0.1666667   0.1666667   0.3333333), wk =   0.0138889
        k(   52) = (   0.1666667   0.1666667  -0.5000000), wk =   0.0069444
        k(   53) = (   0.1666667   0.2500000   0.0000000), wk =   0.0138889
        k(   54) = (   0.1666667   0.2500000   0.1666667), wk =   0.0277778
        k(   55) = (   0.1666667   0.2500000   0.3333333), wk =   0.0277778
        k(   56) = (   0.1666667   0.2500000  -0.5000000), wk =   0.0138889
        k(   57) = (   0.1666667   0.3333333   0.0000000), wk =   0.0138889
        k(   58) = (   0.1666667   0.3333333   0.1666667), wk =   0.0277778
        k(   59) = (   0.1666667   0.3333333   0.3333333), wk =   0.0277778
        k(   60) = (   0.1666667   0.3333333  -0.5000000), wk =   0.0138889
        k(   61) = (   0.1666667   0.4166667   0.0000000), wk =   0.0069444
        k(   62) = (   0.1666667   0.4166667   0.1666667), wk =   0.0138889
        k(   63) = (   0.1666667   0.4166667   0.3333333), wk =   0.0138889
        k(   64) = (   0.1666667   0.4166667  -0.5000000), wk =   0.0069444
        k(   65) = (   0.2500000   0.2500000   0.0000000), wk =   0.0069444
        k(   66) = (   0.2500000   0.2500000   0.1666667), wk =   0.0138889
        k(   67) = (   0.2500000   0.2500000   0.3333333), wk =   0.0138889
        k(   68) = (   0.2500000   0.2500000  -0.5000000), wk =   0.0069444
        k(   69) = (   0.2500000   0.3333333   0.0000000), wk =   0.0138889
        k(   70) = (   0.2500000   0.3333333   0.1666667), wk =   0.0277778
        k(   71) = (   0.2500000   0.3333333   0.3333333), wk =   0.0277778
        k(   72) = (   0.2500000   0.3333333  -0.5000000), wk =   0.0138889
        k(   73) = (   0.3333333   0.3333333   0.0000000), wk =   0.0023148
        k(   74) = (   0.3333333   0.3333333   0.1666667), wk =   0.0046296
        k(   75) = (   0.3333333   0.3333333   0.3333333), wk =   0.0046296
        k(   76) = (   0.3333333   0.3333333  -0.5000000), wk =   0.0023148

     Dense  grid:    23283 G-vectors     FFT dimensions: (  32,  32,  54)

     Smooth grid:    22551 G-vectors     FFT dimensions: (  32,  32,  54)

     Dynamical RAM for                 wfc:       0.04 MB

     Dynamical RAM for     wfc (w. buffer):       6.86 MB

     Dynamical RAM for           str. fact:       0.02 MB

     Dynamical RAM for           local pot:       0.00 MB

     Dynamical RAM for          nlocal pot:       0.08 MB

     Dynamical RAM for                qrad:       1.70 MB

     Dynamical RAM for          rho,v,vnew:       0.25 MB

     Dynamical RAM for               rhoin:       0.08 MB

     Dynamical RAM for            rho*nmix:       0.57 MB

     Dynamical RAM for           G-vectors:       0.08 MB

     Dynamical RAM for          h,s,v(r/c):       0.08 MB

     Dynamical RAM for          <psi|beta>:       0.01 MB

     Dynamical RAM for                 psi:       0.09 MB

     Dynamical RAM for                hpsi:       0.09 MB

     Dynamical RAM for                spsi:       0.09 MB

     Dynamical RAM for      wfcinit/wfcrot:       0.10 MB

     Dynamical RAM for           addusdens:       3.35 MB

     Estimated static dynamical RAM per process >       9.24 MB

     Estimated max dynamical RAM per process >      13.16 MB

     Estimated total dynamical RAM >     263.12 MB

     Check: negative core charge=   -0.000043
     Generating pointlists ...
     new r_m :   0.4125 (alat units)  1.9254 (a.u.) for type    1

     The initial density is read from file :
     ./out/Co.save/charge-density


     starting charge      34.0420, renormalised to      34.0000
     Starting wfcs from file
     Checking if some PAW data can be deallocated... 

     total cpu time spent up to now is        0.6 secs

     Self-consistent Calculation

     iteration #  1     ecut=   110.00 Ry     beta= 0.70
     Davidson diagonalization with overlap

---- Real-time Memory Report at c_bands before calling an iterative solver
            57 MiB given to the printing process from OS
             0 MiB allocation reported by mallinfo(arena+hblkhd)
        352410 MiB available memory on the node where the printing process lives
------------------
     ethr =  1.00E-05,  avg # of iterations =  2.6

     total cpu time spent up to now is        2.4 secs

     total energy              =    -753.45424065 Ry
     estimated scf accuracy    <       0.00076825 Ry

     total magnetization       =     3.31 Bohr mag/cell
     absolute magnetization    =     3.62 Bohr mag/cell

     iteration #  2     ecut=   110.00 Ry     beta= 0.70
     Davidson diagonalization with overlap

---- Real-time Memory Report at c_bands before calling an iterative solver
            80 MiB given to the printing process from OS
             0 MiB allocation reported by mallinfo(arena+hblkhd)
        352184 MiB available memory on the node where the printing process lives
------------------
     ethr =  2.26E-06,  avg # of iterations =  4.4

     total cpu time spent up to now is        4.4 secs

     total energy              =    -753.45443187 Ry
     estimated scf accuracy    <       0.00167035 Ry

     total magnetization       =     3.34 Bohr mag/cell
     absolute magnetization    =     3.65 Bohr mag/cell

     iteration #  3     ecut=   110.00 Ry     beta= 0.70
     Davidson diagonalization with overlap

---- Real-time Memory Report at c_bands before calling an iterative solver
            81 MiB given to the printing process from OS
             0 MiB allocation reported by mallinfo(arena+hblkhd)
        352174 MiB available memory on the node where the printing process lives
------------------
     ethr =  2.26E-06,  avg # of iterations =  3.9

     total cpu time spent up to now is        6.1 secs

     total energy              =    -753.45477931 Ry
     estimated scf accuracy    <       0.00000310 Ry

     total magnetization       =     3.33 Bohr mag/cell
     absolute magnetization    =     3.63 Bohr mag/cell

     iteration #  4     ecut=   110.00 Ry     beta= 0.70
     Davidson diagonalization with overlap

---- Real-time Memory Report at c_bands before calling an iterative solver
            82 MiB given to the printing process from OS
             0 MiB allocation reported by mallinfo(arena+hblkhd)
        352164 MiB available memory on the node where the printing process lives
------------------
     ethr =  9.11E-09,  avg # of iterations =  7.9

     total cpu time spent up to now is        9.2 secs

     total energy              =    -753.45479482 Ry
     estimated scf accuracy    <       0.00000762 Ry

     total magnetization       =     3.33 Bohr mag/cell
     absolute magnetization    =     3.64 Bohr mag/cell

     iteration #  5     ecut=   110.00 Ry     beta= 0.70
     Davidson diagonalization with overlap

---- Real-time Memory Report at c_bands before calling an iterative solver
            82 MiB given to the printing process from OS
             0 MiB allocation reported by mallinfo(arena+hblkhd)
        352158 MiB available memory on the node where the printing process lives
------------------
     ethr =  9.11E-09,  avg # of iterations =  1.9

     total cpu time spent up to now is       10.5 secs

     total energy              =    -753.45479577 Ry
     estimated scf accuracy    <       0.00000263 Ry

     total magnetization       =     3.33 Bohr mag/cell
     absolute magnetization    =     3.64 Bohr mag/cell

     iteration #  6     ecut=   110.00 Ry     beta= 0.70
     Davidson diagonalization with overlap

---- Real-time Memory Report at c_bands before calling an iterative solver
            84 MiB given to the printing process from OS
             0 MiB allocation reported by mallinfo(arena+hblkhd)
        352144 MiB available memory on the node where the printing process lives
------------------
     ethr =  7.72E-09,  avg # of iterations =  3.2
 
     Magnetic moment per site  (integrated on atomic sphere of radius R)
     atom   1 (R=0.413)  charge= 15.5876  magn=  1.7382
     atom   2 (R=0.413)  charge= 15.5876  magn=  1.7382

     total cpu time spent up to now is       12.0 secs

     End of self-consistent calculation

 ------ SPIN UP ------------


          k = 0.0000 0.0000 0.0000 (  2803 PWs)   bands (ev):

   -77.1455 -77.0889 -40.5526 -40.2395 -40.2395 -40.2210 -40.1934 -40.1934
     9.9143  13.7211  16.2553  16.3601  16.3601  16.6655  16.6655  17.0600
    17.0600  18.1378  18.1378  18.5950  25.2141

     occupation numbers 
     1.0000   1.0000   1.0000   1.0000   1.0000   1.0000   1.0000   1.0000
     1.0000   1.0000   1.0000   1.0000   1.0000   1.0000   1.0000   1.0000
     1.0000   1.0000   1.0000   1.0000   0.0000

          k = 0.0000 0.0000 0.1016 (  2821 PWs)   bands (ev):

   -77.1417 -77.0927 -40.5307 -40.2435 -40.2364 -40.2364 -40.1965 -40.1965
    10.1891  13.6447  16.1864  16.3025  16.3025  16.5960  16.5960  17.2135
    17.2135  17.6703  18.1191  18.1191  26.7053

     occupation numbers 
     1.0000   1.0000   1.0000   1.0000   1.0000   1.0000   1.0000   1.0000
     1.0000   1.0000   1.0000   1.0000   1.0000   1.0000   1.0000   1.0000
     1.0000   1.0000   1.0000   1.0000   0.0000

          k = 0.0000 0.0000 0.2033 (  2834 PWs)   bands (ev):

   -77.1314 -77.1031 -40.4706 -40.3048 -40.2280 -40.2280 -40.2049 -40.2049
    10.9767  13.1904  16.0279  16.2529  16.2529  16.3921  16.4417  16.4417
    17.5236  17.5236  18.0284  18.0284  29.8782

     occupation numbers 
     1.0000   1.0000   1.0000   1.0000   1.0000   1.0000   1.0000   1.0000
     1.0000   1.0000   1.0000   1.0000   1.0000   1.0000   1.0000   1.0000
     1.0000   1.0000   1.0000   1.0000   0.0000

          k = 0.0000 0.0000-0.3049 (  2834 PWs)   bands (ev):

   -77.1173 -77.1173 -40.3880 -40.3880 -40.2165 -40.2165 -40.2165 -40.2165
    12.1249  12.1249  15.9537  15.9537  16.3035  16.3035  16.3035  16.3035
    17.8237  17.8237  17.8237  17.8237  33.6767

     occupation numbers 
     1.0000   1.0000   1.0000   1.0000   1.0000   1.0000   1.0000   1.0000
     1.0000   1.0000   1.0000   1.0000   1.0000   1.0000   1.0000   1.0000
     1.0000   1.0000   1.0000   1.0000   0.0000

          k = 0.0000 0.0962 0.0000 (  2805 PWs)   bands (ev):

   -77.1421 -77.0872 -40.5453 -40.2567 -40.2450 -40.2237 -40.2111 -40.1963
    10.1610  13.8731  16.0934  16.4779  16.4869  16.6123  16.7707  16.8802
    16.9876  17.2796  18.1670  19.7947  25.2532

     occupation numbers 
     1.0000   1.0000   1.0000   1.0000   1.0000   1.0000   1.0000   1.0000
     1.0000   1.0000   1.0000   1.0000   1.0000   1.0000   1.0000   1.0000
     1.0000   1.0000   1.0000   0.0000   0.0000

          k = 0.0000 0.0962 0.1016 (  2813 PWs)   bands (ev):

   -77.1384 -77.0908 -40.5245 -40.2534 -40.2493 -40.2417 -40.2101 -40.1996
    10.4314  13.8112  16.0927  16.3227  16.4051  16.4274  16.6954  16.9485
    17.1664  17.2260  18.1411  19.0605  26.8147

     occupation numbers 
     1.0000   1.0000   1.0000   1.0000   1.0000   1.0000   1.0000   1.0000
     1.0000   1.0000   1.0000   1.0000   1.0000   1.0000   1.0000   1.0000
     1.0000   1.0000   1.0000   0.0000   0.0000

          k = 0.0000 0.0962 0.2033 (  2823 PWs)   bands (ev):

   -77.1284 -77.1009 -40.4676 -40.3099 -40.2433 -40.2328 -40.2176 -40.2085
    11.2065  13.3841  15.9723  16.0152  16.1686  16.3480  16.5395  16.5703
    17.4963  17.5386  18.0338  18.3252  30.0345

     occupation numbers 
     1.0000   1.0000   1.0000   1.0000   1.0000   1.0000   1.0000   1.0000
     1.0000   1.0000   1.0000   1.0000   1.0000   1.0000   1.0000   1.0000
     1.0000   1.0000   1.0000   1.0000   0.0000

          k = 0.0000 0.0962-0.3049 (  2818 PWs)   bands (ev):

   -77.1147 -77.1147 -40.3893 -40.3893 -40.2302 -40.2302 -40.2207 -40.2207
    12.3362  12.3362  15.8214  15.8214  16.3008  16.3008  16.3995  16.3995
    17.8117  17.8117  17.9142  17.9142  33.8495

     occupation numbers 
     1.0000   1.0000   1.0000   1.0000   1.0000   1.0000   1.0000   1.0000
     1.0000   1.0000   1.0000   1.0000   1.0000   1.0000   1.0000   1.0000
     1.0000   1.0000   1.0000   1.0000   0.0000

          k = 0.0000 0.1925 0.0000 (  2809 PWs)   bands (ev):

   -77.1325 -77.0826 -40.5242 -40.3038 -40.2596 -40.2592 -40.2323 -40.2047
    10.8738  14.2497  15.8301  16.0824  16.4177  16.7945  16.8092  16.8107
    16.9609  17.0656  18.2281  21.4084  25.3922

     occupation numbers 
     1.0000   1.0000   1.0000   1.0000   1.0000   1.0000   1.0000   1.0000
     1.0000   1.0000   1.0000   1.0000   1.0000   1.0000   1.0000   1.0000
     1.0000   1.0000   1.0000   0.0000   0.0000

          k = 0.0000 0.1925 0.1016 (  2808 PWs)   bands (ev):

   -77.1291 -77.0859 -40.5074 -40.2990 -40.2798 -40.2560 -40.2337 -40.2084
    11.1280  14.2321  15.8098  15.8719  16.2959  16.6318  16.6811  16.9539
    17.1378  17.2094  18.1864  20.2985  27.1719

     occupation numbers 
     1.0000   1.0000   1.0000   1.0000   1.0000   1.0000   1.0000   1.0000
     1.0000   1.0000   1.0000   1.0000   1.0000   1.0000   1.0000   1.0000
     1.0000   1.0000   1.0000   0.0000   0.0000

          k = 0.0000 0.1925 0.2033 (  2810 PWs)   bands (ev):

   -77.1200 -77.0951 -40.4611 -40.3321 -40.2828 -40.2459 -40.2447 -40.2185
    11.8533  13.8849  15.4760  15.9323  16.0113  16.5076  16.5813  16.8098
    17.4661  17.6175  18.0452  18.9690  30.5027

     occupation numbers 
     1.0000   1.0000   1.0000   1.0000   1.0000   1.0000   1.0000   1.0000
     1.0000   1.0000   1.0000   1.0000   1.0000   1.0000   1.0000   1.0000
     1.0000   1.0000   1.0000   0.8412   0.0000

          k = 0.0000 0.1925-0.3049 (  2818 PWs)   bands (ev):

   -77.1075 -77.1075 -40.3973 -40.3973 -40.2633 -40.2633 -40.2322 -40.2322
    12.9045  12.9045  15.5986  15.5986  16.2300  16.2300  16.6553  16.6553
    17.7940  17.7940  18.1585  18.1585  34.3278

     occupation numbers 
     1.0000   1.0000   1.0000   1.0000   1.0000   1.0000   1.0000   1.0000
     1.0000   1.0000   1.0000   1.0000   1.0000   1.0000   1.0000   1.0000
     1.0000   1.0000   1.0000   1.0000   0.0000

          k = 0.0000 0.2887 0.0000 (  2807 PWs)   bands (ev):

   -77.1188 -77.0767 -40.4927 -40.3687 -40.3237 -40.2791 -40.2466 -40.2167
    11.9502  14.5501  15.3459  15.6720  16.3066  16.5947  16.7479  17.2402
    17.2937  17.4895  18.2842  23.2183  25.6663

     occupation numbers 
     1.0000   1.0000   1.0000   1.0000   1.0000   1.0000   1.0000   1.0000
     1.0000   1.0000   1.0000   1.0000   1.0000   1.0000   1.0000   1.0000
     1.0000   1.0000   1.0000   0.0000   0.0000

          k = 0.0000 0.2887 0.1016 (  2801 PWs)   bands (ev):

   -77.1160 -77.0796 -40.4848 -40.3594 -40.3377 -40.2749 -40.2500 -40.2209
    12.1606  14.5857  15.2053  15.7251  16.1576  16.6344  16.7443  17.3339
    17.3711  17.4477  18.2293  21.5860  27.8183

     occupation numbers 
     1.0000   1.0000   1.0000   1.0000   1.0000   1.0000   1.0000   1.0000
     1.0000   1.0000   1.0000   1.0000   1.0000   1.0000   1.0000   1.0000
     1.0000   1.0000   1.0000   0.0000   0.0000

          k = 0.0000 0.2887 0.2033 (  2804 PWs)   bands (ev):

   -77.1083 -77.0873 -40.4610 -40.3804 -40.3262 -40.2648 -40.2635 -40.2323
    12.7468  14.3256  15.1438  15.7402  16.0433  16.5850  16.7579  17.1890
    17.5935  17.7723  18.0714  19.7427  31.1747

     occupation numbers 
     1.0000   1.0000   1.0000   1.0000   1.0000   1.0000   1.0000   1.0000
     1.0000   1.0000   1.0000   1.0000   1.0000   1.0000   1.0000   1.0000
     1.0000   1.0000   1.0000   0.0000   0.0000

          k = 0.0000 0.2887-0.3049 (  2816 PWs)   bands (ev):

   -77.0978 -77.0978 -40.4236 -40.4236 -40.2927 -40.2927 -40.2480 -40.2480
    13.5603  13.5603  15.4406  15.4406  16.2928  16.2928  16.9576  16.9576
    17.8399  17.8399  18.5029  18.5029  33.5660

     occupation numbers 
     1.0000   1.0000   1.0000   1.0000   1.0000   1.0000   1.0000   1.0000
     1.0000   1.0000   1.0000   1.0000   1.0000   1.0000   1.0000   1.0000
     1.0000   1.0000   1.0000   1.0000   0.0000

          k = 0.0000 0.3849 0.0000 (  2812 PWs)   bands (ev):

   -77.1043 -77.0718 -40.4560 -40.4341 -40.3872 -40.2981 -40.2662 -40.2290
    13.1194  14.4766  14.8185  15.7881  16.4014  16.4327  16.5507  17.8100
    17.9483  17.9578  18.3211  25.1888  25.7776

     occupation numbers 
     1.0000   1.0000   1.0000   1.0000   1.0000   1.0000   1.0000   1.0000
     1.0000   1.0000   1.0000   1.0000   1.0000   1.0000   1.0000   1.0000
     1.0000   1.0000   1.0000   0.0000   0.0000

          k = 0.0000 0.3849 0.1016 (  2806 PWs)   bands (ev):

   -77.1021 -77.0740 -40.4757 -40.4107 -40.3903 -40.2935 -40.2668 -40.2337
    13.2135  14.4975  14.8611  15.6269  16.3696  16.4939  16.9068  17.8216
    17.8584  17.8936  18.2744  22.8360  28.0467

     occupation numbers 
     1.0000   1.0000   1.0000   1.0000   1.0000   1.0000   1.0000   1.0000
     1.0000   1.0000   1.0000   1.0000   1.0000   1.0000   1.0000   1.0000
     1.0000   1.0000   1.0000   0.0000   0.0000

          k = 0.0000 0.3849 0.2033 (  2807 PWs)   bands (ev):

   -77.0962 -77.0799 -40.4825 -40.4377 -40.3465 -40.2809 -40.2768 -40.2464
    13.4812  14.3059  15.0131  15.5181  16.4922  16.7545  17.2324  17.5321
    17.9282  18.0059  18.1695  20.6348  29.2487

     occupation numbers 
     1.0000   1.0000   1.0000   1.0000   1.0000   1.0000   1.0000   1.0000
     1.0000   1.0000   1.0000   1.0000   1.0000   1.0000   1.0000   1.0000
     1.0000   1.0000   1.0000   0.0000   0.0000

          k = 0.0000 0.3849-0.3049 (  2814 PWs)   bands (ev):

   -77.0881 -77.0881 -40.4677 -40.4677 -40.3041 -40.3041 -40.2637 -40.2637
    13.8793  13.8793  15.3001  15.3001  16.9143  16.9143  17.1311  17.1311
    18.0453  18.0453  18.9870  18.9870  30.3556

     occupation numbers 
     1.0000   1.0000   1.0000   1.0000   1.0000   1.0000   1.0000   1.0000
     1.0000   1.0000   1.0000   1.0000   1.0000   1.0000   1.0000   1.0000
     1.0000   1.0000   0.1927   0.1926   0.0000

          k = 0.0000 0.4811 0.0000 (  2810 PWs)   bands (ev):

   -77.0925 -77.0694 -40.4822 -40.4329 -40.4221 -40.3119 -40.2875 -40.2382
    13.8791  14.2823  14.5047  16.1544  16.2693  16.4103  16.6484  18.1978
    18.3270  18.3398  19.1085  24.0645  27.2231

     occupation numbers 
     1.0000   1.0000   1.0000   1.0000   1.0000   1.0000   1.0000   1.0000
     1.0000   1.0000   1.0000   1.0000   1.0000   1.0000   1.0000   1.0000
     1.0000   1.0000   0.0000   0.0000   0.0000

          k = 0.0000 0.4811 0.1016 (  2815 PWs)   bands (ev):

   -77.0909 -77.0709 -40.4997 -40.4497 -40.3910 -40.3070 -40.2843 -40.2432
    13.7636  14.2689  14.8256  15.5137  16.3817  16.6584  17.2752  18.1012
    18.2244  18.3804  18.9448  23.2271  26.6581

     occupation numbers 
     1.0000   1.0000   1.0000   1.0000   1.0000   1.0000   1.0000   1.0000
     1.0000   1.0000   1.0000   1.0000   1.0000   1.0000   1.0000   1.0000
     1.0000   1.0000   0.9998   0.0000   0.0000

          k = 0.0000 0.4811 0.2033 (  2813 PWs)   bands (ev):

   -77.0867 -77.0751 -40.5137 -40.4810 -40.3436 -40.2935 -40.2861 -40.2567
    13.7243  14.1932  14.9966  15.3101  16.7003  16.9295  17.6817  18.2583
    18.2636  18.3570  18.6073  21.4854  26.8415

     occupation numbers 
     1.0000   1.0000   1.0000   1.0000   1.0000   1.0000   1.0000   1.0000
     1.0000   1.0000   1.0000   1.0000   1.0000   1.0000   1.0000   1.0000
     1.0000   1.0000   1.0000   0.0000   0.0000

          k = 0.0000 0.4811-0.3049 (  2830 PWs)   bands (ev):

   -77.0809 -77.0809 -40.5066 -40.5066 -40.3056 -40.3056 -40.2751 -40.2751
    13.9046  13.9046  15.1705  15.1705  17.1675  17.1675  17.6530  17.6530
    18.3090  18.3090  19.8290  19.8290  27.6146

     occupation numbers 
     1.0000   1.0000   1.0000   1.0000   1.0000   1.0000   1.0000   1.0000
     1.0000   1.0000   1.0000   1.0000   1.0000   1.0000   1.0000   1.0000
     1.0000   1.0000   0.0000   0.0000   0.0000

          k = 0.0000-0.5774 0.0000 (  2818 PWs)   bands (ev):

   -77.0876 -77.0691 -40.4999 -40.4495 -40.4063 -40.3169 -40.2987 -40.2416
    14.1250  14.1480  14.4007  16.2226  16.3595  16.4127  16.7233  18.3383
    18.3453  18.4801  20.2873  22.3445  28.5440

     occupation numbers 
     1.0000   1.0000   1.0000   1.0000   1.0000   1.0000   1.0000   1.0000
     1.0000   1.0000   1.0000   1.0000   1.0000   1.0000   1.0000   1.0000
     1.0000   1.0000   0.0000   0.0000   0.0000

          k = 0.0000-0.5774 0.1016 (  2806 PWs)   bands (ev):

   -77.0863 -77.0703 -40.5137 -40.4654 -40.3818 -40.3118 -40.2933 -40.2467
    13.8593  14.1722  14.8573  15.4848  16.3406  16.7450  17.4849  18.1495
    18.3715  18.4726  20.0673  22.1542  27.7274

     occupation numbers 
     1.0000   1.0000   1.0000   1.0000   1.0000   1.0000   1.0000   1.0000
     1.0000   1.0000   1.0000   1.0000   1.0000   1.0000   1.0000   1.0000
     1.0000   1.0000   0.0000   0.0000   0.0000

          k = 0.0000-0.5774 0.2033 (  2802 PWs)   bands (ev):

   -77.0829 -77.0737 -40.5274 -40.4969 -40.3391 -40.2981 -40.2905 -40.2605
    13.7417  14.1486  15.0250  15.2128  16.6758  17.0728  17.7108  18.3853
    18.3945  18.4520  19.7139  21.5232  26.7106

     occupation numbers 
     1.0000   1.0000   1.0000   1.0000   1.0000   1.0000   1.0000   1.0000
     1.0000   1.0000   1.0000   1.0000   1.0000   1.0000   1.0000   1.0000
     1.0000   1.0000   0.0000   0.0000   0.0000

          k = 0.0000-0.5774-0.3049 (  2820 PWs)   bands (ev):

   -77.0783 -77.0783 -40.5216 -40.5216 -40.3053 -40.3053 -40.2793 -40.2793
    13.8872  13.8872  15.1204  15.1204  17.1683  17.1683  17.8962  17.8962
    18.4235  18.4235  20.4924  20.4924  26.3450

     occupation numbers 
     1.0000   1.0000   1.0000   1.0000   1.0000   1.0000   1.0000   1.0000
     1.0000   1.0000   1.0000   1.0000   1.0000   1.0000   1.0000   1.0000
     1.0000   1.0000   0.0000   0.0000   0.0000

          k = 0.0833 0.1443 0.0000 (  2803 PWs)   bands (ev):

   -77.1355 -77.0840 -40.5310 -40.2860 -40.2631 -40.2366 -40.2294 -40.2042
    10.6416  14.1437  15.8863  16.3346  16.5003  16.6352  16.7184  16.7695
    17.0005  17.0956  18.2009  20.9577  25.3442

     occupation numbers 
     1.0000   1.0000   1.0000   1.0000   1.0000   1.0000   1.0000   1.0000
     1.0000   1.0000   1.0000   1.0000   1.0000   1.0000   1.0000   1.0000
     1.0000   1.0000   1.0000   0.0000   0.0000

          k = 0.0833 0.1443 0.1016 (  2812 PWs)   bands (ev):

   -77.1321 -77.0875 -40.5128 -40.2814 -40.2716 -40.2519 -40.2254 -40.2077
    10.9020  14.1116  15.9157  16.0005  16.3438  16.5744  16.6631  16.8668
    17.1486  17.2149  18.1670  19.9626  27.0501

     occupation numbers 
     1.0000   1.0000   1.0000   1.0000   1.0000   1.0000   1.0000   1.0000
     1.0000   1.0000   1.0000   1.0000   1.0000   1.0000   1.0000   1.0000
     1.0000   1.0000   1.0000   0.0000   0.0000

          k = 0.0833 0.1443 0.2033 (  2810 PWs)   bands (ev):

   -77.1227 -77.0969 -40.4628 -40.3234 -40.2689 -40.2478 -40.2316 -40.2172
    11.6466  13.7382  15.6001  15.9763  16.0263  16.4893  16.5437  16.7271
    17.4960  17.5662  18.0439  18.7826  30.3495

     occupation numbers 
     1.0000   1.0000   1.0000   1.0000   1.0000   1.0000   1.0000   1.0000
     1.0000   1.0000   1.0000   1.0000   1.0000   1.0000   1.0000   1.0000
     1.0000   1.0000   1.0000   1.0000   0.0000

          k = 0.0833 0.1443-0.3049 (  2826 PWs)   bands (ev):

   -77.1098 -77.1098 -40.3938 -40.3938 -40.2532 -40.2532 -40.2292 -40.2292
    12.7297  12.7297  15.6564  15.6564  16.2327  16.2327  16.5877  16.5877
    17.7995  17.7995  18.0824  18.0824  34.1837

     occupation numbers 
     1.0000   1.0000   1.0000   1.0000   1.0000   1.0000   1.0000   1.0000
     1.0000   1.0000   1.0000   1.0000   1.0000   1.0000   1.0000   1.0000
     1.0000   1.0000   1.0000   1.0000   0.0000

          k = 0.0833 0.2406 0.0000 (  2800 PWs)   bands (ev):

   -77.1239 -77.0788 -40.5047 -40.3380 -40.3089 -40.2649 -40.2409 -40.2177
    11.5452  14.5305  15.6145  15.6157  16.3610  16.5328  16.9021  16.9449
    17.1572  17.4329  18.2412  22.5664  25.5721

     occupation numbers 
     1.0000   1.0000   1.0000   1.0000   1.0000   1.0000   1.0000   1.0000
     1.0000   1.0000   1.0000   1.0000   1.0000   1.0000   1.0000   1.0000
     1.0000   1.0000   1.0000   0.0000   0.0000

          k = 0.0833 0.2406 0.1016 (  2806 PWs)   bands (ev):

   -77.1209 -77.0818 -40.4925 -40.3316 -40.3189 -40.2698 -40.2411 -40.2214
    11.7777  14.5575  15.4051  15.6672  16.2465  16.5223  16.7659  17.0632
    17.3444  17.4088  18.2029  21.1438  27.5734

     occupation numbers 
     1.0000   1.0000   1.0000   1.0000   1.0000   1.0000   1.0000   1.0000
     1.0000   1.0000   1.0000   1.0000   1.0000   1.0000   1.0000   1.0000
     1.0000   1.0000   1.0000   0.0000   0.0000

          k = 0.0833 0.2406 0.2033 (  2802 PWs)   bands (ev):

   -77.1126 -77.0901 -40.4585 -40.3595 -40.3084 -40.2705 -40.2475 -40.2315
    12.4347  14.2669  15.2286  15.7773  15.9700  16.4017  16.7323  17.0571
    17.5868  17.6905  18.0813  19.4750  30.9678

     occupation numbers 
     1.0000   1.0000   1.0000   1.0000   1.0000   1.0000   1.0000   1.0000
     1.0000   1.0000   1.0000   1.0000   1.0000   1.0000   1.0000   1.0000
     1.0000   1.0000   1.0000   0.0000   0.0000

          k = 0.0833 0.2406-0.3049 (  2812 PWs)   bands (ev):

   -77.1014 -77.1014 -40.4103 -40.4103 -40.2839 -40.2839 -40.2440 -40.2440
    13.3719  13.3719  15.5027  15.5027  16.1206  16.1206  16.8779  16.8779
    17.8451  17.8451  18.3801  18.3801  34.6491

     occupation numbers 
     1.0000   1.0000   1.0000   1.0000   1.0000   1.0000   1.0000   1.0000
     1.0000   1.0000   1.0000   1.0000   1.0000   1.0000   1.0000   1.0000
     1.0000   1.0000   1.0000   1.0000   0.0000

          k = 0.0833 0.3368 0.0000 (  2803 PWs)   bands (ev):

   -77.1098 -77.0735 -40.4703 -40.4015 -40.3646 -40.2916 -40.2582 -40.2323
    12.7067  14.6530  15.0369  15.5541  16.3364  16.3593  16.7335  17.3315
    17.6777  18.0187  18.2742  24.4184  25.9300

     occupation numbers 
     1.0000   1.0000   1.0000   1.0000   1.0000   1.0000   1.0000   1.0000
     1.0000   1.0000   1.0000   1.0000   1.0000   1.0000   1.0000   1.0000
     1.0000   1.0000   1.0000   0.0000   0.0000

          k = 0.0833 0.3368 0.1016 (  2807 PWs)   bands (ev):

   -77.1074 -77.0759 -40.4731 -40.3895 -40.3701 -40.2917 -40.2583 -40.2359
    12.8668  14.7092  14.9500  15.5996  16.1564  16.5679  16.7010  17.3664
    17.7625  17.8728  18.2911  22.4160  28.3372

     occupation numbers 
     1.0000   1.0000   1.0000   1.0000   1.0000   1.0000   1.0000   1.0000
     1.0000   1.0000   1.0000   1.0000   1.0000   1.0000   1.0000   1.0000
     1.0000   1.0000   1.0000   0.0000   0.0000

          k = 0.0833 0.3368 0.2033 (  2808 PWs)   bands (ev):

   -77.1007 -77.0826 -40.4677 -40.4126 -40.3395 -40.2884 -40.2646 -40.2460
    13.3008  14.4471  15.0755  15.6548  16.0791  16.5674  16.7912  17.3868
    17.8146  17.9844  18.2639  20.3349  30.8742

     occupation numbers 
     1.0000   1.0000   1.0000   1.0000   1.0000   1.0000   1.0000   1.0000
     1.0000   1.0000   1.0000   1.0000   1.0000   1.0000   1.0000   1.0000
     1.0000   1.0000   1.0000   0.0000   0.0000

          k = 0.0833 0.3368-0.3049 (  2810 PWs)   bands (ev):

   -77.0916 -77.0916 -40.4456 -40.4456 -40.3036 -40.3036 -40.2602 -40.2602
    13.8831  13.8831  15.4132  15.4132  16.3074  16.3074  17.0693  17.0693
    18.0601  18.0601  18.8430  18.8430  32.0829

     occupation numbers 
     1.0000   1.0000   1.0000   1.0000   1.0000   1.0000   1.0000   1.0000
     1.0000   1.0000   1.0000   1.0000   1.0000   1.0000   1.0000   1.0000
     1.0000   1.0000   1.0000   1.0000   0.0000

          k = 0.0833 0.4330 0.0000 (  2817 PWs)   bands (ev):

   -77.0964 -77.0699 -40.4577 -40.4340 -40.4129 -40.3131 -40.2796 -40.2449
    13.7216  14.4695  14.6484  15.7915  16.2150  16.5175  16.5596  17.8752
    18.1202  18.2934  18.8356  25.3698  26.4295

     occupation numbers 
     1.0000   1.0000   1.0000   1.0000   1.0000   1.0000   1.0000   1.0000
     1.0000   1.0000   1.0000   1.0000   1.0000   1.0000   1.0000   1.0000
     1.0000   1.0000   1.0000   0.0000   0.0000

          k = 0.0833 0.4330 0.1016 (  2813 PWs)   bands (ev):

   -77.0947 -77.0717 -40.4816 -40.4319 -40.3928 -40.3101 -40.2775 -40.2483
    13.7074  14.4812  14.8119  15.5285  16.2923  16.6116  16.8658  17.8252
    18.1149  18.1791  18.8325  23.5169  27.2273

     occupation numbers 
     1.0000   1.0000   1.0000   1.0000   1.0000   1.0000   1.0000   1.0000
     1.0000   1.0000   1.0000   1.0000   1.0000   1.0000   1.0000   1.0000
     1.0000   1.0000   1.0000   0.0000   0.0000

          k = 0.0833 0.4330 0.2033 (  2810 PWs)   bands (ev):

   -77.0898 -77.0766 -40.4952 -40.4608 -40.3472 -40.3009 -40.2807 -40.2572
    13.7795  14.3458  15.0045  15.4719  16.3996  16.8380  17.2732  17.5705
    17.9976  18.3285  18.8914  21.3693  27.9663

     occupation numbers 
     1.0000   1.0000   1.0000   1.0000   1.0000   1.0000   1.0000   1.0000
     1.0000   1.0000   1.0000   1.0000   1.0000   1.0000   1.0000   1.0000
     1.0000   1.0000   1.0000   0.0000   0.0000

          k = 0.0833 0.4330-0.3049 (  2816 PWs)   bands (ev):

   -77.0832 -77.0832 -40.4866 -40.4866 -40.3119 -40.3119 -40.2724 -40.2724
    14.0172  14.0172  15.2852  15.2852  16.8411  16.8411  17.2414  17.2414
    18.2756  18.2756  19.7061  19.7061  28.9962

     occupation numbers 
     1.0000   1.0000   1.0000   1.0000   1.0000   1.0000   1.0000   1.0000
     1.0000   1.0000   1.0000   1.0000   1.0000   1.0000   1.0000   1.0000
     1.0000   1.0000   0.0000   0.0000   0.0000

          k = 0.0833 0.5292 0.0000 (  2812 PWs)   bands (ev):

   -77.0876 -77.0690 -40.4903 -40.4407 -40.4065 -40.3250 -40.2985 -40.2522
    14.1653  14.3040  14.4549  16.1676  16.1794  16.3632  16.7212  18.2712
    18.3012  18.3516  20.1300  23.1221  28.3507

     occupation numbers 
     1.0000   1.0000   1.0000   1.0000   1.0000   1.0000   1.0000   1.0000
     1.0000   1.0000   1.0000   1.0000   1.0000   1.0000   1.0000   1.0000
     1.0000   1.0000   0.0000   0.0000   0.0000

          k = 0.0833 0.5292 0.1016 (  2819 PWs)   bands (ev):

   -77.0864 -77.0703 -40.5043 -40.4571 -40.3830 -40.3190 -40.2942 -40.2556
    13.9438  14.3074  14.8962  15.4695  16.2253  16.7948  17.1460  18.0913
    18.2854  18.3802  20.0570  22.8379  27.1552

     occupation numbers 
     1.0000   1.0000   1.0000   1.0000   1.0000   1.0000   1.0000   1.0000
     1.0000   1.0000   1.0000   1.0000   1.0000   1.0000   1.0000   1.0000
     1.0000   1.0000   0.0000   0.0000   0.0000

          k = 0.0833 0.5292 0.2033 (  2819 PWs)   bands (ev):

   -77.0830 -77.0737 -40.5182 -40.4884 -40.3452 -40.3032 -40.2944 -40.2636
    13.8485  14.2787  15.0342  15.3255  16.3976  17.1425  17.5454  17.8274
    18.2451  18.4416  20.0838  21.9449  26.4836

     occupation numbers 
     1.0000   1.0000   1.0000   1.0000   1.0000   1.0000   1.0000   1.0000
     1.0000   1.0000   1.0000   1.0000   1.0000   1.0000   1.0000   1.0000
     1.0000   1.0000   0.0000   0.0000   0.0000

          k = 0.0833 0.5292-0.3049 (  2812 PWs)   bands (ev):

   -77.0783 -77.0783 -40.5127 -40.5127 -40.3157 -40.3157 -40.2780 -40.2780
    14.0034  14.0034  15.1964  15.1964  16.9449  16.9449  17.6828  17.6828
    18.3176  18.3176  20.8107  20.8107  26.7661

     occupation numbers 
     1.0000   1.0000   1.0000   1.0000   1.0000   1.0000   1.0000   1.0000
     1.0000   1.0000   1.0000   1.0000   1.0000   1.0000   1.0000   1.0000
     1.0000   1.0000   0.0000   0.0000   0.0000

          k = 0.1667 0.2887 0.0000 (  2802 PWs)   bands (ev):

   -77.1117 -77.0741 -40.4753 -40.3762 -40.3671 -40.2844 -40.2555 -40.2409
    12.5614  14.8456  15.1529  15.3152  16.2573  16.3660  16.8402  17.0726
    17.6636  18.0443  18.2317  24.1587  25.9660

     occupation numbers 
     1.0000   1.0000   1.0000   1.0000   1.0000   1.0000   1.0000   1.0000
     1.0000   1.0000   1.0000   1.0000   1.0000   1.0000   1.0000   1.0000
     1.0000   1.0000   1.0000   0.0000   0.0000

          k = 0.1667 0.2887 0.1016 (  2802 PWs)   bands (ev):

   -77.1092 -77.0766 -40.4734 -40.3753 -40.3620 -40.2931 -40.2511 -40.2448
    12.7439  14.9389  15.0077  15.3689  16.2107  16.3753  16.7298  17.1773
    17.7781  17.8610  18.3053  22.2785  28.3151

     occupation numbers 
     1.0000   1.0000   1.0000   1.0000   1.0000   1.0000   1.0000   1.0000
     1.0000   1.0000   1.0000   1.0000   1.0000   1.0000   1.0000   1.0000
     1.0000   1.0000   1.0000   0.0000   0.0000

          k = 0.1667 0.2887 0.2033 (  2803 PWs)   bands (ev):

   -77.1023 -77.0835 -40.4615 -40.4016 -40.3306 -40.2981 -40.2542 -40.2538
    13.2441  14.5690  15.1941  15.5222  16.0156  16.2407  16.7367  17.3221
    17.8156  17.9751  18.3411  20.2598  31.6803

     occupation numbers 
     1.0000   1.0000   1.0000   1.0000   1.0000   1.0000   1.0000   1.0000
     1.0000   1.0000   1.0000   1.0000   1.0000   1.0000   1.0000   1.0000
     1.0000   1.0000   1.0000   0.0000   0.0000

          k = 0.1667 0.2887-0.3049 (  2810 PWs)   bands (ev):

   -77.0929 -77.0929 -40.4355 -40.4355 -40.3039 -40.3039 -40.2606 -40.2606
    13.9204  13.9204  15.5127  15.5127  15.9621  15.9621  17.0158  17.0158
    18.1100  18.1100  18.8252  18.8252  33.8102

     occupation numbers 
     1.0000   1.0000   1.0000   1.0000   1.0000   1.0000   1.0000   1.0000
     1.0000   1.0000   1.0000   1.0000   1.0000   1.0000   1.0000   1.0000
     1.0000   1.0000   1.0000   1.0000   0.0000

          k = 0.1667 0.3849 0.0000 (  2815 PWs)   bands (ev):

   -77.0986 -77.0704 -40.4405 -40.4260 -40.4041 -40.3140 -40.2755 -40.2633
    13.6724  14.7958  14.8224  15.2982  16.0906  16.5096  16.6335  17.4007
    18.1148  18.2196  18.8755  26.0333  26.3993

     occupation numbers 
     1.0000   1.0000   1.0000   1.0000   1.0000   1.0000   1.0000   1.0000
     1.0000   1.0000   1.0000   1.0000   1.0000   1.0000   1.0000   1.0000
     1.0000   1.0000   1.0000   0.0000   0.0000

          k = 0.1667 0.3849 0.1016 (  2812 PWs)   bands (ev):

   -77.0967 -77.0723 -40.4637 -40.4222 -40.3815 -40.3209 -40.2728 -40.2623
    13.7442  14.7296  14.9179  15.3780  16.1326  16.5061  16.5912  17.4446
    18.0129  18.2014  18.9544  23.5877  28.6552

     occupation numbers 
     1.0000   1.0000   1.0000   1.0000   1.0000   1.0000   1.0000   1.0000
     1.0000   1.0000   1.0000   1.0000   1.0000   1.0000   1.0000   1.0000
     1.0000   1.0000   0.9941   0.0000   0.0000

          k = 0.1667 0.3849 0.2033 (  2816 PWs)   bands (ev):

   -77.0916 -77.0774 -40.4756 -40.4437 -40.3434 -40.3212 -40.2783 -40.2613
    13.9439  14.5261  15.1618  15.6000  16.0448  16.3514  16.7369  17.4341
    17.9242  18.3488  19.1297  21.3912  29.6912

     occupation numbers 
     1.0000   1.0000   1.0000   1.0000   1.0000   1.0000   1.0000   1.0000
     1.0000   1.0000   1.0000   1.0000   1.0000   1.0000   1.0000   1.0000
     1.0000   1.0000   0.0000   0.0000   0.0000

          k = 0.1667 0.3849-0.3049 (  2814 PWs)   bands (ev):

   -77.0845 -77.0845 -40.4668 -40.4668 -40.3225 -40.3225 -40.2724 -40.2724
    14.2292  14.2292  15.4980  15.4980  16.1344  16.1344  17.0193  17.0193
    18.3253  18.3253  19.8078  19.8078  30.8271

     occupation numbers 
     1.0000   1.0000   1.0000   1.0000   1.0000   1.0000   1.0000   1.0000
     1.0000   1.0000   1.0000   1.0000   1.0000   1.0000   1.0000   1.0000
     1.0000   1.0000   0.0000   0.0000   0.0000

          k = 0.1667 0.4811 0.0000 (  2818 PWs)   bands (ev):

   -77.0877 -77.0690 -40.4653 -40.4236 -40.4070 -40.3412 -40.2981 -40.2787
    14.3663  14.5774  14.6131  15.6212  16.0492  16.4033  16.7173  17.8384
    18.2104  18.3299  20.0766  24.8022  28.0650

     occupation numbers 
     1.0000   1.0000   1.0000   1.0000   1.0000   1.0000   1.0000   1.0000
     1.0000   1.0000   1.0000   1.0000   1.0000   1.0000   1.0000   1.0000
     1.0000   1.0000   0.0000   0.0000   0.0000

          k = 0.1667 0.4811 0.1016 (  2818 PWs)   bands (ev):

   -77.0864 -77.0702 -40.4799 -40.4426 -40.3822 -40.3377 -40.2968 -40.2745
    14.1932  14.6660  14.8599  15.4195  16.0996  16.5482  16.8059  17.8261
    18.0206  18.3898  20.1546  24.1910  26.9950

     occupation numbers 
     1.0000   1.0000   1.0000   1.0000   1.0000   1.0000   1.0000   1.0000
     1.0000   1.0000   1.0000   1.0000   1.0000   1.0000   1.0000   1.0000
     1.0000   1.0000   0.0000   0.0000   0.0000

          k = 0.1667 0.4811 0.2033 (  2823 PWs)   bands (ev):

   -77.0830 -77.0736 -40.4952 -40.4704 -40.3585 -40.3254 -40.2958 -40.2682
    14.1443  14.5807  15.0559  15.5909  15.9955  16.6858  17.0458  17.5157
    18.0199  18.4626  20.4548  22.6397  27.1204

     occupation numbers 
     1.0000   1.0000   1.0000   1.0000   1.0000   1.0000   1.0000   1.0000
     1.0000   1.0000   1.0000   1.0000   1.0000   1.0000   1.0000   1.0000
     1.0000   1.0000   0.0000   0.0000   0.0000

          k = 0.1667 0.4811-0.3049 (  2810 PWs)   bands (ev):

   -77.0783 -77.0783 -40.4918 -40.4918 -40.3382 -40.3382 -40.2767 -40.2767
    14.2973  14.2973  15.3901  15.3901  16.4059  16.4059  17.2080  17.2080
    18.3293  18.3293  21.2454  21.2454  27.9919

     occupation numbers 
     1.0000   1.0000   1.0000   1.0000   1.0000   1.0000   1.0000   1.0000
     1.0000   1.0000   1.0000   1.0000   1.0000   1.0000   1.0000   1.0000
     1.0000   1.0000   0.0000   0.0000   0.0000

          k = 0.1667 0.5774 0.0000 (  2822 PWs)   bands (ev):

   -77.0829 -77.0693 -40.4795 -40.4298 -40.3900 -40.3524 -40.3111 -40.2842
    14.5045  14.5097  14.5378  15.8496  16.0811  16.2724  16.8064  18.1372
    18.2068  18.2955  21.3516  22.9618  29.4807

     occupation numbers 
     1.0000   1.0000   1.0000   1.0000   1.0000   1.0000   1.0000   1.0000
     1.0000   1.0000   1.0000   1.0000   1.0000   1.0000   1.0000   1.0000
     1.0000   1.0000   0.0000   0.0000   0.0000

          k = 0.1667 0.5774 0.1016 (  2820 PWs)   bands (ev):

   -77.0819 -77.0702 -40.4909 -40.4471 -40.3828 -40.3349 -40.3114 -40.2797
    14.2112  14.5812  15.0267  15.3990  16.0194  16.6736  16.9011  17.9932
    18.1342  18.3437  21.4409  22.9017  28.2619

     occupation numbers 
     1.0000   1.0000   1.0000   1.0000   1.0000   1.0000   1.0000   1.0000
     1.0000   1.0000   1.0000   1.0000   1.0000   1.0000   1.0000   1.0000
     1.0000   1.0000   0.0000   0.0000   0.0000

          k = 0.1667 0.5774 0.2033 (  2816 PWs)   bands (ev):

   -77.0794 -77.0727 -40.5046 -40.4788 -40.3661 -40.3237 -40.3018 -40.2715
    14.1391  14.5923  15.0949  15.5428  15.9121  16.8865  17.1763  17.5861
    18.1517  18.3819  21.7278  22.6727  27.0197

     occupation numbers 
     1.0000   1.0000   1.0000   1.0000   1.0000   1.0000   1.0000   1.0000
     1.0000   1.0000   1.0000   1.0000   1.0000   1.0000   1.0000   1.0000
     1.0000   1.0000   0.0000   0.0000   0.0000

          k = 0.1667 0.5774-0.3049 (  2810 PWs)   bands (ev):

   -77.0760 -77.0760 -40.5013 -40.5013 -40.3444 -40.3444 -40.2774 -40.2774
    14.2999  14.2999  15.3487  15.3487  16.4438  16.4438  17.4195  17.4195
    18.2655  18.2655  22.2168  22.2168  26.5493

     occupation numbers 
     1.0000   1.0000   1.0000   1.0000   1.0000   1.0000   1.0000   1.0000
     1.0000   1.0000   1.0000   1.0000   1.0000   1.0000   1.0000   1.0000
     1.0000   1.0000   0.0000   0.0000   0.0000

          k = 0.2500 0.4330 0.0000 (  2828 PWs)   bands (ev):

   -77.0877 -77.0690 -40.4436 -40.4229 -40.4072 -40.3442 -40.2985 -40.2979
    14.5126  14.6487  15.0353  15.0626  15.9695  16.4297  16.7259  17.5867
    18.1634  18.3317  20.0925  26.5387  27.3971

     occupation numbers 
     1.0000   1.0000   1.0000   1.0000   1.0000   1.0000   1.0000   1.0000
     1.0000   1.0000   1.0000   1.0000   1.0000   1.0000   1.0000   1.0000
     1.0000   1.0000   0.0000   0.0000   0.0000

          k = 0.2500 0.4330 0.1016 (  2825 PWs)   bands (ev):

   -77.0864 -77.0702 -40.4555 -40.4481 -40.3691 -40.3575 -40.3010 -40.2829
    14.5092  14.6006  15.0723  15.2121  16.1219  16.2796  16.7294  17.6318
    17.9627  18.3961  20.2122  24.9352  27.6745

     occupation numbers 
     1.0000   1.0000   1.0000   1.0000   1.0000   1.0000   1.0000   1.0000
     1.0000   1.0000   1.0000   1.0000   1.0000   1.0000   1.0000   1.0000
     1.0000   1.0000   0.0000   0.0000   0.0000

          k = 0.2500 0.4330 0.2033 (  2814 PWs)   bands (ev):

   -77.0830 -77.0736 -40.4777 -40.4636 -40.3626 -40.3438 -40.2960 -40.2700
    14.4922  14.5440  15.2373  15.5911  15.9506  16.2320  16.7780  17.4206
    17.9857  18.4708  20.5779  22.9152  28.4419

     occupation numbers 
     1.0000   1.0000   1.0000   1.0000   1.0000   1.0000   1.0000   1.0000
     1.0000   1.0000   1.0000   1.0000   1.0000   1.0000   1.0000   1.0000
     1.0000   1.0000   0.0000   0.0000   0.0000

          k = 0.2500 0.4330-0.3049 (  2804 PWs)   bands (ev):

   -77.0783 -77.0783 -40.4788 -40.4788 -40.3518 -40.3518 -40.2762 -40.2762
    14.5033  14.5033  15.5551  15.5551  16.0193  16.0193  16.9945  16.9945
    18.3493  18.3493  21.4081  21.4081  29.4504

     occupation numbers 
     1.0000   1.0000   1.0000   1.0000   1.0000   1.0000   1.0000   1.0000
     1.0000   1.0000   1.0000   1.0000   1.0000   1.0000   1.0000   1.0000
     1.0000   1.0000   0.0000   0.0000   0.0000

          k = 0.2500 0.5292 0.0000 (  2828 PWs)   bands (ev):

   -77.0796 -77.0699 -40.4566 -40.4141 -40.3775 -40.3758 -40.3213 -40.3212
    14.5834  14.8004  14.8891  15.3972  15.9865  16.2150  16.8975  17.8801
    18.1305  18.2562  21.7756  24.3793  26.7369

     occupation numbers 
     1.0000   1.0000   1.0000   1.0000   1.0000   1.0000   1.0000   1.0000
     1.0000   1.0000   1.0000   1.0000   1.0000   1.0000   1.0000   1.0000
     1.0000   1.0000   0.0000   0.0000   0.0000

          k = 0.2500 0.5292 0.1016 (  2821 PWs)   bands (ev):

   -77.0789 -77.0706 -40.4633 -40.4366 -40.3947 -40.3471 -40.3261 -40.2986
    14.5289  14.9186  15.0101  15.2853  16.0112  16.2239  16.9125  17.8815
    17.9445  18.3023  21.9575  24.3824  26.7478

     occupation numbers 
     1.0000   1.0000   1.0000   1.0000   1.0000   1.0000   1.0000   1.0000
     1.0000   1.0000   1.0000   1.0000   1.0000   1.0000   1.0000   1.0000
     1.0000   1.0000   0.0000   0.0000   0.0000

          k = 0.2500 0.5292 0.2033 (  2813 PWs)   bands (ev):

   -77.0772 -77.0723 -40.4788 -40.4643 -40.3935 -40.3543 -40.2975 -40.2777
    14.5423  14.9012  15.1634  15.4737  15.8659  16.2507  16.9723  17.4407
    18.0642  18.3476  22.4424  24.0462  26.6511

     occupation numbers 
     1.0000   1.0000   1.0000   1.0000   1.0000   1.0000   1.0000   1.0000
     1.0000   1.0000   1.0000   1.0000   1.0000   1.0000   1.0000   1.0000
     1.0000   1.0000   0.0000   0.0000   0.0000

          k = 0.2500 0.5292-0.3049 (  2808 PWs)   bands (ev):

   -77.0747 -77.0747 -40.4813 -40.4813 -40.3752 -40.3752 -40.2764 -40.2764
    14.6784  14.6784  15.4534  15.4534  16.0230  16.0230  17.1064  17.1064
    18.2587  18.2587  23.1980  23.1980  27.1941

     occupation numbers 
     1.0000   1.0000   1.0000   1.0000   1.0000   1.0000   1.0000   1.0000
     1.0000   1.0000   1.0000   1.0000   1.0000   1.0000   1.0000   1.0000
     1.0000   1.0000   0.0000   0.0000   0.0000

          k = 0.3333 0.5774 0.0000 (  2844 PWs)   bands (ev):

   -77.0734 -77.0734 -40.4451 -40.3980 -40.3980 -40.3484 -40.3483 -40.3483
    14.5993  15.0024  15.0024  15.2660  16.0486  16.0486  16.9983  18.0337
    18.0337  18.0987  23.5309  24.3896  24.3896

     occupation numbers 
     1.0000   1.0000   1.0000   1.0000   1.0000   1.0000   1.0000   1.0000
     1.0000   1.0000   1.0000   1.0000   1.0000   1.0000   1.0000   1.0000
     1.0000   1.0000   0.0000   0.0000   0.0000

          k = 0.3333 0.5774 0.1016 (  2835 PWs)   bands (ev):

   -77.0734 -77.0734 -40.4386 -40.4260 -40.4260 -40.3549 -40.3201 -40.3201
    14.6934  15.0179  15.0179  15.2829  16.0258  16.0258  16.9731  17.8715
    18.0799  18.0799  23.9232  24.4555  24.4555

     occupation numbers 
     1.0000   1.0000   1.0000   1.0000   1.0000   1.0000   1.0000   1.0000
     1.0000   1.0000   1.0000   1.0000   1.0000   1.0000   1.0000   1.0000
     1.0000   1.0000   0.0000   0.0000   0.0000

          k = 0.3333 0.5774 0.2033 (  2823 PWs)   bands (ev):

   -77.0734 -77.0734 -40.4577 -40.4577 -40.4210 -40.3727 -40.2881 -40.2881
    14.9337  15.0465  15.0465  15.2914  15.9871  15.9871  16.9431  17.4032
    18.1689  18.1689  24.6184  24.6184  24.9333

     occupation numbers 
     1.0000   1.0000   1.0000   1.0000   1.0000   1.0000   1.0000   1.0000
     1.0000   1.0000   1.0000   1.0000   1.0000   1.0000   1.0000   1.0000
     1.0000   1.0000   0.0000   0.0000   0.0000

          k = 0.3333 0.5774-0.3049 (  2808 PWs)   bands (ev):

   -77.0734 -77.0734 -40.4697 -40.4697 -40.3969 -40.3969 -40.2760 -40.2760
    15.0594  15.0594  15.1838  15.1838  15.9712  15.9712  17.0459  17.0459
    18.2119  18.2119  24.7226  24.7226  26.3289

     occupation numbers 
     1.0000   1.0000   1.0000   1.0000   1.0000   1.0000   1.0000   1.0000
     1.0000   1.0000   1.0000   1.0000   1.0000   1.0000   1.0000   1.0000
     1.0000   1.0000   0.0000   0.0000   0.0000

 ------ SPIN DOWN ----------


          k = 0.0000 0.0000 0.0000 (  2803 PWs)   bands (ev):

   -75.0201 -74.9591 -38.4938 -38.1714 -38.1714 -38.1317 -38.1218 -38.1218
     9.9251  14.6782  17.9254  18.0547  18.0547  18.4142  18.4142  18.5472
    18.9200  18.9200  20.1196  20.1196  26.2939

     occupation numbers 
     1.0000   1.0000   1.0000   1.0000   1.0000   1.0000   1.0000   1.0000
     1.0000   1.0000   1.0000   1.0000   1.0000   1.0000   1.0000   1.0000
     1.0000   1.0000   0.0000   0.0000   0.0000

          k = 0.0000 0.0000 0.1016 (  2821 PWs)   bands (ev):

   -75.0161 -74.9632 -38.4699 -38.1681 -38.1681 -38.1563 -38.1251 -38.1251
    10.2014  14.4374  17.8346  17.9902  17.9968  17.9968  18.3354  18.3354
    19.0869  19.0869  20.1005  20.1005  27.5823

     occupation numbers 
     1.0000   1.0000   1.0000   1.0000   1.0000   1.0000   1.0000   1.0000
     1.0000   1.0000   1.0000   1.0000   1.0000   1.0000   1.0000   1.0000
     0.0000   0.0000   0.0000   0.0000   0.0000

          k = 0.0000 0.0000 0.2033 (  2834 PWs)   bands (ev):

   -75.0049 -74.9744 -38.4044 -38.2233 -38.1590 -38.1590 -38.1342 -38.1342
    11.0001  13.5425  17.3868  17.6043  17.9469  17.9469  18.1611  18.1611
    19.4325  19.4325  20.0011  20.0011  30.5164

     occupation numbers 
     1.0000   1.0000   1.0000   1.0000   1.0000   1.0000   1.0000   1.0000
     1.0000   1.0000   1.0000   1.0000   1.0000   1.0000   1.0000   1.0000
     0.0000   0.0000   0.0000   0.0000   0.0000

          k = 0.0000 0.0000-0.3049 (  2834 PWs)   bands (ev):

   -74.9897 -74.9897 -38.3142 -38.3142 -38.1466 -38.1466 -38.1466 -38.1466
    12.2100  12.2100  17.3673  17.3673  18.0053  18.0053  18.0053  18.0053
    19.7709  19.7709  19.7709  19.7709  34.1326

     occupation numbers 
     1.0000   1.0000   1.0000   1.0000   1.0000   1.0000   1.0000   1.0000
     1.0000   1.0000   1.0000   1.0000   1.0000   1.0000   1.0000   1.0000
     0.0000   0.0000   0.0000   0.0000   0.0000

          k = 0.0000 0.0962 0.0000 (  2805 PWs)   bands (ev):

   -75.0164 -74.9573 -38.4857 -38.1902 -38.1773 -38.1412 -38.1347 -38.1250
    10.1730  14.8512  17.7324  17.9740  18.1844  18.1927  18.3424  18.5301
    18.8348  18.8350  20.1547  20.9222  26.3093

     occupation numbers 
     1.0000   1.0000   1.0000   1.0000   1.0000   1.0000   1.0000   1.0000
     1.0000   1.0000   1.0000   1.0000   1.0000   1.0000   1.0000   1.0000
     1.0000   1.0000   0.0000   0.0000   0.0000

          k = 0.0000 0.0962 0.1016 (  2813 PWs)   bands (ev):

   -75.0125 -74.9613 -38.4631 -38.1863 -38.1738 -38.1663 -38.1366 -38.1285
    10.4455  14.6228  17.5644  17.7288  18.0095  18.1119  18.3477  18.4443
    19.0284  19.0364  20.1267  20.5957  27.6651

     occupation numbers 
     1.0000   1.0000   1.0000   1.0000   1.0000   1.0000   1.0000   1.0000
     1.0000   1.0000   1.0000   1.0000   1.0000   1.0000   1.0000   1.0000
     0.0000   0.0000   0.0000   0.0000   0.0000

          k = 0.0000 0.0962 0.2033 (  2823 PWs)   bands (ev):

   -75.0017 -74.9721 -38.4013 -38.2302 -38.1755 -38.1643 -38.1467 -38.1381
    11.2332  13.7430  17.1798  17.6005  17.8332  18.0529  18.1690  18.2679
    19.3977  19.4296  20.0069  20.1934  30.6564

     occupation numbers 
     1.0000   1.0000   1.0000   1.0000   1.0000   1.0000   1.0000   1.0000
     1.0000   1.0000   1.0000   1.0000   1.0000   1.0000   1.0000   1.0000
     0.0000   0.0000   0.0000   0.0000   0.0000

          k = 0.0000 0.0962-0.3049 (  2818 PWs)   bands (ev):

   -74.9869 -74.9869 -38.3161 -38.3161 -38.1611 -38.1611 -38.1512 -38.1512
    12.4266  12.4266  17.2842  17.2842  17.9555  17.9555  18.1110  18.1110
    19.7552  19.7552  19.8319  19.8319  34.2989

     occupation numbers 
     1.0000   1.0000   1.0000   1.0000   1.0000   1.0000   1.0000   1.0000
     1.0000   1.0000   1.0000   1.0000   1.0000   1.0000   1.0000   1.0000
     0.0000   0.0000   0.0000   0.0000   0.0000

          k = 0.0000 0.1925 0.0000 (  2809 PWs)   bands (ev):

   -75.0061 -74.9523 -38.4626 -38.2416 -38.1936 -38.1933 -38.1439 -38.1340
    10.8936  15.2967  17.1591  17.3897  18.0920  18.5246  18.5530  18.6263
    18.6460  18.8561  20.2274  22.3734  26.3738

     occupation numbers 
     1.0000   1.0000   1.0000   1.0000   1.0000   1.0000   1.0000   1.0000
     1.0000   1.0000   1.0000   1.0000   1.0000   1.0000   1.0000   1.0000
     1.0000   1.0000   0.0000   0.0000   0.0000

          k = 0.0000 0.1925 0.1016 (  2808 PWs)   bands (ev):

   -75.0025 -74.9559 -38.4445 -38.2360 -38.2101 -38.1893 -38.1515 -38.1380
    11.1529  15.1093  16.9167  17.4331  17.9736  18.2816  18.3815  18.7258
    18.9717  19.0052  20.1796  21.6015  27.9457

     occupation numbers 
     1.0000   1.0000   1.0000   1.0000   1.0000   1.0000   1.0000   1.0000
     1.0000   1.0000   1.0000   1.0000   1.0000   1.0000   1.0000   1.0000
     0.7647   0.0029   0.0000   0.0000   0.0000

          k = 0.0000 0.1925 0.2033 (  2810 PWs)   bands (ev):

   -74.9927 -74.9658 -38.3950 -38.2602 -38.2174 -38.1785 -38.1705 -38.1488
    11.9011  14.2810  16.8082  17.5302  17.5951  18.0938  18.3186  18.5636
    19.3508  19.4702  20.0171  20.6601  31.0793

     occupation numbers 
     1.0000   1.0000   1.0000   1.0000   1.0000   1.0000   1.0000   1.0000
     1.0000   1.0000   1.0000   1.0000   1.0000   1.0000   1.0000   1.0000
     0.0000   0.0000   0.0000   0.0000   0.0000

          k = 0.0000 0.1925-0.3049 (  2818 PWs)   bands (ev):

   -74.9792 -74.9792 -38.3274 -38.3274 -38.1945 -38.1945 -38.1637 -38.1637
    13.0314  13.0314  17.1014  17.1014  17.8183  17.8183  18.3950  18.3950
    19.7279  19.7279  20.0042  20.0042  34.7618

     occupation numbers 
     1.0000   1.0000   1.0000   1.0000   1.0000   1.0000   1.0000   1.0000
     1.0000   1.0000   1.0000   1.0000   1.0000   1.0000   1.0000   1.0000
     0.0000   0.0000   0.0000   0.0000   0.0000

          k = 0.0000 0.2887 0.0000 (  2807 PWs)   bands (ev):

   -74.9914 -74.9461 -38.4280 -38.3125 -38.2639 -38.2144 -38.1594 -38.1468
    12.0083  15.7345  16.4982  17.0814  17.9148  18.3774  18.3961  18.9846
    19.0944  19.3270  20.2931  24.0673  26.5159

     occupation numbers 
     1.0000   1.0000   1.0000   1.0000   1.0000   1.0000   1.0000   1.0000
     1.0000   1.0000   1.0000   1.0000   1.0000   1.0000   1.0000   0.2671
     0.0000   0.0000   0.0000   0.0000   0.0000

          k = 0.0000 0.2887 0.1016 (  2801 PWs)   bands (ev):

   -74.9884 -74.9491 -38.4210 -38.3010 -38.2767 -38.2099 -38.1655 -38.1514
    12.2370  15.6120  16.3874  17.1458  17.7796  18.3055  18.4131  19.1375
    19.1730  19.2923  20.2271  22.7152  28.4812

     occupation numbers 
     1.0000   1.0000   1.0000   1.0000   1.0000   1.0000   1.0000   1.0000
     1.0000   1.0000   1.0000   1.0000   1.0000   1.0000   1.0000   0.0000
     0.0000   0.0000   0.0000   0.0000   0.0000

          k = 0.0000 0.2887 0.2033 (  2804 PWs)   bands (ev):

   -74.9801 -74.9574 -38.3985 -38.3190 -38.2611 -38.1976 -38.1860 -38.1638
    12.8904  14.9044  16.5236  17.2275  17.5564  18.0788  18.5332  18.9852
    19.4697  19.6005  20.0385  21.2318  31.6968

     occupation numbers 
     1.0000   1.0000   1.0000   1.0000   1.0000   1.0000   1.0000   1.0000
     1.0000   1.0000   1.0000   1.0000   1.0000   1.0000   1.0000   0.2461
     0.0000   0.0000   0.0000   0.0000   0.0000

[...]
    20.2929  20.3115  21.4986  24.0540  28.8769

     occupation numbers 
     1.0000   1.0000   1.0000   1.0000   1.0000   1.0000   1.0000   1.0000
     1.0000   1.0000   1.0000   1.0000   1.0000   1.0000   1.0000   0.0000
     0.0000   0.0000   0.0000   0.0000   0.0000

          k = 0.0833 0.5292 0.1016 (  2819 PWs)   bands (ev):

   -74.9564 -74.9391 -38.4582 -38.4074 -38.3110 -38.2570 -38.2138 -38.1876
    14.9079  15.5093  16.0692  16.6357  17.8970  18.3758  18.4106  20.0531
    20.2154  20.3293  21.3593  23.6964  27.8978

     occupation numbers 
     1.0000   1.0000   1.0000   1.0000   1.0000   1.0000   1.0000   1.0000
     1.0000   1.0000   1.0000   1.0000   1.0000   1.0000   1.0000   0.0000
     0.0000   0.0000   0.0000   0.0000   0.0000

          k = 0.0833 0.5292 0.2033 (  2819 PWs)   bands (ev):

   -74.9528 -74.9428 -38.4716 -38.4399 -38.2741 -38.2357 -38.2213 -38.1922
    14.8759  15.3514  16.3716  16.6781  17.9370  18.7156  18.9079  19.5931
    20.1685  20.4057  21.1433  22.7340  27.4038

     occupation numbers 
     1.0000   1.0000   1.0000   1.0000   1.0000   1.0000   1.0000   1.0000
     1.0000   1.0000   1.0000   1.0000   1.0000   1.0000   1.0000   0.0000
     0.0000   0.0000   0.0000   0.0000   0.0000

          k = 0.0833 0.5292-0.3049 (  2812 PWs)   bands (ev):

   -74.9478 -74.9478 -38.4655 -38.4655 -38.2448 -38.2448 -38.2070 -38.2070
    15.0502  15.0502  16.6222  16.6222  18.4493  18.4493  19.2404  19.2404
    20.2558  20.2558  21.6714  21.6714  27.6669

     occupation numbers 
     1.0000   1.0000   1.0000   1.0000   1.0000   1.0000   1.0000   1.0000
     1.0000   1.0000   1.0000   1.0000   1.0000   1.0000   0.0000   0.0000
     0.0000   0.0000   0.0000   0.0000   0.0000

          k = 0.1667 0.2887 0.0000 (  2802 PWs)   bands (ev):

   -74.9838 -74.9432 -38.4089 -38.3205 -38.3113 -38.2203 -38.1732 -38.1690
    12.6438  16.0458  16.3291  16.7340  17.9515  17.9569  18.5410  18.8477
    19.4902  19.8511  20.2311  24.9716  26.7444

     occupation numbers 
     1.0000   1.0000   1.0000   1.0000   1.0000   1.0000   1.0000   1.0000
     1.0000   1.0000   1.0000   1.0000   1.0000   1.0000   1.0000   1.0000
     0.0000   0.0000   0.0000   0.0000   0.0000

          k = 0.1667 0.2887 0.1016 (  2802 PWs)   bands (ev):

   -74.9811 -74.9460 -38.4095 -38.3188 -38.3023 -38.2266 -38.1774 -38.1688
    12.8535  15.9433  16.2614  16.8010  17.8404  17.9812  18.4387  18.9648
    19.6173  19.7198  20.2436  23.3254  28.9327

     occupation numbers 
     1.0000   1.0000   1.0000   1.0000   1.0000   1.0000   1.0000   1.0000
     1.0000   1.0000   1.0000   1.0000   1.0000   1.0000   1.0000   0.9250
     0.0000   0.0000   0.0000   0.0000   0.0000

          k = 0.1667 0.2887 0.2033 (  2803 PWs)   bands (ev):

   -74.9736 -74.9534 -38.4008 -38.3436 -38.2641 -38.2302 -38.1874 -38.1775
    13.4480  15.2478  16.5240  16.9721  17.5536  17.8200  18.4953  19.0945
    19.6966  19.8427  20.2007  21.6123  32.1793

     occupation numbers 
     1.0000   1.0000   1.0000   1.0000   1.0000   1.0000   1.0000   1.0000
     1.0000   1.0000   1.0000   1.0000   1.0000   1.0000   1.0000   0.0000
     0.0000   0.0000   0.0000   0.0000   0.0000

          k = 0.1667 0.2887-0.3049 (  2810 PWs)   bands (ev):

   -74.9635 -74.9635 -38.3764 -38.3764 -38.2337 -38.2337 -38.1918 -38.1918
    14.3151  14.3151  16.9042  16.9042  17.5071  17.5071  18.8028  18.8028
    20.0305  20.0305  20.4273  20.4273  34.2453

     occupation numbers 
     1.0000   1.0000   1.0000   1.0000   1.0000   1.0000   1.0000   1.0000
     1.0000   1.0000   1.0000   1.0000   1.0000   1.0000   1.0000   1.0000
     0.0000   0.0000   0.0000   0.0000   0.0000

          k = 0.1667 0.3849 0.0000 (  2815 PWs)   bands (ev):

   -74.9696 -74.9392 -38.3752 -38.3707 -38.3512 -38.2525 -38.1975 -38.1907
    13.9123  16.0369  16.1156  16.5530  17.7377  18.0906  18.2905  19.2090
    20.0055  20.2172  20.6032  26.7550  27.0335

     occupation numbers 
     1.0000   1.0000   1.0000   1.0000   1.0000   1.0000   1.0000   1.0000
     1.0000   1.0000   1.0000   1.0000   1.0000   1.0000   1.0000   0.0000
     0.0000   0.0000   0.0000   0.0000   0.0000

          k = 0.1667 0.3849 0.1016 (  2812 PWs)   bands (ev):

   -74.9676 -74.9412 -38.4060 -38.3693 -38.3173 -38.2574 -38.2036 -38.1840
    14.0557  15.8984  16.2173  16.6560  17.6959  18.0730  18.2456  19.2638
    19.9567  20.1079  20.7023  24.4331  29.2819

     occupation numbers 
     1.0000   1.0000   1.0000   1.0000   1.0000   1.0000   1.0000   1.0000
     1.0000   1.0000   1.0000   1.0000   1.0000   1.0000   1.0000   0.0000
     0.0000   0.0000   0.0000   0.0000   0.0000

          k = 0.1667 0.3849 0.2033 (  2816 PWs)   bands (ev):

   -74.9620 -74.9468 -38.4209 -38.3906 -38.2753 -38.2551 -38.2116 -38.1841
    14.4487  15.5198  16.4975  16.8683  17.5418  17.8027  18.4394  19.2661
    19.8024  20.2912  20.7838  22.4480  30.3053

     occupation numbers 
     1.0000   1.0000   1.0000   1.0000   1.0000   1.0000   1.0000   1.0000
     1.0000   1.0000   1.0000   1.0000   1.0000   1.0000   1.0000   0.0000
     0.0000   0.0000   0.0000   0.0000   0.0000

          k = 0.1667 0.3849-0.3049 (  2814 PWs)   bands (ev):

   -74.9544 -74.9544 -38.4133 -38.4133 -38.2552 -38.2552 -38.2002 -38.2002
    14.9869  14.9869  16.8407  16.8407  17.5236  17.5236  18.8132  18.8132
    20.2767  20.2767  21.1290  21.1290  31.3995

     occupation numbers 
     1.0000   1.0000   1.0000   1.0000   1.0000   1.0000   1.0000   1.0000
     1.0000   1.0000   1.0000   1.0000   1.0000   1.0000   1.0000   1.0000
     0.0000   0.0000   0.0000   0.0000   0.0000

          k = 0.1667 0.4811 0.0000 (  2818 PWs)   bands (ev):

   -74.9578 -74.9377 -38.4181 -38.3722 -38.3340 -38.2821 -38.2153 -38.2142
    15.0174  15.8693  15.8833  16.6206  17.6749  18.0083  18.3310  19.6920
    20.2063  20.2611  21.5417  25.5570  28.6762

     occupation numbers 
     1.0000   1.0000   1.0000   1.0000   1.0000   1.0000   1.0000   1.0000
     1.0000   1.0000   1.0000   1.0000   1.0000   1.0000   1.0000   0.0000
     0.0000   0.0000   0.0000   0.0000   0.0000

          k = 0.1667 0.4811 0.1016 (  2818 PWs)   bands (ev):

   -74.9565 -74.9391 -38.4308 -38.3906 -38.3138 -38.2745 -38.2262 -38.1999
    15.0232  15.8240  16.0553  16.6453  17.6843  17.9803  18.4195  19.6904
    19.9721  20.3354  21.5893  24.8955  27.7748

     occupation numbers 
     1.0000   1.0000   1.0000   1.0000   1.0000   1.0000   1.0000   1.0000
     1.0000   1.0000   1.0000   1.0000   1.0000   1.0000   1.0000   0.0000
     0.0000   0.0000   0.0000   0.0000   0.0000

          k = 0.1667 0.4811 0.2033 (  2823 PWs)   bands (ev):

   -74.9528 -74.9427 -38.4456 -38.4197 -38.2944 -38.2578 -38.2266 -38.1914
    15.1109  15.6233  16.3856  16.9015  17.5068  17.9638  18.6605  19.3807
    19.9152  20.4308  21.7356  23.4307  27.9389

     occupation numbers 
     1.0000   1.0000   1.0000   1.0000   1.0000   1.0000   1.0000   1.0000
     1.0000   1.0000   1.0000   1.0000   1.0000   1.0000   1.0000   0.0000
     0.0000   0.0000   0.0000   0.0000   0.0000

          k = 0.1667 0.4811-0.3049 (  2810 PWs)   bands (ev):

   -74.9478 -74.9478 -38.4419 -38.4419 -38.2739 -38.2739 -38.2018 -38.2018
    15.3295  15.3295  16.7902  16.7902  17.7004  17.7004  18.9459  18.9459
    20.2669  20.2669  22.2579  22.2579  28.7419

     occupation numbers 
     1.0000   1.0000   1.0000   1.0000   1.0000   1.0000   1.0000   1.0000
     1.0000   1.0000   1.0000   1.0000   1.0000   1.0000   0.9997   0.9997
     0.0000   0.0000   0.0000   0.0000   0.0000

          k = 0.1667 0.5774 0.0000 (  2822 PWs)   bands (ev):

   -74.9526 -74.9380 -38.4336 -38.3790 -38.3154 -38.2943 -38.2294 -38.2201
    15.4751  15.7410  15.8157  16.6972  17.7381  17.8179  18.4382  20.0338
    20.2020  20.2280  22.4648  23.9879  29.9140

     occupation numbers 
     1.0000   1.0000   1.0000   1.0000   1.0000   1.0000   1.0000   1.0000
     1.0000   1.0000   1.0000   1.0000   1.0000   1.0000   1.0000   0.0000
     0.0000   0.0000   0.0000   0.0000   0.0000

          k = 0.1667 0.5774 0.1016 (  2820 PWs)   bands (ev):

   -74.9517 -74.9390 -38.4438 -38.3961 -38.3163 -38.2687 -38.2393 -38.2073
    15.3048  15.7852  16.2068  16.4991  17.6433  18.0138  18.5354  19.9465
    20.0334  20.2871  22.4884  23.8811  28.8825

     occupation numbers 
     1.0000   1.0000   1.0000   1.0000   1.0000   1.0000   1.0000   1.0000
     1.0000   1.0000   1.0000   1.0000   1.0000   1.0000   1.0000   0.0000
     0.0000   0.0000   0.0000   0.0000   0.0000

          k = 0.1667 0.5774 0.2033 (  2816 PWs)   bands (ev):

   -74.9490 -74.9417 -38.4566 -38.4288 -38.3033 -38.2578 -38.2294 -38.1953
    15.2538  15.6853  16.4566  16.8129  17.4183  18.1432  18.8118  19.4495
    20.0638  20.3353  22.6070  23.5330  27.8253

     occupation numbers 
     1.0000   1.0000   1.0000   1.0000   1.0000   1.0000   1.0000   1.0000
     1.0000   1.0000   1.0000   1.0000   1.0000   1.0000   1.0000   0.0000
     0.0000   0.0000   0.0000   0.0000   0.0000

          k = 0.1667 0.5774-0.3049 (  2810 PWs)   bands (ev):

   -74.9453 -74.9453 -38.4526 -38.4526 -38.2812 -38.2812 -38.2017 -38.2017
    15.4093  15.4093  16.7785  16.7785  17.7577  17.7577  19.1129  19.1129
    20.2006  20.2006  23.0033  23.0033  27.4604

     occupation numbers 
     1.0000   1.0000   1.0000   1.0000   1.0000   1.0000   1.0000   1.0000
     1.0000   1.0000   1.0000   1.0000   1.0000   1.0000   0.0000   0.0000
     0.0000   0.0000   0.0000   0.0000   0.0000

          k = 0.2500 0.4330 0.0000 (  2828 PWs)   bands (ev):

   -74.9579 -74.9377 -38.3945 -38.3714 -38.3342 -38.2855 -38.2357 -38.2150
    15.0361  15.9493  16.2378  16.2819  17.5744  18.0391  18.3374  19.4268
    20.1524  20.2599  21.5882  27.1120  28.0213

     occupation numbers 
     1.0000   1.0000   1.0000   1.0000   1.0000   1.0000   1.0000   1.0000
     1.0000   1.0000   1.0000   1.0000   1.0000   1.0000   1.0000   0.0000
     0.0000   0.0000   0.0000   0.0000   0.0000

          k = 0.2500 0.4330 0.1016 (  2825 PWs)   bands (ev):

   -74.9565 -74.9390 -38.4005 -38.3984 -38.2998 -38.2970 -38.2378 -38.2026
    15.1094  15.8660  16.3053  16.4659  17.6147  17.8524  18.3539  19.4802
    19.9095  20.3420  21.6877  25.6080  28.3043

     occupation numbers 
     1.0000   1.0000   1.0000   1.0000   1.0000   1.0000   1.0000   1.0000
     1.0000   1.0000   1.0000   1.0000   1.0000   1.0000   1.0000   0.0000
     0.0000   0.0000   0.0000   0.0000   0.0000

          k = 0.2500 0.4330 0.2033 (  2814 PWs)   bands (ev):

   -74.9528 -74.9427 -38.4247 -38.4127 -38.3022 -38.2783 -38.2264 -38.1914
    15.2970  15.7229  16.5255  16.8205  17.4576  17.5817  18.4558  19.2759
    19.8716  20.4405  21.9193  23.7476  29.0721

     occupation numbers 
     1.0000   1.0000   1.0000   1.0000   1.0000   1.0000   1.0000   1.0000
     1.0000   1.0000   1.0000   1.0000   1.0000   1.0000   1.0000   0.0000
     0.0000   0.0000   0.0000   0.0000   0.0000

          k = 0.2500 0.4330-0.3049 (  2804 PWs)   bands (ev):

   -74.9478 -74.9478 -38.4271 -38.4271 -38.2904 -38.2904 -38.2003 -38.2003
    15.5256  15.5256  16.8664  16.8664  17.3533  17.3533  18.7681  18.7681
    20.2915  20.2915  22.4782  22.4782  30.0687

     occupation numbers 
     1.0000   1.0000   1.0000   1.0000   1.0000   1.0000   1.0000   1.0000
     1.0000   1.0000   1.0000   1.0000   1.0000   1.0000   1.0000   1.0000
     0.0000   0.0000   0.0000   0.0000   0.0000

          k = 0.2500 0.5292 0.0000 (  2828 PWs)   bands (ev):

   -74.9491 -74.9387 -38.4085 -38.3619 -38.3201 -38.3018 -38.2604 -38.2405
    15.7497  15.9280  16.0803  16.3753  17.5734  17.7785  18.5414  19.7528
    20.1145  20.1793  22.9026  25.1934  27.3263

     occupation numbers 
     1.0000   1.0000   1.0000   1.0000   1.0000   1.0000   1.0000   1.0000
     1.0000   1.0000   1.0000   1.0000   1.0000   1.0000   1.0000   0.0000
     0.0000   0.0000   0.0000   0.0000   0.0000

          k = 0.2500 0.5292 0.1016 (  2821 PWs)   bands (ev):

   -74.9484 -74.9394 -38.4137 -38.3831 -38.3364 -38.2796 -38.2592 -38.2209
    15.6917  16.0607  16.1623  16.4362  17.5454  17.6773  18.5612  19.7804
    19.8689  20.2377  23.0601  25.1548  27.3690

     occupation numbers 
     1.0000   1.0000   1.0000   1.0000   1.0000   1.0000   1.0000   1.0000
     1.0000   1.0000   1.0000   1.0000   1.0000   1.0000   1.0000   0.0000
     0.0000   0.0000   0.0000   0.0000   0.0000

          k = 0.2500 0.5292 0.2033 (  2813 PWs)   bands (ev):

   -74.9465 -74.9413 -38.4276 -38.4120 -38.3365 -38.2942 -38.2226 -38.1996
    15.7163  16.0109  16.4418  16.7796  17.2792  17.5413  18.6464  19.3024
    19.9699  20.2951  23.4356  24.7582  27.4180

     occupation numbers 
     1.0000   1.0000   1.0000   1.0000   1.0000   1.0000   1.0000   1.0000
     1.0000   1.0000   1.0000   1.0000   1.0000   1.0000   1.0000   0.0000
     0.0000   0.0000   0.0000   0.0000   0.0000

          k = 0.2500 0.5292-0.3049 (  2808 PWs)   bands (ev):

   -74.9439 -74.9439 -38.4297 -38.4297 -38.3174 -38.3174 -38.1990 -38.1990
    15.8462  15.8462  16.8363  16.8363  17.2564  17.2564  18.8640  18.8640
    20.1912  20.1913  24.0208  24.0208  27.9611

     occupation numbers 
     1.0000   1.0000   1.0000   1.0000   1.0000   1.0000   1.0000   1.0000
     1.0000   1.0000   1.0000   1.0000   1.0000   1.0000   1.0000   1.0000
     0.0000   0.0000   0.0000   0.0000   0.0000

          k = 0.3333 0.5774 0.0000 (  2844 PWs)   bands (ev):

   -74.9425 -74.9425 -38.3957 -38.3444 -38.3444 -38.2900 -38.2699 -38.2699
    15.9709  16.0999  16.0999  16.2836  17.6047  17.6047  18.6525  19.9298
    19.9298  20.0781  24.3718  25.1991  25.1991

     occupation numbers 
     1.0000   1.0000   1.0000   1.0000   1.0000   1.0000   1.0000   1.0000
     1.0000   1.0000   1.0000   1.0000   1.0000   1.0000   1.0000   0.0000
     0.0000   0.0000   0.0000   0.0000   0.0000

          k = 0.3333 0.5774 0.1016 (  2835 PWs)   bands (ev):

   -74.9425 -74.9425 -38.3887 -38.3703 -38.3703 -38.2971 -38.2438 -38.2438
    16.0444  16.1693  16.1693  16.3139  17.5174  17.5174  18.6351  19.8086
    19.9860  19.9860  24.7798  25.2406  25.2406

     occupation numbers 
     1.0000   1.0000   1.0000   1.0000   1.0000   1.0000   1.0000   1.0000
     1.0000   1.0000   1.0000   1.0000   1.0000   1.0000   1.0000   0.0000
     0.0000   0.0000   0.0000   0.0000   0.0000

          k = 0.3333 0.5774 0.2033 (  2823 PWs)   bands (ev):

   -74.9425 -74.9425 -38.4030 -38.4030 -38.3694 -38.3165 -38.2108 -38.2108
    16.2159  16.3345  16.3345  16.3690  17.3247  17.3247  18.6424  19.2660
    20.0903  20.0903  25.3432  25.3432  25.7792

     occupation numbers 
     1.0000   1.0000   1.0000   1.0000   1.0000   1.0000   1.0000   1.0000
     1.0000   1.0000   1.0000   1.0000   1.0000   1.0000   1.0000   0.0000
     0.0000   0.0000   0.0000   0.0000   0.0000

          k = 0.3333 0.5774-0.3049 (  2808 PWs)   bands (ev):

   -74.9425 -74.9425 -38.4157 -38.4157 -38.3430 -38.3430 -38.1979 -38.1979
    16.3550  16.3550  16.4417  16.4417  17.2074  17.2074  18.8245  18.8245
    20.1390  20.1390  25.4079  25.4079  27.1030

     occupation numbers 
     1.0000   1.0000   1.0000   1.0000   1.0000   1.0000   1.0000   1.0000
     1.0000   1.0000   1.0000   1.0000   1.0000   1.0000   1.0000   1.0000
     0.0000   0.0000   0.0000   0.0000   0.0000

     the Fermi energy is    18.9786 ev

!    total energy              =    -753.45479670 Ry
     total all-electron energy =     -5573.811488 Ry
     estimated scf accuracy    <       0.00000028 Ry
     smearing contrib. (-TS)   =      -0.00002461 Ry
     internal energy E=F+TS    =    -753.45477208 Ry

     The total energy is F=E-TS. E is the sum of the following terms:
     one-electron contribution =    -279.92522553 Ry
     hartree contribution      =     163.96745991 Ry
     xc contribution           =     -61.42196767 Ry
     ewald contribution        =    -400.89869339 Ry
     one-center paw contrib.   =    -175.17634540 Ry
      -> PAW hartree energy AE =     222.08219571 Ry
      -> PAW hartree energy PS =    -221.02669916 Ry
      -> PAW xc energy AE      =    -117.67632604 Ry
      -> PAW xc energy PS      =      29.03265680 Ry
      -> total E_H with PAW    =     165.02295645 Ry
      -> total E_XC with PAW   =    -150.06563691 Ry

     total magnetization       =     3.33 Bohr mag/cell
     absolute magnetization    =     3.64 Bohr mag/cell

     convergence has been achieved in   6 iterations

     Writing all to output data dir ./out/Co.save/
 
     init_run     :      0.39s CPU      0.51s WALL (       1 calls)
     electrons    :     10.82s CPU     11.44s WALL (       1 calls)

     Called by init_run:
     wfcinit      :      0.26s CPU      0.35s WALL (       1 calls)
     potinit      :      0.09s CPU      0.11s WALL (       1 calls)
     hinit0       :      0.03s CPU      0.03s WALL (       1 calls)

     Called by electrons:
     c_bands      :      9.17s CPU      9.62s WALL (       6 calls)
     sum_band     :      1.12s CPU      1.17s WALL (       6 calls)
     v_of_rho     :      0.02s CPU      0.02s WALL (       7 calls)
     v_h          :      0.00s CPU      0.00s WALL (       7 calls)
     v_xc         :      0.02s CPU      0.02s WALL (       7 calls)
     newd         :      0.03s CPU      0.03s WALL (       7 calls)
     PAW_pot      :      0.56s CPU      0.67s WALL (       7 calls)
     mix_rho      :      0.00s CPU      0.00s WALL (       6 calls)

     Called by c_bands:
     init_us_2    :      0.06s CPU      0.07s WALL (    1824 calls)
     init_us_2:cp :      0.06s CPU      0.07s WALL (    1824 calls)
     cegterg      :      8.78s CPU      9.17s WALL (     912 calls)

     Called by sum_band:
     sum_band:wei :      0.01s CPU      0.01s WALL (       6 calls)
     sum_band:loo :      1.06s CPU      1.11s WALL (       6 calls)
     sum_band:buf :      0.00s CPU      0.01s WALL (     912 calls)
     sum_band:ini :      0.04s CPU      0.03s WALL (     912 calls)
     sum_band:cal :      0.10s CPU      0.09s WALL (     912 calls)
     sum_band:bec :      0.00s CPU      0.01s WALL (     912 calls)
     addusdens    :      0.04s CPU      0.04s WALL (       6 calls)
                                        0.00s GPU  (       6 calls)
     addusd:skk   :      0.00s CPU      0.00s WALL (       6 calls)
                                        0.00s GPU  (       6 calls)

     Called by *egterg:
     cdiaghg      :      2.05s CPU      2.10s WALL (    4400 calls)
     cegterg:over :      0.29s CPU      0.27s WALL (    3640 calls)
     cegterg:upda :      0.03s CPU      0.07s WALL (    3640 calls)
     cegterg:last :      0.09s CPU      0.12s WALL (    2553 calls)
     h_psi        :      5.97s CPU      6.26s WALL (    4552 calls)
     s_psi        :      0.11s CPU      0.10s WALL (    4552 calls)
     g_psi        :      0.01s CPU      0.02s WALL (    3640 calls)

     Called by h_psi:
     h_psi:calbec :      0.33s CPU      0.31s WALL (    4552 calls)
     vloc_psi     :      5.57s CPU      5.82s WALL (    4552 calls)
     add_vuspsi   :      0.06s CPU      0.10s WALL (    4552 calls)

     General routines
     calbec       :      0.42s CPU      0.39s WALL (    5464 calls)
     fft          :      0.01s CPU      0.01s WALL (     169 calls)
     ffts         :      0.00s CPU      0.00s WALL (      26 calls)
     fftw         :      6.12s CPU      6.32s WALL (  140776 calls)
     interpolate  :      0.00s CPU      0.00s WALL (      14 calls)
 
     Parallel routines

     PAW routines
     PAW_pot      :      0.56s CPU      0.67s WALL (       7 calls)
     PAW_symme    :      0.01s CPU      0.01s WALL (      12 calls)
 
     PWSCF        :     11.54s CPU     12.72s WALL

 
   This run was terminated on:   7:46:14  22Mar2024            

=------------------------------------------------------------------------------=
   JOB DONE.
=------------------------------------------------------------------------------=
