
     Program PWSCF v.7.2 starts on 22Mar2024 at  9:29:19 

     This program is part of the open-source Quantum ESPRESSO suite
     for quantum simulation of materials; please cite
         "P. Giannozzi et al., J. Phys.:Condens. Matter 21 395502 (2009);
         "P. Giannozzi et al., J. Phys.:Condens. Matter 29 465901 (2017);
         "P. Giannozzi et al., J. Chem. Phys. 152 154105 (2020);
          URL http://www.quantum-espresso.org", 
     in publications or presentations arising from this work. More details at
     http://www.quantum-espresso.org/quote

     Parallel version (MPI), running on    20 processors

     MPI processes distributed on     1 nodes
     352182 MiB available memory on the printing compute node when the environment starts
 
     Waiting for input...
     Reading input from standard input

     Current dimensions of program PWSCF are:
     Max number of different atomic species (ntypx) = 10
     Max number of k-points (npk) = 120000
     Max angular momentum in pseudopotentials (lmaxx) =  4
     file Co.pbe-spn-kjpaw_psl.0.3.1.UPF: wavefunction(s)  3P 3D renormalized
 
     R & G space division:  proc/nbgrp/npool/nimage =      20
     Subspace diagonalization in iterative solution of the eigenvalue problem:
     a serial algorithm will be used

 
     Parallelization info
     --------------------
     sticks:   dense  smooth     PW     G-vecs:    dense   smooth      PW
     Min          33      33      9                 1166     1133     179
     Max          37      34     10                 1182     1138     186
     Sum         685     673    199                23427    22695    3705
 
     Using Slab Decomposition
 


     bravais-lattice index     =            4
     lattice parameter (alat)  =       4.7054  a.u.
     unit-cell volume          =     145.6639 (a.u.)^3
     number of atoms/cell      =            2
     number of atomic types    =            1
     number of electrons       =        34.00
     number of Kohn-Sham states=           21
     kinetic-energy cutoff     =     110.0000  Ry
     charge density cutoff     =     450.0000  Ry
     scf convergence threshold =      1.0E-06
     mixing beta               =       0.7000
     number of iterations used =            8  plain     mixing
     Exchange-correlation= SLA  PW   PBX  PBC
                           (   1   4   3   4   0   0   0)

     celldm(1)=   4.705418  celldm(2)=   0.000000  celldm(3)=   1.614458
     celldm(4)=   0.000000  celldm(5)=   0.000000  celldm(6)=   0.000000

     crystal axes: (cart. coord. in units of alat)
               a(1) = (   1.000000   0.000000   0.000000 )  
               a(2) = (  -0.500000   0.866025   0.000000 )  
               a(3) = (   0.000000   0.000000   1.614458 )  

     reciprocal axes: (cart. coord. in units 2 pi/alat)
               b(1) = (  1.000000  0.577350  0.000000 )  
               b(2) = (  0.000000  1.154701  0.000000 )  
               b(3) = (  0.000000  0.000000  0.619403 )  


     PseudoPot. # 1 for Co read from file:
     /truba/home/amuhaymin/ZnS/pseudo/QE/Co.pbe-spn-kjpaw_psl.0.3.1.UPF
     MD5 check sum: b0a1ad65bf214e88c1f3d33b20c7d919
     Pseudo is Projector augmented-wave + core cor, Zval = 17.0
     Generated using &quot;atomic&quot; code by A. Dal Corso  v.6.2.2
     Shape of augmentation charge: PSQ
     Using radial grid of 1193 points,  6 beta functions with: 
                l(1) =   0
                l(2) =   0
                l(3) =   1
                l(4) =   1
                l(5) =   2
                l(6) =   2
     Q(r) pseudized with 0 coefficients 


     atomic species   valence    mass     pseudopotential
        Co            17.00    58.93300     Co( 1.00)

     Starting magnetic structure 
     atomic species   magnetization
        Co           0.294

     24 Sym. Ops., with inversion, found (12 have fractional translation)


                                    s                        frac. trans.

      isym =  1     identity                                     

 cryst.   s( 1) = (     1          0          0      )
                  (     0          1          0      )
                  (     0          0          1      )

 cart.    s( 1) = (  1.0000000  0.0000000  0.0000000 )
                  (  0.0000000  1.0000000  0.0000000 )
                  (  0.0000000  0.0000000  1.0000000 )


      isym =  2     180 deg rotation - cart. axis [0,0,1]        

 cryst.   s( 2) = (    -1          0          0      )    f =(  0.0000000 )
                  (     0         -1          0      )       (  0.0000000 )
                  (     0          0          1      )       ( -0.5000000 )

 cart.    s( 2) = ( -1.0000000  0.0000000  0.0000000 )    f =(  0.0000000 )
                  (  0.0000000 -1.0000000  0.0000000 )       (  0.0000000 )
                  (  0.0000000  0.0000000  1.0000000 )       ( -0.8072289 )


      isym =  3     180 deg rotation - cart. axis [0,1,0]        

 cryst.   s( 3) = (    -1          0          0      )    f =(  0.0000000 )
                  (     1          1          0      )       (  0.0000000 )
                  (     0          0         -1      )       (  0.5000000 )

 cart.    s( 3) = ( -1.0000000  0.0000000  0.0000000 )    f =(  0.0000000 )
                  (  0.0000000  1.0000000  0.0000000 )       (  0.0000000 )
                  (  0.0000000  0.0000000 -1.0000000 )       (  0.8072289 )


      isym =  4     180 deg rotation - cart. axis [1,0,0]        

 cryst.   s( 4) = (     1          0          0      )
                  (    -1         -1          0      )
                  (     0          0         -1      )

 cart.    s( 4) = (  1.0000000  0.0000000  0.0000000 )
                  (  0.0000000 -1.0000000  0.0000000 )
                  (  0.0000000  0.0000000 -1.0000000 )


      isym =  5      60 deg rotation - cryst. axis [0,0,1]       

 cryst.   s( 5) = (     1          1          0      )    f =(  0.0000000 )
                  (    -1          0          0      )       ( -0.0000000 )
                  (     0          0          1      )       ( -0.5000000 )

 cart.    s( 5) = (  0.5000000 -0.8660254  0.0000000 )    f =(  0.0000000 )
                  (  0.8660254  0.5000000  0.0000000 )       ( -0.0000000 )
                  (  0.0000000  0.0000000  1.0000000 )       ( -0.8072289 )


      isym =  6      60 deg rotation - cryst. axis [0,0,-1]      

 cryst.   s( 6) = (     0         -1          0      )    f =(  0.0000000 )
                  (     1          1          0      )       ( -0.0000000 )
                  (     0          0          1      )       ( -0.5000000 )

 cart.    s( 6) = (  0.5000000  0.8660254  0.0000000 )    f =(  0.0000000 )
                  ( -0.8660254  0.5000000  0.0000000 )       ( -0.0000000 )
                  (  0.0000000  0.0000000  1.0000000 )       ( -0.8072289 )


      isym =  7     120 deg rotation - cryst. axis [0,0,1]       

 cryst.   s( 7) = (     0          1          0      )
                  (    -1         -1          0      )
                  (     0          0          1      )

 cart.    s( 7) = ( -0.5000000 -0.8660254  0.0000000 )
                  (  0.8660254 -0.5000000  0.0000000 )
                  (  0.0000000  0.0000000  1.0000000 )


      isym =  8     120 deg rotation - cryst. axis [0,0,-1]      

 cryst.   s( 8) = (    -1         -1          0      )
                  (     1          0          0      )
                  (     0          0          1      )

 cart.    s( 8) = ( -0.5000000  0.8660254  0.0000000 )
                  ( -0.8660254 -0.5000000  0.0000000 )
                  (  0.0000000  0.0000000  1.0000000 )


      isym =  9     180 deg rotation - cryst. axis [1,-1,0]      

 cryst.   s( 9) = (     0         -1          0      )    f =(  0.0000000 )
                  (    -1          0          0      )       (  0.0000000 )
                  (     0          0         -1      )       (  0.5000000 )

 cart.    s( 9) = (  0.5000000 -0.8660254  0.0000000 )    f =(  0.0000000 )
                  ( -0.8660254 -0.5000000  0.0000000 )       (  0.0000000 )
                  (  0.0000000  0.0000000 -1.0000000 )       (  0.8072289 )


      isym = 10     180 deg rotation - cryst. axis [2,1,0]       

 cryst.   s(10) = (     1          1          0      )    f =(  0.0000000 )
                  (     0         -1          0      )       ( -0.0000000 )
                  (     0          0         -1      )       (  0.5000000 )

 cart.    s(10) = (  0.5000000  0.8660254  0.0000000 )    f =(  0.0000000 )
                  (  0.8660254 -0.5000000  0.0000000 )       ( -0.0000000 )
                  (  0.0000000  0.0000000 -1.0000000 )       (  0.8072289 )


      isym = 11     180 deg rotation - cryst. axis [0,1,0]       

 cryst.   s(11) = (    -1         -1          0      )
                  (     0          1          0      )
                  (     0          0         -1      )

 cart.    s(11) = ( -0.5000000 -0.8660254  0.0000000 )
                  ( -0.8660254  0.5000000  0.0000000 )
                  (  0.0000000  0.0000000 -1.0000000 )


      isym = 12     180 deg rotation - cryst. axis [1,1,0]       

 cryst.   s(12) = (     0          1          0      )
                  (     1          0          0      )
                  (     0          0         -1      )

 cart.    s(12) = ( -0.5000000  0.8660254  0.0000000 )
                  (  0.8660254  0.5000000  0.0000000 )
                  (  0.0000000  0.0000000 -1.0000000 )


      isym = 13     inversion                                    

 cryst.   s(13) = (    -1          0          0      )
                  (     0         -1          0      )
                  (     0          0         -1      )

 cart.    s(13) = ( -1.0000000  0.0000000  0.0000000 )
                  (  0.0000000 -1.0000000  0.0000000 )
                  (  0.0000000  0.0000000 -1.0000000 )


      isym = 14     inv. 180 deg rotation - cart. axis [0,0,1]   

 cryst.   s(14) = (     1          0          0      )    f =(  0.0000000 )
                  (     0          1          0      )       (  0.0000000 )
                  (     0          0         -1      )       (  0.5000000 )

 cart.    s(14) = (  1.0000000  0.0000000  0.0000000 )    f =(  0.0000000 )
                  (  0.0000000  1.0000000  0.0000000 )       (  0.0000000 )
                  (  0.0000000  0.0000000 -1.0000000 )       (  0.8072289 )


      isym = 15     inv. 180 deg rotation - cart. axis [0,1,0]   

 cryst.   s(15) = (     1          0          0      )    f =(  0.0000000 )
                  (    -1         -1          0      )       (  0.0000000 )
                  (     0          0          1      )       ( -0.5000000 )

 cart.    s(15) = (  1.0000000  0.0000000  0.0000000 )    f =(  0.0000000 )
                  (  0.0000000 -1.0000000  0.0000000 )       (  0.0000000 )
                  (  0.0000000  0.0000000  1.0000000 )       ( -0.8072289 )


      isym = 16     inv. 180 deg rotation - cart. axis [1,0,0]   

 cryst.   s(16) = (    -1          0          0      )
                  (     1          1          0      )
                  (     0          0          1      )

 cart.    s(16) = ( -1.0000000  0.0000000  0.0000000 )
                  (  0.0000000  1.0000000  0.0000000 )
                  (  0.0000000  0.0000000  1.0000000 )


      isym = 17     inv.  60 deg rotation - cryst. axis [0,0,1]  

 cryst.   s(17) = (    -1         -1          0      )    f =(  0.0000000 )
                  (     1          0          0      )       (  0.0000000 )
                  (     0          0         -1      )       (  0.5000000 )

 cart.    s(17) = ( -0.5000000  0.8660254  0.0000000 )    f =(  0.0000000 )
                  ( -0.8660254 -0.5000000  0.0000000 )       (  0.0000000 )
                  (  0.0000000  0.0000000 -1.0000000 )       (  0.8072289 )


      isym = 18     inv.  60 deg rotation - cryst. axis [0,0,-1] 

 cryst.   s(18) = (     0          1          0      )    f =(  0.0000000 )
                  (    -1         -1          0      )       ( -0.0000000 )
                  (     0          0         -1      )       (  0.5000000 )

 cart.    s(18) = ( -0.5000000 -0.8660254  0.0000000 )    f =(  0.0000000 )
                  (  0.8660254 -0.5000000  0.0000000 )       ( -0.0000000 )
                  (  0.0000000  0.0000000 -1.0000000 )       (  0.8072289 )


      isym = 19     inv. 120 deg rotation - cryst. axis [0,0,1]  

 cryst.   s(19) = (     0         -1          0      )
                  (     1          1          0      )
                  (     0          0         -1      )

 cart.    s(19) = (  0.5000000  0.8660254  0.0000000 )
                  ( -0.8660254  0.5000000  0.0000000 )
                  (  0.0000000  0.0000000 -1.0000000 )


      isym = 20     inv. 120 deg rotation - cryst. axis [0,0,-1] 

 cryst.   s(20) = (     1          1          0      )
                  (    -1          0          0      )
                  (     0          0         -1      )

 cart.    s(20) = (  0.5000000 -0.8660254  0.0000000 )
                  (  0.8660254  0.5000000  0.0000000 )
                  (  0.0000000  0.0000000 -1.0000000 )


      isym = 21     inv. 180 deg rotation - cryst. axis [1,-1,0] 

 cryst.   s(21) = (     0          1          0      )    f =(  0.0000000 )
                  (     1          0          0      )       ( -0.0000000 )
                  (     0          0          1      )       ( -0.5000000 )

 cart.    s(21) = ( -0.5000000  0.8660254  0.0000000 )    f =(  0.0000000 )
                  (  0.8660254  0.5000000  0.0000000 )       ( -0.0000000 )
                  (  0.0000000  0.0000000  1.0000000 )       ( -0.8072289 )


      isym = 22     inv. 180 deg rotation - cryst. axis [2,1,0]  

 cryst.   s(22) = (    -1         -1          0      )    f =(  0.0000000 )
                  (     0          1          0      )       ( -0.0000000 )
                  (     0          0          1      )       ( -0.5000000 )

 cart.    s(22) = ( -0.5000000 -0.8660254  0.0000000 )    f =(  0.0000000 )
                  ( -0.8660254  0.5000000  0.0000000 )       ( -0.0000000 )
                  (  0.0000000  0.0000000  1.0000000 )       ( -0.8072289 )


      isym = 23     inv. 180 deg rotation - cryst. axis [0,1,0]  

 cryst.   s(23) = (     1          1          0      )
                  (     0         -1          0      )
                  (     0          0          1      )

 cart.    s(23) = (  0.5000000  0.8660254  0.0000000 )
                  (  0.8660254 -0.5000000  0.0000000 )
                  (  0.0000000  0.0000000  1.0000000 )


      isym = 24     inv. 180 deg rotation - cryst. axis [1,1,0]  

 cryst.   s(24) = (     0         -1          0      )
                  (    -1          0          0      )
                  (     0          0          1      )

 cart.    s(24) = (  0.5000000 -0.8660254  0.0000000 )
                  ( -0.8660254 -0.5000000  0.0000000 )
                  (  0.0000000  0.0000000  1.0000000 )


     point group D_6h(6/mmm)
     there are 12 classes
     the character table:

       E     2C6   2C3   C2    3C2'  3C2'' i     2S3   2S6   s_h   3s_d  3s_v 
A_1g   1.00  1.00  1.00  1.00  1.00  1.00  1.00  1.00  1.00  1.00  1.00  1.00
A_2g   1.00  1.00  1.00  1.00 -1.00 -1.00  1.00  1.00  1.00  1.00 -1.00 -1.00
B_1g   1.00 -1.00  1.00 -1.00  1.00 -1.00  1.00 -1.00  1.00 -1.00  1.00 -1.00
B_2g   1.00 -1.00  1.00 -1.00 -1.00  1.00  1.00 -1.00  1.00 -1.00 -1.00  1.00
E_1g   2.00  1.00 -1.00 -2.00  0.00  0.00  2.00  1.00 -1.00 -2.00  0.00  0.00
E_2g   2.00 -1.00 -1.00  2.00  0.00  0.00  2.00 -1.00 -1.00  2.00  0.00  0.00
A_1u   1.00  1.00  1.00  1.00  1.00  1.00 -1.00 -1.00 -1.00 -1.00 -1.00 -1.00
A_2u   1.00  1.00  1.00  1.00 -1.00 -1.00 -1.00 -1.00 -1.00 -1.00  1.00  1.00
B_1u   1.00 -1.00  1.00 -1.00  1.00 -1.00 -1.00  1.00 -1.00  1.00 -1.00  1.00
B_2u   1.00 -1.00  1.00 -1.00 -1.00  1.00 -1.00  1.00 -1.00  1.00  1.00 -1.00
E_1u   2.00  1.00 -1.00 -2.00  0.00  0.00 -2.00 -1.00  1.00  2.00  0.00  0.00
E_2u   2.00 -1.00 -1.00  2.00  0.00  0.00 -2.00  1.00  1.00 -2.00  0.00  0.00

     the symmetry operations in each class and the name of the first element:

     E        1
          identity                                               
     2C6      5    6
           60 deg rotation - cryst. axis [0,0,1]                 
     2C3      7    8
          120 deg rotation - cryst. axis [0,0,1]                 
     C2       2
          180 deg rotation - cart. axis [0,0,1]                  
     3C2'     4   12   11
          180 deg rotation - cart. axis [1,0,0]                  
     3C2''    3    9   10
          180 deg rotation - cart. axis [0,1,0]                  
     i       13
          inversion                                              
     2S3     17   18
          inv.  60 deg rotation - cryst. axis [0,0,1]            
     2S6     19   20
          inv. 120 deg rotation - cryst. axis [0,0,1]            
     s_h     14
          inv. 180 deg rotation - cart. axis [0,0,1]             
     3s_d    16   24   23
          inv. 180 deg rotation - cart. axis [1,0,0]             
     3s_v    15   21   22
          inv. 180 deg rotation - cart. axis [0,1,0]             

   Cartesian axes

     site n.     atom                  positions (alat units)
         1           Co  tau(   1) = (  -0.0000000   0.5773503   0.4036145  )
         2           Co  tau(   2) = (   0.5000000   0.2886751   1.2108434  )

   Crystallographic axes

     site n.     atom                  positions (cryst. coord.)
         1           Co  tau(   1) = (  0.3333333  0.6666667  0.2500000  )
         2           Co  tau(   2) = (  0.6666667  0.3333333  0.7500000  )

     number of k points=    76  Gaussian smearing, width (Ry)=  0.0010
                       cart. coord. in units 2pi/alat
        k(    1) = (   0.0000000   0.0000000   0.0000000), wk =   0.0011574
        k(    2) = (   0.0000000   0.0000000   0.1032338), wk =   0.0023148
        k(    3) = (   0.0000000   0.0000000   0.2064677), wk =   0.0023148
        k(    4) = (   0.0000000   0.0000000  -0.3097015), wk =   0.0011574
        k(    5) = (   0.0000000   0.0962250   0.0000000), wk =   0.0069444
        k(    6) = (   0.0000000   0.0962250   0.1032338), wk =   0.0138889
        k(    7) = (   0.0000000   0.0962250   0.2064677), wk =   0.0138889
        k(    8) = (   0.0000000   0.0962250  -0.3097015), wk =   0.0069444
        k(    9) = (   0.0000000   0.1924501   0.0000000), wk =   0.0069444
        k(   10) = (   0.0000000   0.1924501   0.1032338), wk =   0.0138889
        k(   11) = (   0.0000000   0.1924501   0.2064677), wk =   0.0138889
        k(   12) = (   0.0000000   0.1924501  -0.3097015), wk =   0.0069444
        k(   13) = (   0.0000000   0.2886751   0.0000000), wk =   0.0069444
        k(   14) = (   0.0000000   0.2886751   0.1032338), wk =   0.0138889
        k(   15) = (   0.0000000   0.2886751   0.2064677), wk =   0.0138889
        k(   16) = (   0.0000000   0.2886751  -0.3097015), wk =   0.0069444
        k(   17) = (   0.0000000   0.3849002   0.0000000), wk =   0.0069444
        k(   18) = (   0.0000000   0.3849002   0.1032338), wk =   0.0138889
        k(   19) = (   0.0000000   0.3849002   0.2064677), wk =   0.0138889
        k(   20) = (   0.0000000   0.3849002  -0.3097015), wk =   0.0069444
        k(   21) = (   0.0000000   0.4811252   0.0000000), wk =   0.0069444
        k(   22) = (   0.0000000   0.4811252   0.1032338), wk =   0.0138889
        k(   23) = (   0.0000000   0.4811252   0.2064677), wk =   0.0138889
        k(   24) = (   0.0000000   0.4811252  -0.3097015), wk =   0.0069444
        k(   25) = (   0.0000000  -0.5773503   0.0000000), wk =   0.0034722
        k(   26) = (   0.0000000  -0.5773503   0.1032338), wk =   0.0069444
        k(   27) = (   0.0000000  -0.5773503   0.2064677), wk =   0.0069444
        k(   28) = (   0.0000000  -0.5773503  -0.3097015), wk =   0.0034722
        k(   29) = (   0.0833333   0.1443376   0.0000000), wk =   0.0069444
        k(   30) = (   0.0833333   0.1443376   0.1032338), wk =   0.0138889
        k(   31) = (   0.0833333   0.1443376   0.2064677), wk =   0.0138889
        k(   32) = (   0.0833333   0.1443376  -0.3097015), wk =   0.0069444
        k(   33) = (   0.0833333   0.2405626   0.0000000), wk =   0.0138889
        k(   34) = (   0.0833333   0.2405626   0.1032338), wk =   0.0277778
        k(   35) = (   0.0833333   0.2405626   0.2064677), wk =   0.0277778
        k(   36) = (   0.0833333   0.2405626  -0.3097015), wk =   0.0138889
        k(   37) = (   0.0833333   0.3367877   0.0000000), wk =   0.0138889
        k(   38) = (   0.0833333   0.3367877   0.1032338), wk =   0.0277778
        k(   39) = (   0.0833333   0.3367877   0.2064677), wk =   0.0277778
        k(   40) = (   0.0833333   0.3367877  -0.3097015), wk =   0.0138889
        k(   41) = (   0.0833333   0.4330127   0.0000000), wk =   0.0138889
        k(   42) = (   0.0833333   0.4330127   0.1032338), wk =   0.0277778
        k(   43) = (   0.0833333   0.4330127   0.2064677), wk =   0.0277778
        k(   44) = (   0.0833333   0.4330127  -0.3097015), wk =   0.0138889
        k(   45) = (   0.0833333   0.5292377   0.0000000), wk =   0.0138889
        k(   46) = (   0.0833333   0.5292377   0.1032338), wk =   0.0277778
        k(   47) = (   0.0833333   0.5292377   0.2064677), wk =   0.0277778
        k(   48) = (   0.0833333   0.5292377  -0.3097015), wk =   0.0138889
        k(   49) = (   0.1666667   0.2886751   0.0000000), wk =   0.0069444
        k(   50) = (   0.1666667   0.2886751   0.1032338), wk =   0.0138889
        k(   51) = (   0.1666667   0.2886751   0.2064677), wk =   0.0138889
        k(   52) = (   0.1666667   0.2886751  -0.3097015), wk =   0.0069444
        k(   53) = (   0.1666667   0.3849002   0.0000000), wk =   0.0138889
        k(   54) = (   0.1666667   0.3849002   0.1032338), wk =   0.0277778
        k(   55) = (   0.1666667   0.3849002   0.2064677), wk =   0.0277778
        k(   56) = (   0.1666667   0.3849002  -0.3097015), wk =   0.0138889
        k(   57) = (   0.1666667   0.4811252   0.0000000), wk =   0.0138889
        k(   58) = (   0.1666667   0.4811252   0.1032338), wk =   0.0277778
        k(   59) = (   0.1666667   0.4811252   0.2064677), wk =   0.0277778
        k(   60) = (   0.1666667   0.4811252  -0.3097015), wk =   0.0138889
        k(   61) = (   0.1666667   0.5773503   0.0000000), wk =   0.0069444
        k(   62) = (   0.1666667   0.5773503   0.1032338), wk =   0.0138889
        k(   63) = (   0.1666667   0.5773503   0.2064677), wk =   0.0138889
        k(   64) = (   0.1666667   0.5773503  -0.3097015), wk =   0.0069444
        k(   65) = (   0.2500000   0.4330127   0.0000000), wk =   0.0069444
        k(   66) = (   0.2500000   0.4330127   0.1032338), wk =   0.0138889
        k(   67) = (   0.2500000   0.4330127   0.2064677), wk =   0.0138889
        k(   68) = (   0.2500000   0.4330127  -0.3097015), wk =   0.0069444
        k(   69) = (   0.2500000   0.5292377   0.0000000), wk =   0.0138889
        k(   70) = (   0.2500000   0.5292377   0.1032338), wk =   0.0277778
        k(   71) = (   0.2500000   0.5292377   0.2064677), wk =   0.0277778
        k(   72) = (   0.2500000   0.5292377  -0.3097015), wk =   0.0138889
        k(   73) = (   0.3333333   0.5773503   0.0000000), wk =   0.0023148
        k(   74) = (   0.3333333   0.5773503   0.1032338), wk =   0.0046296
        k(   75) = (   0.3333333   0.5773503   0.2064677), wk =   0.0046296
        k(   76) = (   0.3333333   0.5773503  -0.3097015), wk =   0.0023148

                       cryst. coord.
        k(    1) = (   0.0000000   0.0000000   0.0000000), wk =   0.0011574
        k(    2) = (   0.0000000   0.0000000   0.1666667), wk =   0.0023148
        k(    3) = (   0.0000000   0.0000000   0.3333333), wk =   0.0023148
        k(    4) = (   0.0000000   0.0000000  -0.5000000), wk =   0.0011574
        k(    5) = (   0.0000000   0.0833333   0.0000000), wk =   0.0069444
        k(    6) = (   0.0000000   0.0833333   0.1666667), wk =   0.0138889
        k(    7) = (   0.0000000   0.0833333   0.3333333), wk =   0.0138889
        k(    8) = (   0.0000000   0.0833333  -0.5000000), wk =   0.0069444
        k(    9) = (   0.0000000   0.1666667   0.0000000), wk =   0.0069444
        k(   10) = (   0.0000000   0.1666667   0.1666667), wk =   0.0138889
        k(   11) = (   0.0000000   0.1666667   0.3333333), wk =   0.0138889
        k(   12) = (   0.0000000   0.1666667  -0.5000000), wk =   0.0069444
        k(   13) = (   0.0000000   0.2500000   0.0000000), wk =   0.0069444
        k(   14) = (   0.0000000   0.2500000   0.1666667), wk =   0.0138889
        k(   15) = (   0.0000000   0.2500000   0.3333333), wk =   0.0138889
        k(   16) = (   0.0000000   0.2500000  -0.5000000), wk =   0.0069444
        k(   17) = (   0.0000000   0.3333333   0.0000000), wk =   0.0069444
        k(   18) = (   0.0000000   0.3333333   0.1666667), wk =   0.0138889
        k(   19) = (   0.0000000   0.3333333   0.3333333), wk =   0.0138889
        k(   20) = (   0.0000000   0.3333333  -0.5000000), wk =   0.0069444
        k(   21) = (   0.0000000   0.4166667   0.0000000), wk =   0.0069444
        k(   22) = (   0.0000000   0.4166667   0.1666667), wk =   0.0138889
        k(   23) = (   0.0000000   0.4166667   0.3333333), wk =   0.0138889
        k(   24) = (   0.0000000   0.4166667  -0.5000000), wk =   0.0069444
        k(   25) = (   0.0000000  -0.5000000   0.0000000), wk =   0.0034722
        k(   26) = (   0.0000000  -0.5000000   0.1666667), wk =   0.0069444
        k(   27) = (   0.0000000  -0.5000000   0.3333333), wk =   0.0069444
        k(   28) = (   0.0000000  -0.5000000  -0.5000000), wk =   0.0034722
        k(   29) = (   0.0833333   0.0833333   0.0000000), wk =   0.0069444
        k(   30) = (   0.0833333   0.0833333   0.1666667), wk =   0.0138889
        k(   31) = (   0.0833333   0.0833333   0.3333333), wk =   0.0138889
        k(   32) = (   0.0833333   0.0833333  -0.5000000), wk =   0.0069444
        k(   33) = (   0.0833333   0.1666667   0.0000000), wk =   0.0138889
        k(   34) = (   0.0833333   0.1666667   0.1666667), wk =   0.0277778
        k(   35) = (   0.0833333   0.1666667   0.3333333), wk =   0.0277778
        k(   36) = (   0.0833333   0.1666667  -0.5000000), wk =   0.0138889
        k(   37) = (   0.0833333   0.2500000   0.0000000), wk =   0.0138889
        k(   38) = (   0.0833333   0.2500000   0.1666667), wk =   0.0277778
        k(   39) = (   0.0833333   0.2500000   0.3333333), wk =   0.0277778
        k(   40) = (   0.0833333   0.2500000  -0.5000000), wk =   0.0138889
        k(   41) = (   0.0833333   0.3333333   0.0000000), wk =   0.0138889
        k(   42) = (   0.0833333   0.3333333   0.1666667), wk =   0.0277778
        k(   43) = (   0.0833333   0.3333333   0.3333333), wk =   0.0277778
        k(   44) = (   0.0833333   0.3333333  -0.5000000), wk =   0.0138889
        k(   45) = (   0.0833333   0.4166667   0.0000000), wk =   0.0138889
        k(   46) = (   0.0833333   0.4166667   0.1666667), wk =   0.0277778
        k(   47) = (   0.0833333   0.4166667   0.3333333), wk =   0.0277778
        k(   48) = (   0.0833333   0.4166667  -0.5000000), wk =   0.0138889
        k(   49) = (   0.1666667   0.1666667   0.0000000), wk =   0.0069444
        k(   50) = (   0.1666667   0.1666667   0.1666667), wk =   0.0138889
        k(   51) = (   0.1666667   0.1666667   0.3333333), wk =   0.0138889
        k(   52) = (   0.1666667   0.1666667  -0.5000000), wk =   0.0069444
        k(   53) = (   0.1666667   0.2500000   0.0000000), wk =   0.0138889
        k(   54) = (   0.1666667   0.2500000   0.1666667), wk =   0.0277778
        k(   55) = (   0.1666667   0.2500000   0.3333333), wk =   0.0277778
        k(   56) = (   0.1666667   0.2500000  -0.5000000), wk =   0.0138889
        k(   57) = (   0.1666667   0.3333333   0.0000000), wk =   0.0138889
        k(   58) = (   0.1666667   0.3333333   0.1666667), wk =   0.0277778
        k(   59) = (   0.1666667   0.3333333   0.3333333), wk =   0.0277778
        k(   60) = (   0.1666667   0.3333333  -0.5000000), wk =   0.0138889
        k(   61) = (   0.1666667   0.4166667   0.0000000), wk =   0.0069444
        k(   62) = (   0.1666667   0.4166667   0.1666667), wk =   0.0138889
        k(   63) = (   0.1666667   0.4166667   0.3333333), wk =   0.0138889
        k(   64) = (   0.1666667   0.4166667  -0.5000000), wk =   0.0069444
        k(   65) = (   0.2500000   0.2500000   0.0000000), wk =   0.0069444
        k(   66) = (   0.2500000   0.2500000   0.1666667), wk =   0.0138889
        k(   67) = (   0.2500000   0.2500000   0.3333333), wk =   0.0138889
        k(   68) = (   0.2500000   0.2500000  -0.5000000), wk =   0.0069444
        k(   69) = (   0.2500000   0.3333333   0.0000000), wk =   0.0138889
        k(   70) = (   0.2500000   0.3333333   0.1666667), wk =   0.0277778
        k(   71) = (   0.2500000   0.3333333   0.3333333), wk =   0.0277778
        k(   72) = (   0.2500000   0.3333333  -0.5000000), wk =   0.0138889
        k(   73) = (   0.3333333   0.3333333   0.0000000), wk =   0.0023148
        k(   74) = (   0.3333333   0.3333333   0.1666667), wk =   0.0046296
        k(   75) = (   0.3333333   0.3333333   0.3333333), wk =   0.0046296
        k(   76) = (   0.3333333   0.3333333  -0.5000000), wk =   0.0023148

     Dense  grid:    23427 G-vectors     FFT dimensions: (  32,  32,  54)

     Smooth grid:    22695 G-vectors     FFT dimensions: (  32,  32,  54)

     Dynamical RAM for                 wfc:       0.05 MB

     Dynamical RAM for     wfc (w. buffer):       6.91 MB

     Dynamical RAM for           str. fact:       0.02 MB

     Dynamical RAM for           local pot:       0.00 MB

     Dynamical RAM for          nlocal pot:       0.08 MB

     Dynamical RAM for                qrad:       1.70 MB

     Dynamical RAM for          rho,v,vnew:       0.25 MB

     Dynamical RAM for               rhoin:       0.08 MB

     Dynamical RAM for            rho*nmix:       0.57 MB

     Dynamical RAM for           G-vectors:       0.08 MB

     Dynamical RAM for          h,s,v(r/c):       0.08 MB

     Dynamical RAM for          <psi|beta>:       0.01 MB

     Dynamical RAM for                 psi:       0.09 MB

     Dynamical RAM for                hpsi:       0.09 MB

     Dynamical RAM for                spsi:       0.09 MB

     Dynamical RAM for      wfcinit/wfcrot:       0.10 MB

     Dynamical RAM for           addusdens:       3.37 MB

     Estimated static dynamical RAM per process >       9.29 MB

     Estimated max dynamical RAM per process >      13.24 MB

     Estimated total dynamical RAM >     264.76 MB

     Check: negative core charge=   -0.000043
     Generating pointlists ...
     new r_m :   0.4094 (alat units)  1.9263 (a.u.) for type    1

     The initial density is read from file :
     ./out/Co.save/charge-density


     starting charge      34.1370, renormalised to      34.0000

     negative rho (up, down):  1.169E-02 6.134E-03
     Starting wfcs from file
     Checking if some PAW data can be deallocated... 

     total cpu time spent up to now is        0.6 secs

     Self-consistent Calculation

     iteration #  1     ecut=   110.00 Ry     beta= 0.70
     Davidson diagonalization with overlap

---- Real-time Memory Report at c_bands before calling an iterative solver
            56 MiB given to the printing process from OS
             0 MiB allocation reported by mallinfo(arena+hblkhd)
        351604 MiB available memory on the node where the printing process lives
------------------
     ethr =  1.00E-05,  avg # of iterations =  8.0

     total cpu time spent up to now is        4.3 secs

     total energy              =    -753.36044733 Ry
     estimated scf accuracy    <       0.03360142 Ry

     total magnetization       =     3.31 Bohr mag/cell
     absolute magnetization    =     3.55 Bohr mag/cell

     iteration #  2     ecut=   110.00 Ry     beta= 0.70
     Davidson diagonalization with overlap

---- Real-time Memory Report at c_bands before calling an iterative solver
            78 MiB given to the printing process from OS
             0 MiB allocation reported by mallinfo(arena+hblkhd)
        351371 MiB available memory on the node where the printing process lives
------------------
     ethr =  9.88E-05,  avg # of iterations =  4.7

     total cpu time spent up to now is        6.4 secs

     total energy              =    -753.40370093 Ry
     estimated scf accuracy    <       0.06807758 Ry

     total magnetization       =     3.30 Bohr mag/cell
     absolute magnetization    =     3.60 Bohr mag/cell

     iteration #  3     ecut=   110.00 Ry     beta= 0.70
     Davidson diagonalization with overlap

---- Real-time Memory Report at c_bands before calling an iterative solver
            80 MiB given to the printing process from OS
             0 MiB allocation reported by mallinfo(arena+hblkhd)
        351358 MiB available memory on the node where the printing process lives
------------------
     ethr =  9.88E-05,  avg # of iterations =  3.9

     total cpu time spent up to now is        8.1 secs

     total energy              =    -753.45275323 Ry
     estimated scf accuracy    <       0.00146279 Ry

     total magnetization       =     3.30 Bohr mag/cell
     absolute magnetization    =     3.60 Bohr mag/cell

     iteration #  4     ecut=   110.00 Ry     beta= 0.70
     Davidson diagonalization with overlap

---- Real-time Memory Report at c_bands before calling an iterative solver
            80 MiB given to the printing process from OS
             0 MiB allocation reported by mallinfo(arena+hblkhd)
        351348 MiB available memory on the node where the printing process lives
------------------
     ethr =  4.30E-06,  avg # of iterations =  5.9

     total cpu time spent up to now is       10.6 secs

     total energy              =    -753.45515196 Ry
     estimated scf accuracy    <       0.00117481 Ry

     total magnetization       =     3.30 Bohr mag/cell
     absolute magnetization    =     3.62 Bohr mag/cell

     iteration #  5     ecut=   110.00 Ry     beta= 0.70
     Davidson diagonalization with overlap

---- Real-time Memory Report at c_bands before calling an iterative solver
            82 MiB given to the printing process from OS
             0 MiB allocation reported by mallinfo(arena+hblkhd)
        351342 MiB available memory on the node where the printing process lives
------------------
     ethr =  3.46E-06,  avg # of iterations =  1.0

     total cpu time spent up to now is       11.8 secs

     total energy              =    -753.45510485 Ry
     estimated scf accuracy    <       0.00030695 Ry

     total magnetization       =     3.31 Bohr mag/cell
     absolute magnetization    =     3.62 Bohr mag/cell

     iteration #  6     ecut=   110.00 Ry     beta= 0.70
     Davidson diagonalization with overlap

---- Real-time Memory Report at c_bands before calling an iterative solver
            82 MiB given to the printing process from OS
             0 MiB allocation reported by mallinfo(arena+hblkhd)
        351331 MiB available memory on the node where the printing process lives
------------------
     ethr =  9.03E-07,  avg # of iterations =  4.1

     total cpu time spent up to now is       13.4 secs

     total energy              =    -753.45518989 Ry
     estimated scf accuracy    <       0.00001176 Ry

     total magnetization       =     3.31 Bohr mag/cell
     absolute magnetization    =     3.63 Bohr mag/cell

     iteration #  7     ecut=   110.00 Ry     beta= 0.70
     Davidson diagonalization with overlap

---- Real-time Memory Report at c_bands before calling an iterative solver
            83 MiB given to the printing process from OS
             0 MiB allocation reported by mallinfo(arena+hblkhd)
        351324 MiB available memory on the node where the printing process lives
------------------
     ethr =  3.46E-08,  avg # of iterations =  6.1

     total cpu time spent up to now is       15.7 secs

     total energy              =    -753.45520133 Ry
     estimated scf accuracy    <       0.00000896 Ry

     total magnetization       =     3.31 Bohr mag/cell
     absolute magnetization    =     3.63 Bohr mag/cell

     iteration #  8     ecut=   110.00 Ry     beta= 0.70
     Davidson diagonalization with overlap

---- Real-time Memory Report at c_bands before calling an iterative solver
            84 MiB given to the printing process from OS
             0 MiB allocation reported by mallinfo(arena+hblkhd)
        351320 MiB available memory on the node where the printing process lives
------------------
     ethr =  2.64E-08,  avg # of iterations =  2.6
 
     Magnetic moment per site  (integrated on atomic sphere of radius R)
     atom   1 (R=0.409)  charge= 15.5797  magn=  1.7268
     atom   2 (R=0.409)  charge= 15.5797  magn=  1.7268

     total cpu time spent up to now is       17.1 secs

     End of self-consistent calculation

 ------ SPIN UP ------------


          k = 0.0000 0.0000 0.0000 (  2827 PWs)   bands (ev):

   -77.3279 -77.2697 -40.7314 -40.4370 -40.4370 -40.3963 -40.3880 -40.3880
     9.7724  13.5837  16.1512  16.1719  16.1719  16.4905  16.4905  16.8284
    16.8284  17.9518  17.9518  18.5790  25.1679

     occupation numbers 
     1.0000   1.0000   1.0000   1.0000   1.0000   1.0000   1.0000   1.0000
     1.0000   1.0000   1.0000   1.0000   1.0000   1.0000   1.0000   1.0000
     1.0000   1.0000   1.0000   1.0000   0.0000

          k = 0.0000 0.0000 0.1032 (  2833 PWs)   bands (ev):

   -77.3240 -77.2736 -40.7092 -40.4337 -40.4337 -40.4191 -40.3913 -40.3913
    10.0516  13.5162  16.0788  16.1043  16.1043  16.4148  16.4148  16.9962
    16.9962  17.6162  17.9358  17.9358  26.6978

     occupation numbers 
     1.0000   1.0000   1.0000   1.0000   1.0000   1.0000   1.0000   1.0000
     1.0000   1.0000   1.0000   1.0000   1.0000   1.0000   1.0000   1.0000
     1.0000   1.0000   1.0000   1.0000   0.0000

          k = 0.0000 0.0000 0.2065 (  2852 PWs)   bands (ev):

   -77.3134 -77.2843 -40.6486 -40.4810 -40.4248 -40.4248 -40.4003 -40.4003
    10.8517  13.0824  15.9110  16.0472  16.0472  16.2481  16.2481  16.2847
    17.3251  17.3251  17.8475  17.8475  29.9298

     occupation numbers 
     1.0000   1.0000   1.0000   1.0000   1.0000   1.0000   1.0000   1.0000
     1.0000   1.0000   1.0000   1.0000   1.0000   1.0000   1.0000   1.0000
     1.0000   1.0000   1.0000   1.0000   0.0000

          k = 0.0000 0.0000-0.3097 (  2834 PWs)   bands (ev):

   -77.2988 -77.2988 -40.5651 -40.5651 -40.4125 -40.4125 -40.4125 -40.4125
    12.0161  12.0161  15.8290  15.8290  16.1001  16.1001  16.1001  16.1001
    17.6380  17.6380  17.6380  17.6380  33.7839

     occupation numbers 
     1.0000   1.0000   1.0000   1.0000   1.0000   1.0000   1.0000   1.0000
     1.0000   1.0000   1.0000   1.0000   1.0000   1.0000   1.0000   1.0000
     1.0000   1.0000   1.0000   1.0000   0.0000

          k = 0.0000 0.0962 0.0000 (  2829 PWs)   bands (ev):

   -77.3247 -77.2682 -40.7242 -40.4527 -40.4421 -40.4044 -40.3994 -40.3906
    10.0148  13.7289  15.9320  16.2863  16.3527  16.4437  16.5916  16.6723
    16.7566  17.1471  17.9826  19.7054  25.2074

     occupation numbers 
     1.0000   1.0000   1.0000   1.0000   1.0000   1.0000   1.0000   1.0000
     1.0000   1.0000   1.0000   1.0000   1.0000   1.0000   1.0000   1.0000
     1.0000   1.0000   1.0000   0.0000   0.0000

          k = 0.0000 0.0962 0.1032 (  2823 PWs)   bands (ev):

   -77.3209 -77.2720 -40.7033 -40.4489 -40.4387 -40.4286 -40.4004 -40.3941
    10.2896  13.6761  15.9293  16.1728  16.2014  16.2584  16.5097  16.8159
    16.9523  17.0434  17.9591  18.9237  26.8061

     occupation numbers 
     1.0000   1.0000   1.0000   1.0000   1.0000   1.0000   1.0000   1.0000
     1.0000   1.0000   1.0000   1.0000   1.0000   1.0000   1.0000   1.0000
     1.0000   1.0000   1.0000   0.0000   0.0000

          k = 0.0000 0.0962 0.2065 (  2839 PWs)   bands (ev):

   -77.3106 -77.2824 -40.6460 -40.4878 -40.4384 -40.4293 -40.4101 -40.4035
    11.0770  13.2711  15.8209  15.8868  15.9725  16.1374  16.3419  16.4183
    17.2997  17.3464  17.8538  18.1498  30.0825

     occupation numbers 
     1.0000   1.0000   1.0000   1.0000   1.0000   1.0000   1.0000   1.0000
     1.0000   1.0000   1.0000   1.0000   1.0000   1.0000   1.0000   1.0000
     1.0000   1.0000   1.0000   1.0000   0.0000

          k = 0.0000 0.0962-0.3097 (  2840 PWs)   bands (ev):

   -77.2965 -77.2965 -40.5672 -40.5672 -40.4242 -40.4242 -40.4164 -40.4164
    12.2228  12.2228  15.6758  15.6758  16.1195  16.1195  16.1920  16.1920
    17.6270  17.6270  17.7310  17.7310  33.9508

     occupation numbers 
     1.0000   1.0000   1.0000   1.0000   1.0000   1.0000   1.0000   1.0000
     1.0000   1.0000   1.0000   1.0000   1.0000   1.0000   1.0000   1.0000
     1.0000   1.0000   1.0000   1.0000   0.0000

          k = 0.0000 0.1925 0.0000 (  2823 PWs)   bands (ev):

   -77.3157 -77.2644 -40.7036 -40.4959 -40.4560 -40.4486 -40.4086 -40.3980
    10.7156  14.0882  15.6542  15.9442  16.2689  16.5795  16.6096  16.6596
    16.7839  16.8752  18.0481  21.3034  25.3464

     occupation numbers 
     1.0000   1.0000   1.0000   1.0000   1.0000   1.0000   1.0000   1.0000
     1.0000   1.0000   1.0000   1.0000   1.0000   1.0000   1.0000   1.0000
     1.0000   1.0000   1.0000   0.0000   0.0000

          k = 0.0000 0.1925 0.1032 (  2828 PWs)   bands (ev):

   -77.3123 -77.2678 -40.6868 -40.4904 -40.4658 -40.4521 -40.4140 -40.4019
    10.9742  14.0805  15.6660  15.6963  16.1493  16.4087  16.5397  16.7561
    16.9358  17.0351  18.0079  20.1631  27.1583

     occupation numbers 
     1.0000   1.0000   1.0000   1.0000   1.0000   1.0000   1.0000   1.0000
     1.0000   1.0000   1.0000   1.0000   1.0000   1.0000   1.0000   1.0000
     1.0000   1.0000   1.0000   0.0000   0.0000

          k = 0.0000 0.1925 0.2065 (  2830 PWs)   bands (ev):

   -77.3029 -77.2772 -40.6410 -40.5145 -40.4729 -40.4415 -40.4295 -40.4125
    11.7120  13.7601  15.3200  15.7501  15.8656  16.3574  16.3576  16.6022
    17.2736  17.4387  17.8672  18.8013  30.5386

     occupation numbers 
     1.0000   1.0000   1.0000   1.0000   1.0000   1.0000   1.0000   1.0000
     1.0000   1.0000   1.0000   1.0000   1.0000   1.0000   1.0000   1.0000
     1.0000   1.0000   1.0000   0.0000   0.0000

          k = 0.0000 0.1925-0.3097 (  2844 PWs)   bands (ev):

   -77.2901 -77.2901 -40.5779 -40.5779 -40.4512 -40.4512 -40.4271 -40.4271
    12.7791  12.7791  15.4389  15.4389  16.0650  16.0650  16.4370  16.4370
    17.6112  17.6112  17.9812  17.9812  34.4020

     occupation numbers 
     1.0000   1.0000   1.0000   1.0000   1.0000   1.0000   1.0000   1.0000
     1.0000   1.0000   1.0000   1.0000   1.0000   1.0000   1.0000   1.0000
     1.0000   1.0000   1.0000   1.0000   0.0000

          k = 0.0000 0.2887 0.0000 (  2832 PWs)   bands (ev):

   -77.3030 -77.2597 -40.6726 -40.5554 -40.5081 -40.4744 -40.4239 -40.4086
    11.7765  14.3783  15.2162  15.4812  16.1745  16.3666  16.5849  17.0784
    17.0895  17.2828  18.1102  23.1015  25.6137

     occupation numbers 
     1.0000   1.0000   1.0000   1.0000   1.0000   1.0000   1.0000   1.0000
     1.0000   1.0000   1.0000   1.0000   1.0000   1.0000   1.0000   1.0000
     1.0000   1.0000   1.0000   0.0000   0.0000

          k = 0.0000 0.2887 0.1032 (  2824 PWs)   bands (ev):

   -77.3001 -77.2626 -40.6655 -40.5449 -40.5220 -40.4700 -40.4278 -40.4130
    11.9920  14.4246  15.0698  15.5334  16.0204  16.4048  16.5883  17.1239
    17.2117  17.2366  18.0546  21.4502  27.7870

     occupation numbers 
     1.0000   1.0000   1.0000   1.0000   1.0000   1.0000   1.0000   1.0000
     1.0000   1.0000   1.0000   1.0000   1.0000   1.0000   1.0000   1.0000
     1.0000   1.0000   1.0000   0.0000   0.0000

          k = 0.0000 0.2887 0.2065 (  2837 PWs)   bands (ev):

   -77.2921 -77.2705 -40.6431 -40.5642 -40.5095 -40.4580 -40.4439 -40.4251
    12.5919  14.1956  14.9822  15.5723  15.8819  16.4259  16.5272  16.9704
    17.3936  17.6026  17.8928  19.5805  31.1482

     occupation numbers 
     1.0000   1.0000   1.0000   1.0000   1.0000   1.0000   1.0000   1.0000
     1.0000   1.0000   1.0000   1.0000   1.0000   1.0000   1.0000   1.0000
     1.0000   1.0000   1.0000   0.0000   0.0000

          k = 0.0000 0.2887-0.3097 (  2838 PWs)   bands (ev):

   -77.2813 -77.2813 -40.6068 -40.6068 -40.4736 -40.4736 -40.4416 -40.4416
    13.4224  13.4224  15.2839  15.2839  16.1222  16.1222  16.7305  16.7305
    17.6526  17.6526  18.3305  18.3305  33.1986

     occupation numbers 
     1.0000   1.0000   1.0000   1.0000   1.0000   1.0000   1.0000   1.0000
     1.0000   1.0000   1.0000   1.0000   1.0000   1.0000   1.0000   1.0000
     1.0000   1.0000   1.0000   1.0000   0.0000

          k = 0.0000 0.3849 0.0000 (  2846 PWs)   bands (ev):

   -77.2893 -77.2558 -40.6364 -40.6154 -40.5665 -40.4923 -40.4446 -40.4196
    12.9380  14.3139  14.6884  15.5833  16.1749  16.2967  16.4075  17.5782
    17.7251  17.7747  18.1529  25.0589  25.6466

     occupation numbers 
     1.0000   1.0000   1.0000   1.0000   1.0000   1.0000   1.0000   1.0000
     1.0000   1.0000   1.0000   1.0000   1.0000   1.0000   1.0000   1.0000
     1.0000   1.0000   1.0000   0.0000   0.0000

          k = 0.0000 0.3849 0.1032 (  2840 PWs)   bands (ev):

   -77.2870 -77.2581 -40.6574 -40.5906 -40.5700 -40.4874 -40.4448 -40.4245
    13.0392  14.3495  14.7198  15.4482  16.2097  16.2683  16.7507  17.5994
    17.6313  17.7112  18.0972  22.6912  27.7677

     occupation numbers 
     1.0000   1.0000   1.0000   1.0000   1.0000   1.0000   1.0000   1.0000
     1.0000   1.0000   1.0000   1.0000   1.0000   1.0000   1.0000   1.0000
     1.0000   1.0000   1.0000   0.0000   0.0000

          k = 0.0000 0.3849 0.2065 (  2832 PWs)   bands (ev):

   -77.2809 -77.2642 -40.6647 -40.6188 -40.5250 -40.4742 -40.4543 -40.4378
    13.3227  14.1725  14.8589  15.3759  16.3014  16.5316  17.0459  17.3154
    17.7059  17.8325  17.9745  20.4690  28.8598

     occupation numbers 
     1.0000   1.0000   1.0000   1.0000   1.0000   1.0000   1.0000   1.0000
     1.0000   1.0000   1.0000   1.0000   1.0000   1.0000   1.0000   1.0000
     1.0000   1.0000   1.0000   0.0000   0.0000

          k = 0.0000 0.3849-0.3097 (  2840 PWs)   bands (ev):

   -77.2726 -77.2726 -40.6497 -40.6497 -40.4817 -40.4817 -40.4560 -40.4560
    13.7359  13.7359  15.1591  15.1591  16.7173  16.7173  16.9120  16.9120
    17.8348  17.8348  18.8122  18.8122  29.9875

     occupation numbers 
     1.0000   1.0000   1.0000   1.0000   1.0000   1.0000   1.0000   1.0000
     1.0000   1.0000   1.0000   1.0000   1.0000   1.0000   1.0000   1.0000
     1.0000   1.0000   0.0000   0.0000   0.0000

          k = 0.0000 0.4811 0.0000 (  2834 PWs)   bands (ev):

   -77.2780 -77.2542 -40.6596 -40.6085 -40.6028 -40.5052 -40.4667 -40.4278
    13.7102  14.1263  14.3726  15.9371  16.0440  16.2822  16.5002  17.9518
    18.0917  18.1757  18.8839  23.7749  27.0773

     occupation numbers 
     1.0000   1.0000   1.0000   1.0000   1.0000   1.0000   1.0000   1.0000
     1.0000   1.0000   1.0000   1.0000   1.0000   1.0000   1.0000   1.0000
     1.0000   1.0000   0.0000   0.0000   0.0000

          k = 0.0000 0.4811 0.1032 (  2838 PWs)   bands (ev):

   -77.2764 -77.2558 -40.6786 -40.6264 -40.5698 -40.5000 -40.4627 -40.4330
    13.6030  14.1252  14.6865  15.3448  16.1584  16.4955  17.1002  17.8973
    17.9896  18.1682  18.7222  22.9997  26.3750

     occupation numbers 
     1.0000   1.0000   1.0000   1.0000   1.0000   1.0000   1.0000   1.0000
     1.0000   1.0000   1.0000   1.0000   1.0000   1.0000   1.0000   1.0000
     1.0000   1.0000   0.9999   0.0000   0.0000

          k = 0.0000 0.4811 0.2065 (  2831 PWs)   bands (ev):

   -77.2721 -77.2602 -40.6934 -40.6594 -40.5212 -40.4859 -40.4633 -40.4472
    13.5734  14.0552  14.8466  15.1823  16.4831  16.7347  17.4840  18.0193
    18.0731  18.1300  18.3923  21.2861  26.5024

     occupation numbers 
     1.0000   1.0000   1.0000   1.0000   1.0000   1.0000   1.0000   1.0000
     1.0000   1.0000   1.0000   1.0000   1.0000   1.0000   1.0000   1.0000
     1.0000   1.0000   1.0000   0.0000   0.0000

          k = 0.0000 0.4811-0.3097 (  2834 PWs)   bands (ev):

   -77.2661 -77.2661 -40.6860 -40.6860 -40.4826 -40.4826 -40.4666 -40.4666
    13.7607  13.7607  15.0382  15.0382  16.9598  16.9598  17.4474  17.4474
    18.0747  18.0747  19.6291  19.6291  27.2836

     occupation numbers 
     1.0000   1.0000   1.0000   1.0000   1.0000   1.0000   1.0000   1.0000
     1.0000   1.0000   1.0000   1.0000   1.0000   1.0000   1.0000   1.0000
     1.0000   1.0000   0.0000   0.0000   0.0000

          k = 0.0000-0.5774 0.0000 (  2838 PWs)   bands (ev):

   -77.2733 -77.2542 -40.6758 -40.6238 -40.5871 -40.5099 -40.4782 -40.4309
    13.9760  13.9831  14.2677  15.9978  16.1832  16.2370  16.5773  18.0869
    18.1827  18.2402  20.0344  22.0508  28.3843

     occupation numbers 
     1.0000   1.0000   1.0000   1.0000   1.0000   1.0000   1.0000   1.0000
     1.0000   1.0000   1.0000   1.0000   1.0000   1.0000   1.0000   1.0000
     1.0000   1.0000   0.0000   0.0000   0.0000

          k = 0.0000-0.5774 0.1032 (  2840 PWs)   bands (ev):

   -77.2720 -77.2555 -40.6911 -40.6409 -40.5610 -40.5046 -40.4718 -40.4362
    13.7071  14.0278  14.7225  15.3174  16.1181  16.5844  17.2998  17.9633
    18.1378  18.2323  19.8234  21.8738  27.5071

     occupation numbers 
     1.0000   1.0000   1.0000   1.0000   1.0000   1.0000   1.0000   1.0000
     1.0000   1.0000   1.0000   1.0000   1.0000   1.0000   1.0000   1.0000
     1.0000   1.0000   0.0000   0.0000   0.0000

          k = 0.0000-0.5774 0.2065 (  2858 PWs)   bands (ev):

   -77.2685 -77.2590 -40.7058 -40.6742 -40.5167 -40.4902 -40.4678 -40.4507
    13.5946  14.0094  14.8712  15.0940  16.4604  16.8802  17.5206  18.1515
    18.1902  18.2105  19.4878  21.2749  26.4326

     occupation numbers 
     1.0000   1.0000   1.0000   1.0000   1.0000   1.0000   1.0000   1.0000
     1.0000   1.0000   1.0000   1.0000   1.0000   1.0000   1.0000   1.0000
     1.0000   1.0000   0.0000   0.0000   0.0000

          k = 0.0000-0.5774-0.3097 (  2840 PWs)   bands (ev):

   -77.2638 -77.2638 -40.6999 -40.6999 -40.4822 -40.4822 -40.4705 -40.4705
    13.7438  13.7438  14.9905  14.9905  16.9644  16.9644  17.6941  17.6941
    18.1807  18.1807  20.2695  20.2695  26.0350

     occupation numbers 
     1.0000   1.0000   1.0000   1.0000   1.0000   1.0000   1.0000   1.0000
     1.0000   1.0000   1.0000   1.0000   1.0000   1.0000   1.0000   1.0000
     1.0000   1.0000   0.0000   0.0000   0.0000

          k = 0.0833 0.1443 0.0000 (  2828 PWs)   bands (ev):

   -77.3186 -77.2656 -40.7102 -40.4795 -40.4581 -40.4289 -40.4055 -40.3977
    10.4872  13.9869  15.7137  16.1915  16.3373  16.5104  16.5200  16.5517
    16.8147  16.9039  18.0208  20.8559  25.2987

     occupation numbers 
     1.0000   1.0000   1.0000   1.0000   1.0000   1.0000   1.0000   1.0000
     1.0000   1.0000   1.0000   1.0000   1.0000   1.0000   1.0000   1.0000
     1.0000   1.0000   1.0000   0.0000   0.0000

          k = 0.0833 0.1443 0.1032 (  2839 PWs)   bands (ev):

   -77.3150 -77.2691 -40.6920 -40.4745 -40.4601 -40.4432 -40.4092 -40.4014
    10.7520  13.9646  15.7394  15.8553  16.1932  16.3702  16.5136  16.6725
    16.9634  17.0166  17.9887  19.8270  27.0385

     occupation numbers 
     1.0000   1.0000   1.0000   1.0000   1.0000   1.0000   1.0000   1.0000
     1.0000   1.0000   1.0000   1.0000   1.0000   1.0000   1.0000   1.0000
     1.0000   1.0000   1.0000   0.0000   0.0000

          k = 0.0833 0.1443 0.2065 (  2825 PWs)   bands (ev):

   -77.3054 -77.2789 -40.6421 -40.5046 -40.4608 -40.4413 -40.4210 -40.4114
    11.5089  13.6165  15.4452  15.7984  15.8773  16.2938  16.3707  16.5210
    17.3034  17.3824  17.8666  18.6126  30.3899

     occupation numbers 
     1.0000   1.0000   1.0000   1.0000   1.0000   1.0000   1.0000   1.0000
     1.0000   1.0000   1.0000   1.0000   1.0000   1.0000   1.0000   1.0000
     1.0000   1.0000   1.0000   1.0000   0.0000

          k = 0.0833 0.1443-0.3097 (  2836 PWs)   bands (ev):

   -77.2921 -77.2921 -40.5735 -40.5735 -40.4433 -40.4433 -40.4241 -40.4241
    12.6080  12.6080  15.4985  15.4985  16.0653  16.0653  16.3728  16.3728
    17.6168  17.6168  17.9031  17.9031  34.2717

     occupation numbers 
     1.0000   1.0000   1.0000   1.0000   1.0000   1.0000   1.0000   1.0000
     1.0000   1.0000   1.0000   1.0000   1.0000   1.0000   1.0000   1.0000
     1.0000   1.0000   1.0000   1.0000   0.0000

          k = 0.0833 0.2406 0.0000 (  2828 PWs)   bands (ev):

   -77.3077 -77.2613 -40.6844 -40.5270 -40.4975 -40.4582 -40.4178 -40.4098
    11.3764  14.3555  15.4374  15.4835  16.2156  16.3258  16.7516  16.7672
    16.9461  17.2326  18.0681  22.4531  25.5237

     occupation numbers 
     1.0000   1.0000   1.0000   1.0000   1.0000   1.0000   1.0000   1.0000
     1.0000   1.0000   1.0000   1.0000   1.0000   1.0000   1.0000   1.0000
     1.0000   1.0000   1.0000   0.0000   0.0000

          k = 0.0833 0.2406 0.1032 (  2826 PWs)   bands (ev):

   -77.3046 -77.2644 -40.6726 -40.5196 -40.5056 -40.4625 -40.4212 -40.4134
    11.6136  14.3926  15.2698  15.4873  16.0920  16.3563  16.5594  16.8848
    17.1446  17.2161  18.0298  21.0073  27.5516

     occupation numbers 
     1.0000   1.0000   1.0000   1.0000   1.0000   1.0000   1.0000   1.0000
     1.0000   1.0000   1.0000   1.0000   1.0000   1.0000   1.0000   1.0000
     1.0000   1.0000   1.0000   0.0000   0.0000

          k = 0.0833 0.2406 0.2065 (  2837 PWs)   bands (ev):

   -77.2961 -77.2729 -40.6397 -40.5437 -40.4945 -40.4600 -40.4336 -40.4241
    12.2834  14.1361  15.0658  15.5934  15.8260  16.2528  16.5053  16.8404
    17.3932  17.5135  17.9066  19.3102  30.9875

     occupation numbers 
     1.0000   1.0000   1.0000   1.0000   1.0000   1.0000   1.0000   1.0000
     1.0000   1.0000   1.0000   1.0000   1.0000   1.0000   1.0000   1.0000
     1.0000   1.0000   1.0000   0.0000   0.0000

          k = 0.0833 0.2406-0.3097 (  2838 PWs)   bands (ev):

   -77.2845 -77.2845 -40.5929 -40.5929 -40.4679 -40.4679 -40.4372 -40.4372
    13.2371  13.2371  15.3384  15.3384  15.9614  15.9614  16.6533  16.6533
    17.6605  17.6605  18.2054  18.2054  34.5871

     occupation numbers 
     1.0000   1.0000   1.0000   1.0000   1.0000   1.0000   1.0000   1.0000
     1.0000   1.0000   1.0000   1.0000   1.0000   1.0000   1.0000   1.0000
     1.0000   1.0000   1.0000   1.0000   0.0000

          k = 0.0833 0.3368 0.0000 (  2830 PWs)   bands (ev):

   -77.2944 -77.2571 -40.6505 -40.5853 -40.5470 -40.4848 -40.4361 -40.4229
    12.5239  14.4793  14.9053  15.3597  16.1364  16.2259  16.5555  17.1719
    17.4519  17.7993  18.1079  24.2926  25.8575

     occupation numbers 
     1.0000   1.0000   1.0000   1.0000   1.0000   1.0000   1.0000   1.0000
     1.0000   1.0000   1.0000   1.0000   1.0000   1.0000   1.0000   1.0000
     1.0000   1.0000   1.0000   0.0000   0.0000

          k = 0.0833 0.3368 0.1032 (  2830 PWs)   bands (ev):

   -77.2919 -77.2596 -40.6547 -40.5720 -40.5521 -40.4844 -40.4378 -40.4258
    12.6899  14.5485  14.8094  15.4103  16.0046  16.3661  16.5334  17.1944
    17.5440  17.6655  18.1119  22.2756  28.2631

     occupation numbers 
     1.0000   1.0000   1.0000   1.0000   1.0000   1.0000   1.0000   1.0000
     1.0000   1.0000   1.0000   1.0000   1.0000   1.0000   1.0000   1.0000
     1.0000   1.0000   1.0000   0.0000   0.0000

          k = 0.0833 0.3368 0.2065 (  2835 PWs)   bands (ev):

   -77.2851 -77.2664 -40.6505 -40.5953 -40.5199 -40.4774 -40.4487 -40.4353
    13.1391  14.3146  14.9118  15.4930  15.9109  16.3919  16.5816  17.1731
    17.6230  17.7862  18.0736  20.1696  30.4978

     occupation numbers 
     1.0000   1.0000   1.0000   1.0000   1.0000   1.0000   1.0000   1.0000
     1.0000   1.0000   1.0000   1.0000   1.0000   1.0000   1.0000   1.0000
     1.0000   1.0000   1.0000   0.0000   0.0000

          k = 0.0833 0.3368-0.3097 (  2840 PWs)   bands (ev):

   -77.2758 -77.2758 -40.6287 -40.6287 -40.4840 -40.4840 -40.4509 -40.4509
    13.7388  13.7388  15.2606  15.2606  16.1306  16.1306  16.8518  16.8518
    17.8571  17.8571  18.6659  18.6659  31.6974

     occupation numbers 
     1.0000   1.0000   1.0000   1.0000   1.0000   1.0000   1.0000   1.0000
     1.0000   1.0000   1.0000   1.0000   1.0000   1.0000   1.0000   1.0000
     1.0000   1.0000   1.0000   1.0000   0.0000

          k = 0.0833 0.4330 0.0000 (  2842 PWs)   bands (ev):

   -77.2818 -77.2545 -40.6370 -40.6146 -40.5906 -40.5056 -40.4585 -40.4341
    13.5400  14.3066  14.5137  15.5829  16.0142  16.3607  16.4180  17.6801
    17.8842  18.1326  18.5966  25.1184  26.2889

     occupation numbers 
     1.0000   1.0000   1.0000   1.0000   1.0000   1.0000   1.0000   1.0000
     1.0000   1.0000   1.0000   1.0000   1.0000   1.0000   1.0000   1.0000
     1.0000   1.0000   1.0000   0.0000   0.0000

          k = 0.0833 0.4330 0.1032 (  2841 PWs)   bands (ev):

   -77.2800 -77.2564 -40.6623 -40.6105 -40.5717 -40.5020 -40.4569 -40.4370
    13.5352  14.3336  14.6635  15.3527  16.0926  16.4283  16.7058  17.6281
    17.9453  17.9469  18.5988  23.3412  26.8833

     occupation numbers 
     1.0000   1.0000   1.0000   1.0000   1.0000   1.0000   1.0000   1.0000
     1.0000   1.0000   1.0000   1.0000   1.0000   1.0000   1.0000   1.0000
     1.0000   1.0000   1.0000   0.0000   0.0000

          k = 0.0833 0.4330 0.2065 (  2837 PWs)   bands (ev):

   -77.2750 -77.2614 -40.6764 -40.6407 -40.5262 -40.4892 -40.4639 -40.4440
    13.6218  14.2065  14.8495  15.3346  16.2000  16.6303  17.0845  17.3694
    17.8073  18.1121  18.6630  21.1833  27.5962

     occupation numbers 
     1.0000   1.0000   1.0000   1.0000   1.0000   1.0000   1.0000   1.0000
     1.0000   1.0000   1.0000   1.0000   1.0000   1.0000   1.0000   1.0000
     1.0000   1.0000   1.0000   0.0000   0.0000

          k = 0.0833 0.4330-0.3097 (  2830 PWs)   bands (ev):

   -77.2682 -77.2682 -40.6675 -40.6675 -40.4928 -40.4928 -40.4598 -40.4598
    13.8706  13.8706  15.1463  15.1463  16.6424  16.6424  17.0338  17.0338
    18.0627  18.0627  19.5030  19.5030  28.6450

     occupation numbers 
     1.0000   1.0000   1.0000   1.0000   1.0000   1.0000   1.0000   1.0000
     1.0000   1.0000   1.0000   1.0000   1.0000   1.0000   1.0000   1.0000
     1.0000   1.0000   0.0000   0.0000   0.0000

          k = 0.0833 0.5292 0.0000 (  2835 PWs)   bands (ev):

   -77.2733 -77.2542 -40.6671 -40.6158 -40.5873 -40.5171 -40.4780 -40.4406
    13.9999  14.1432  14.3178  15.9436  15.9664  16.2308  16.5742  18.0450
    18.1179  18.1436  19.8661  22.8141  28.1922

     occupation numbers 
     1.0000   1.0000   1.0000   1.0000   1.0000   1.0000   1.0000   1.0000
     1.0000   1.0000   1.0000   1.0000   1.0000   1.0000   1.0000   1.0000
     1.0000   1.0000   0.0000   0.0000   0.0000

          k = 0.0833 0.5292 0.1032 (  2842 PWs)   bands (ev):

   -77.2721 -77.2555 -40.6825 -40.6334 -40.5627 -40.5102 -40.4734 -40.4437
    13.7869  14.1592  14.7519  15.2980  16.0192  16.6238  16.9627  17.9111
    18.0765  18.1508  19.7977  22.5544  26.9170

     occupation numbers 
     1.0000   1.0000   1.0000   1.0000   1.0000   1.0000   1.0000   1.0000
     1.0000   1.0000   1.0000   1.0000   1.0000   1.0000   1.0000   1.0000
     1.0000   1.0000   0.0000   0.0000   0.0000

          k = 0.0833 0.5292 0.2065 (  2840 PWs)   bands (ev):

   -77.2686 -77.2590 -40.6973 -40.6665 -40.5259 -40.4900 -40.4766 -40.4494
    13.6981  14.1363  14.8786  15.1999  16.1938  16.9394  17.3625  17.6096
    18.0333  18.2289  19.8361  21.7006  26.1767

     occupation numbers 
     1.0000   1.0000   1.0000   1.0000   1.0000   1.0000   1.0000   1.0000
     1.0000   1.0000   1.0000   1.0000   1.0000   1.0000   1.0000   1.0000
     1.0000   1.0000   0.0000   0.0000   0.0000

          k = 0.0833 0.5292-0.3097 (  2842 PWs)   bands (ev):

   -77.2638 -77.2638 -40.6917 -40.6917 -40.4979 -40.4979 -40.4631 -40.4631
    13.8572  13.8572  15.0622  15.0622  16.7492  16.7492  17.4661  17.4661
    18.1037  18.1037  20.5754  20.5754  26.4490

     occupation numbers 
     1.0000   1.0000   1.0000   1.0000   1.0000   1.0000   1.0000   1.0000
     1.0000   1.0000   1.0000   1.0000   1.0000   1.0000   1.0000   1.0000
     1.0000   1.0000   0.0000   0.0000   0.0000

          k = 0.1667 0.2887 0.0000 (  2824 PWs)   bands (ev):

   -77.2963 -77.2576 -40.6555 -40.5613 -40.5519 -40.4761 -40.4333 -40.4310
    12.3778  14.6537  15.0196  15.1408  16.0657  16.2247  16.6496  16.9357
    17.4393  17.8204  18.0692  24.0336  25.9040

     occupation numbers 
     1.0000   1.0000   1.0000   1.0000   1.0000   1.0000   1.0000   1.0000
     1.0000   1.0000   1.0000   1.0000   1.0000   1.0000   1.0000   1.0000
     1.0000   1.0000   1.0000   0.0000   0.0000

          k = 0.1667 0.2887 0.1032 (  2823 PWs)   bands (ev):

   -77.2937 -77.2602 -40.6546 -40.5593 -40.5456 -40.4837 -40.4352 -40.4308
    12.5657  14.7509  14.8775  15.1945  16.0364  16.2351  16.5254  17.0165
    17.5599  17.6567  18.1239  22.1375  28.2708

     occupation numbers 
     1.0000   1.0000   1.0000   1.0000   1.0000   1.0000   1.0000   1.0000
     1.0000   1.0000   1.0000   1.0000   1.0000   1.0000   1.0000   1.0000
     1.0000   1.0000   1.0000   0.0000   0.0000

          k = 0.1667 0.2887 0.2065 (  2831 PWs)   bands (ev):

   -77.2866 -77.2673 -40.6442 -40.5852 -40.5119 -40.4865 -40.4453 -40.4364
    13.0804  14.4365  15.0158  15.3498  15.8597  16.0972  16.5203  17.1107
    17.6368  17.7643  18.1501  20.0926  31.6419

     occupation numbers 
     1.0000   1.0000   1.0000   1.0000   1.0000   1.0000   1.0000   1.0000
     1.0000   1.0000   1.0000   1.0000   1.0000   1.0000   1.0000   1.0000
     1.0000   1.0000   1.0000   0.0000   0.0000

          k = 0.1667 0.2887-0.3097 (  2846 PWs)   bands (ev):

   -77.2769 -77.2769 -40.6190 -40.6190 -40.4863 -40.4863 -40.4496 -40.4496
    13.7746  13.7746  15.3433  15.3433  15.8079  15.8079  16.8012  16.8012
    17.9077  17.9077  18.6454  18.6454  33.4140

     occupation numbers 
     1.0000   1.0000   1.0000   1.0000   1.0000   1.0000   1.0000   1.0000
     1.0000   1.0000   1.0000   1.0000   1.0000   1.0000   1.0000   1.0000
     1.0000   1.0000   1.0000   1.0000   0.0000

          k = 0.1667 0.3849 0.0000 (  2841 PWs)   bands (ev):

   -77.2839 -77.2548 -40.6210 -40.6074 -40.5852 -40.5040 -40.4542 -40.4514
    13.4773  14.6427  14.6553  15.1078  15.9086  16.3687  16.4565  17.2461
    17.8844  18.0665  18.6225  25.8933  26.2543

     occupation numbers 
     1.0000   1.0000   1.0000   1.0000   1.0000   1.0000   1.0000   1.0000
     1.0000   1.0000   1.0000   1.0000   1.0000   1.0000   1.0000   1.0000
     1.0000   1.0000   1.0000   0.0000   0.0000

          k = 0.1667 0.3849 0.1032 (  2837 PWs)   bands (ev):

   -77.2819 -77.2567 -40.6456 -40.6032 -40.5612 -40.5104 -40.4582 -40.4446
    13.5574  14.5853  14.7462  15.1920  15.9629  16.3487  16.4097  17.2783
    17.8459  17.9746  18.7132  23.4279  28.3220

     occupation numbers 
     1.0000   1.0000   1.0000   1.0000   1.0000   1.0000   1.0000   1.0000
     1.0000   1.0000   1.0000   1.0000   1.0000   1.0000   1.0000   1.0000
     1.0000   1.0000   1.0000   0.0000   0.0000

          k = 0.1667 0.3849 0.2065 (  2830 PWs)   bands (ev):

   -77.2766 -77.2621 -40.6581 -40.6251 -40.5242 -40.5072 -40.4659 -40.4426
    13.7754  14.3833  14.9965  15.4303  15.8816  16.1781  16.5449  17.2413
    17.7451  18.1288  18.8968  21.2048  29.2922

     occupation numbers 
     1.0000   1.0000   1.0000   1.0000   1.0000   1.0000   1.0000   1.0000
     1.0000   1.0000   1.0000   1.0000   1.0000   1.0000   1.0000   1.0000
     1.0000   1.0000   0.0000   0.0000   0.0000

          k = 0.1667 0.3849-0.3097 (  2834 PWs)   bands (ev):

   -77.2693 -77.2693 -40.6491 -40.6491 -40.5063 -40.5063 -40.4562 -40.4562
    14.0776  14.0776  15.3436  15.3436  15.9580  15.9580  16.8215  16.8215
    18.1183  18.1183  19.5965  19.5965  30.4517

     occupation numbers 
     1.0000   1.0000   1.0000   1.0000   1.0000   1.0000   1.0000   1.0000
     1.0000   1.0000   1.0000   1.0000   1.0000   1.0000   1.0000   1.0000
     1.0000   1.0000   0.0000   0.0000   0.0000

          k = 0.1667 0.4811 0.0000 (  2849 PWs)   bands (ev):

   -77.2734 -77.2542 -40.6443 -40.6013 -40.5877 -40.5304 -40.4776 -40.4652
    14.1781  14.4302  14.4426  15.4129  15.8657  16.2465  16.5710  17.6571
    18.0635  18.1055  19.7938  24.4705  27.9069

     occupation numbers 
     1.0000   1.0000   1.0000   1.0000   1.0000   1.0000   1.0000   1.0000
     1.0000   1.0000   1.0000   1.0000   1.0000   1.0000   1.0000   1.0000
     1.0000   1.0000   0.0000   0.0000   0.0000

          k = 0.1667 0.4811 0.1032 (  2846 PWs)   bands (ev):

   -77.2721 -77.2555 -40.6599 -40.6214 -40.5630 -40.5249 -40.4795 -40.4578
    14.0244  14.5069  14.6922  15.2370  15.9167  16.3779  16.6388  17.6411
    17.8638  18.1690  19.8776  23.9242  26.7060

     occupation numbers 
     1.0000   1.0000   1.0000   1.0000   1.0000   1.0000   1.0000   1.0000
     1.0000   1.0000   1.0000   1.0000   1.0000   1.0000   1.0000   1.0000
     1.0000   1.0000   0.0000   0.0000   0.0000

          k = 0.1667 0.4811 0.2065 (  2841 PWs)   bands (ev):

   -77.2686 -77.2590 -40.6760 -40.6503 -40.5429 -40.5080 -40.4799 -40.4491
    13.9859  14.4290  14.8928  15.4446  15.8079  16.4996  16.8548  17.3310
    17.8312  18.2477  20.1899  22.4069  26.7743

     occupation numbers 
     1.0000   1.0000   1.0000   1.0000   1.0000   1.0000   1.0000   1.0000
     1.0000   1.0000   1.0000   1.0000   1.0000   1.0000   1.0000   1.0000
     1.0000   1.0000   0.0000   0.0000   0.0000

          k = 0.1667 0.4811-0.3097 (  2830 PWs)   bands (ev):

   -77.2638 -77.2638 -40.6726 -40.6726 -40.5226 -40.5226 -40.4578 -40.4578
    14.1445  14.1445  15.2433  15.2433  16.2201  16.2201  17.0104  17.0104
    18.1234  18.1234  20.9985  20.9985  27.6555

     occupation numbers 
     1.0000   1.0000   1.0000   1.0000   1.0000   1.0000   1.0000   1.0000
     1.0000   1.0000   1.0000   1.0000   1.0000   1.0000   1.0000   1.0000
     1.0000   1.0000   0.0000   0.0000   0.0000

          k = 0.1667 0.5774 0.0000 (  2852 PWs)   bands (ev):

   -77.2687 -77.2548 -40.6576 -40.6060 -40.5708 -40.5415 -40.4909 -40.4701
    14.3445  14.3539  14.3547  15.6324  15.8840  16.1362  16.6576  17.9361
    18.0620  18.0830  21.0499  22.6297  29.0426

     occupation numbers 
     1.0000   1.0000   1.0000   1.0000   1.0000   1.0000   1.0000   1.0000
     1.0000   1.0000   1.0000   1.0000   1.0000   1.0000   1.0000   1.0000
     1.0000   1.0000   0.0000   0.0000   0.0000

          k = 0.1667 0.5774 0.1032 (  2855 PWs)   bands (ev):

   -77.2678 -77.2557 -40.6699 -40.6247 -40.5664 -40.5200 -40.4926 -40.4633
    14.0503  14.4209  14.8587  15.2185  15.8388  16.4972  16.7299  17.8349
    17.9324  18.1377  21.1491  22.5793  28.0058

     occupation numbers 
     1.0000   1.0000   1.0000   1.0000   1.0000   1.0000   1.0000   1.0000
     1.0000   1.0000   1.0000   1.0000   1.0000   1.0000   1.0000   1.0000
     1.0000   1.0000   0.0000   0.0000   0.0000

          k = 0.1667 0.5774 0.2065 (  2844 PWs)   bands (ev):

   -77.2652 -77.2582 -40.6845 -40.6581 -40.5510 -40.5070 -40.4835 -40.4525
    13.9836  14.4408  14.9302  15.4022  15.7237  16.7016  16.9770  17.4018
    17.9485  18.1781  21.4551  22.3780  26.7236

     occupation numbers 
     1.0000   1.0000   1.0000   1.0000   1.0000   1.0000   1.0000   1.0000
     1.0000   1.0000   1.0000   1.0000   1.0000   1.0000   1.0000   1.0000
     1.0000   1.0000   0.0000   0.0000   0.0000

          k = 0.1667 0.5774-0.3097 (  2830 PWs)   bands (ev):

   -77.2617 -77.2617 -40.6813 -40.6813 -40.5290 -40.5290 -40.4579 -40.4579
    14.1473  14.1473  15.2028  15.2028  16.2607  16.2607  17.2145  17.2145
    18.0613  18.0613  21.9477  21.9477  26.2373

     occupation numbers 
     1.0000   1.0000   1.0000   1.0000   1.0000   1.0000   1.0000   1.0000
     1.0000   1.0000   1.0000   1.0000   1.0000   1.0000   1.0000   1.0000
     1.0000   1.0000   0.0000   0.0000   0.0000

          k = 0.2500 0.4330 0.0000 (  2858 PWs)   bands (ev):

   -77.2734 -77.2541 -40.6243 -40.6028 -40.5879 -40.5309 -40.4835 -40.4775
    14.3079  14.4948  14.8374  14.8880  15.7996  16.2630  16.5786  17.4272
    18.0223  18.1112  19.8031  26.2332  26.9879

     occupation numbers 
     1.0000   1.0000   1.0000   1.0000   1.0000   1.0000   1.0000   1.0000
     1.0000   1.0000   1.0000   1.0000   1.0000   1.0000   1.0000   1.0000
     1.0000   1.0000   0.0000   0.0000   0.0000

          k = 0.2500 0.4330 0.1032 (  2851 PWs)   bands (ev):

   -77.2721 -77.2554 -40.6369 -40.6284 -40.5480 -40.5445 -40.4863 -40.4625
    14.3145  14.4459  14.9008  15.0209  15.9511  16.1165  16.5701  17.4613
    17.8114  18.1770  19.9301  24.7181  27.2733

     occupation numbers 
     1.0000   1.0000   1.0000   1.0000   1.0000   1.0000   1.0000   1.0000
     1.0000   1.0000   1.0000   1.0000   1.0000   1.0000   1.0000   1.0000
     1.0000   1.0000   0.0000   0.0000   0.0000

          k = 0.2500 0.4330 0.2065 (  2838 PWs)   bands (ev):

   -77.2686 -77.2590 -40.6598 -40.6445 -40.5491 -40.5246 -40.4792 -40.4493
    14.3191  14.3920  15.0699  15.4106  15.7877  16.0628  16.6010  17.2441
    17.8003  18.2550  20.3082  22.6886  28.0611

     occupation numbers 
     1.0000   1.0000   1.0000   1.0000   1.0000   1.0000   1.0000   1.0000
     1.0000   1.0000   1.0000   1.0000   1.0000   1.0000   1.0000   1.0000
     1.0000   1.0000   0.0000   0.0000   0.0000

          k = 0.2500 0.4330-0.3097 (  2840 PWs)   bands (ev):

   -77.2638 -77.2638 -40.6607 -40.6607 -40.5362 -40.5362 -40.4562 -40.4562
    14.3464  14.3464  15.3946  15.3946  15.8437  15.8437  16.8110  16.8110
    18.1431  18.1431  21.1580  21.1580  29.0931

     occupation numbers 
     1.0000   1.0000   1.0000   1.0000   1.0000   1.0000   1.0000   1.0000
     1.0000   1.0000   1.0000   1.0000   1.0000   1.0000   1.0000   1.0000
     1.0000   1.0000   0.0000   0.0000   0.0000

          k = 0.2500 0.5292 0.0000 (  2859 PWs)   bands (ev):

   -77.2655 -77.2556 -40.6374 -40.5935 -40.5606 -40.5582 -40.5040 -40.5014
    14.4193  14.6030  14.7024  15.1978  15.8182  16.0622  16.7474  17.7044
    17.9962  18.0546  21.4535  24.0169  26.3374

     occupation numbers 
     1.0000   1.0000   1.0000   1.0000   1.0000   1.0000   1.0000   1.0000
     1.0000   1.0000   1.0000   1.0000   1.0000   1.0000   1.0000   1.0000
     1.0000   1.0000   0.0000   0.0000   0.0000

          k = 0.2500 0.5292 0.1032 (  2852 PWs)   bands (ev):

   -77.2649 -77.2563 -40.6440 -40.6173 -40.5796 -40.5273 -40.5082 -40.4786
    14.3617  14.7323  14.8281  15.0978  15.8462  16.0615  16.7520  17.7124
    17.7859  18.0996  21.6433  24.0374  26.3820

     occupation numbers 
     1.0000   1.0000   1.0000   1.0000   1.0000   1.0000   1.0000   1.0000
     1.0000   1.0000   1.0000   1.0000   1.0000   1.0000   1.0000   1.0000
     1.0000   1.0000   0.0000   0.0000   0.0000

          k = 0.2500 0.5292 0.2065 (  2845 PWs)   bands (ev):

   -77.2631 -77.2581 -40.6605 -40.6457 -40.5782 -40.5363 -40.4771 -40.4567
    14.3799  14.7342  14.9934  15.2883  15.7113  16.0771  16.7960  17.2734
    17.8690  18.1410  22.1426  23.7482  26.3251

     occupation numbers 
     1.0000   1.0000   1.0000   1.0000   1.0000   1.0000   1.0000   1.0000
     1.0000   1.0000   1.0000   1.0000   1.0000   1.0000   1.0000   1.0000
     1.0000   1.0000   0.0000   0.0000   0.0000

          k = 0.2500 0.5292-0.3097 (  2838 PWs)   bands (ev):

   -77.2606 -77.2606 -40.6633 -40.6633 -40.5586 -40.5586 -40.4552 -40.4552
    14.5185  14.5185  15.2890  15.2890  15.8504  15.8504  16.9267  16.9267
    18.0522  18.0522  22.9111  22.9111  26.8720

     occupation numbers 
     1.0000   1.0000   1.0000   1.0000   1.0000   1.0000   1.0000   1.0000
     1.0000   1.0000   1.0000   1.0000   1.0000   1.0000   1.0000   1.0000
     1.0000   1.0000   0.0000   0.0000   0.0000

          k = 0.3333 0.5774 0.0000 (  2850 PWs)   bands (ev):

   -77.2594 -77.2594 -40.6285 -40.5794 -40.5794 -40.5288 -40.5288 -40.5279
    14.4265  14.7981  14.7981  15.0833  15.8929  15.8929  16.8467  17.8513
    17.8513  17.9693  23.1848  24.0155  24.0155

     occupation numbers 
     1.0000   1.0000   1.0000   1.0000   1.0000   1.0000   1.0000   1.0000
     1.0000   1.0000   1.0000   1.0000   1.0000   1.0000   1.0000   1.0000
     1.0000   1.0000   0.0000   0.0000   0.0000

          k = 0.3333 0.5774 0.1032 (  2847 PWs)   bands (ev):

   -77.2594 -77.2594 -40.6218 -40.6084 -40.6084 -40.5346 -40.4996 -40.4996
    14.5220  14.8224  14.8224  15.1033  15.8661  15.8661  16.8182  17.7306
    17.8915  17.8915  23.5888  24.0900  24.0900

     occupation numbers 
     1.0000   1.0000   1.0000   1.0000   1.0000   1.0000   1.0000   1.0000
     1.0000   1.0000   1.0000   1.0000   1.0000   1.0000   1.0000   1.0000
     1.0000   1.0000   0.0000   0.0000   0.0000

          k = 0.3333 0.5774 0.2065 (  2838 PWs)   bands (ev):

   -77.2594 -77.2594 -40.6411 -40.6411 -40.6035 -40.5531 -40.4667 -40.4667
    14.7660  14.8694  14.8694  15.1199  15.8190  15.8190  16.7801  17.2435
    17.9678  17.9678  24.2750  24.2750  24.6199

     occupation numbers 
     1.0000   1.0000   1.0000   1.0000   1.0000   1.0000   1.0000   1.0000
     1.0000   1.0000   1.0000   1.0000   1.0000   1.0000   1.0000   1.0000
     1.0000   1.0000   0.0000   0.0000   0.0000

          k = 0.3333 0.5774-0.3097 (  2838 PWs)   bands (ev):

   -77.2594 -77.2594 -40.6534 -40.6534 -40.5783 -40.5783 -40.4542 -40.4542
    14.8920  14.8920  15.0180  15.0180  15.7988  15.7988  16.8779  16.8779
    18.0039  18.0039  24.3944  24.3944  26.0348

     occupation numbers 
     1.0000   1.0000   1.0000   1.0000   1.0000   1.0000   1.0000   1.0000
     1.0000   1.0000   1.0000   1.0000   1.0000   1.0000   1.0000   1.0000
     1.0000   1.0000   0.0000   0.0000   0.0000

 ------ SPIN DOWN ----------


          k = 0.0000 0.0000 0.0000 (  2827 PWs)   bands (ev):

   -75.2146 -75.1519 -38.6933 -38.3770 -38.3770 -38.3277 -38.3243 -38.3243
     9.7745  14.5548  17.8392  17.8627  17.8627  18.2383  18.2383  18.5216
    18.6495  18.6495  19.8984  19.8984  26.2307

     occupation numbers 
     1.0000   1.0000   1.0000   1.0000   1.0000   1.0000   1.0000   1.0000
     1.0000   1.0000   1.0000   1.0000   1.0000   1.0000   1.0000   1.0000
     1.0000   1.0000   0.0000   0.0000   0.0000

          k = 0.0000 0.0000 0.1032 (  2833 PWs)   bands (ev):

   -75.2105 -75.1561 -38.6692 -38.3735 -38.3735 -38.3526 -38.3278 -38.3278
    10.0551  14.3246  17.7446  17.7919  17.7919  17.9281  18.1512  18.1512
    18.8342  18.8342  19.8838  19.8838  27.5549

     occupation numbers 
     1.0000   1.0000   1.0000   1.0000   1.0000   1.0000   1.0000   1.0000
     1.0000   1.0000   1.0000   1.0000   1.0000   1.0000   1.0000   1.0000
     0.0000   0.0000   0.0000   0.0000   0.0000

          k = 0.0000 0.0000 0.2065 (  2852 PWs)   bands (ev):

   -75.1990 -75.1677 -38.6030 -38.4202 -38.3638 -38.3638 -38.3375 -38.3375
    10.8663  13.4401  17.2817  17.5045  17.7317  17.7317  17.9607  17.9607
    19.2028  19.2028  19.7897  19.7897  30.5492

     occupation numbers 
     1.0000   1.0000   1.0000   1.0000   1.0000   1.0000   1.0000   1.0000
     1.0000   1.0000   1.0000   1.0000   1.0000   1.0000   1.0000   1.0000
     0.0000   0.0000   0.0000   0.0000   0.0000

          k = 0.0000 0.0000-0.3097 (  2834 PWs)   bands (ev):

   -75.1833 -75.1833 -38.5120 -38.5120 -38.3507 -38.3507 -38.3507 -38.3507
    12.0944  12.0944  17.2573  17.2573  17.7926  17.7926  17.7926  17.7926
    19.5558  19.5558  19.5558  19.5558  34.2203

     occupation numbers 
     1.0000   1.0000   1.0000   1.0000   1.0000   1.0000   1.0000   1.0000
     1.0000   1.0000   1.0000   1.0000   1.0000   1.0000   1.0000   1.0000
     0.0000   0.0000   0.0000   0.0000   0.0000

          k = 0.0000 0.0962 0.0000 (  2829 PWs)   bands (ev):

   -75.2112 -75.1504 -38.6854 -38.3942 -38.3826 -38.3422 -38.3310 -38.3271
    10.0180  14.7207  17.5737  17.8926  17.9890  18.0690  18.1742  18.3500
    18.5650  18.5814  19.9352  20.7450  26.2467

     occupation numbers 
     1.0000   1.0000   1.0000   1.0000   1.0000   1.0000   1.0000   1.0000
     1.0000   1.0000   1.0000   1.0000   1.0000   1.0000   1.0000   1.0000
     1.0000   1.0000   0.0000   0.0000   0.0000

          k = 0.0000 0.0962 0.1032 (  2823 PWs)   bands (ev):

   -75.2071 -75.1545 -38.6626 -38.3901 -38.3789 -38.3646 -38.3361 -38.3308
    10.2948  14.5039  17.4583  17.5710  17.8642  17.9004  18.1902  18.2547
    18.7807  18.7994  19.9114  20.3972  27.6369

     occupation numbers 
     1.0000   1.0000   1.0000   1.0000   1.0000   1.0000   1.0000   1.0000
     1.0000   1.0000   1.0000   1.0000   1.0000   1.0000   1.0000   1.0000
     0.0100   0.0000   0.0000   0.0000   0.0000

          k = 0.0000 0.0962 0.2065 (  2839 PWs)   bands (ev):

   -75.1960 -75.1656 -38.6003 -38.4282 -38.3787 -38.3688 -38.3477 -38.3410
    11.0950  13.6358  17.0514  17.4898  17.6255  17.8317  17.9921  18.0628
    19.1715  19.2085  19.7968  19.9851  30.6857

     occupation numbers 
     1.0000   1.0000   1.0000   1.0000   1.0000   1.0000   1.0000   1.0000
     1.0000   1.0000   1.0000   1.0000   1.0000   1.0000   1.0000   1.0000
     0.0000   0.0000   0.0000   0.0000   0.0000

          k = 0.0000 0.0962-0.3097 (  2840 PWs)   bands (ev):

   -75.1808 -75.1808 -38.5145 -38.5145 -38.3632 -38.3632 -38.3549 -38.3549
    12.3064  12.3064  17.1558  17.1558  17.7619  17.7619  17.8933  17.8933
    19.5419  19.5419  19.6204  19.6204  34.3807

     occupation numbers 
     1.0000   1.0000   1.0000   1.0000   1.0000   1.0000   1.0000   1.0000
     1.0000   1.0000   1.0000   1.0000   1.0000   1.0000   1.0000   1.0000
     0.0000   0.0000   0.0000   0.0000   0.0000

          k = 0.0000 0.1925 0.0000 (  2823 PWs)   bands (ev):

   -75.2015 -75.1463 -38.6627 -38.4414 -38.3977 -38.3905 -38.3410 -38.3350
    10.7265  15.1472  17.0488  17.2126  17.9455  18.3480  18.3582  18.4040
    18.4164  18.6640  20.0128  22.2140  26.3120

     occupation numbers 
     1.0000   1.0000   1.0000   1.0000   1.0000   1.0000   1.0000   1.0000
     1.0000   1.0000   1.0000   1.0000   1.0000   1.0000   1.0000   1.0000
     1.0000   1.0000   0.0000   0.0000   0.0000

          k = 0.0000 0.1925 0.1032 (  2828 PWs)   bands (ev):

   -75.1978 -75.1500 -38.6446 -38.4354 -38.4078 -38.3935 -38.3483 -38.3392
    10.9901  14.9746  16.7883  17.2518  17.8295  18.1276  18.1413  18.5191
    18.7499  18.8109  19.9685  21.4206  27.9133

     occupation numbers 
     1.0000   1.0000   1.0000   1.0000   1.0000   1.0000   1.0000   1.0000
     1.0000   1.0000   1.0000   1.0000   1.0000   1.0000   1.0000   1.0000
     0.8085   0.0000   0.0000   0.0000   0.0000

          k = 0.0000 0.1925 0.2065 (  2830 PWs)   bands (ev):

   -75.1877 -75.1601 -38.5950 -38.4591 -38.4159 -38.3821 -38.3671 -38.3507
    11.7508  14.1615  16.6559  17.3357  17.4636  17.9375  18.0783  18.3463
    19.1348  19.2694  19.8106  20.4610  31.0969

     occupation numbers 
     1.0000   1.0000   1.0000   1.0000   1.0000   1.0000   1.0000   1.0000
     1.0000   1.0000   1.0000   1.0000   1.0000   1.0000   1.0000   1.0000
     0.0000   0.0000   0.0000   0.0000   0.0000

          k = 0.0000 0.1925-0.3097 (  2844 PWs)   bands (ev):

   -75.1739 -75.1739 -38.5269 -38.5269 -38.3919 -38.3919 -38.3664 -38.3664
    12.8989  12.8989  16.9465  16.9465  17.6511  17.6511  18.1630  18.1630
    19.5197  19.5197  19.8022  19.8022  34.8184

     occupation numbers 
     1.0000   1.0000   1.0000   1.0000   1.0000   1.0000   1.0000   1.0000
     1.0000   1.0000   1.0000   1.0000   1.0000   1.0000   1.0000   1.0000
     0.0000   0.0000   0.0000   0.0000   0.0000

[...]
    20.0556  20.1223  21.2445  23.7571  28.7004

     occupation numbers 
     1.0000   1.0000   1.0000   1.0000   1.0000   1.0000   1.0000   1.0000
     1.0000   1.0000   1.0000   1.0000   1.0000   1.0000   1.0000   0.0000
     0.0000   0.0000   0.0000   0.0000   0.0000

          k = 0.0833 0.5292 0.1032 (  2842 PWs)   bands (ev):

   -75.1545 -75.1367 -38.6446 -38.5911 -38.5096 -38.4564 -38.4121 -38.3840
    14.7303  15.3577  15.9048  16.4359  17.6722  18.1891  18.2433  19.8415
    20.0076  20.0966  21.1067  23.4215  27.6394

     occupation numbers 
     1.0000   1.0000   1.0000   1.0000   1.0000   1.0000   1.0000   1.0000
     1.0000   1.0000   1.0000   1.0000   1.0000   1.0000   1.0000   0.0000
     0.0000   0.0000   0.0000   0.0000   0.0000

          k = 0.0833 0.5292 0.2065 (  2840 PWs)   bands (ev):

   -75.1507 -75.1404 -38.6602 -38.6267 -38.4710 -38.4332 -38.4177 -38.3887
    14.7097  15.1952  16.2090  16.5322  17.7269  18.4948  18.7006  19.3706
    19.9567  20.1889  20.8871  22.4859  27.0849

     occupation numbers 
     1.0000   1.0000   1.0000   1.0000   1.0000   1.0000   1.0000   1.0000
     1.0000   1.0000   1.0000   1.0000   1.0000   1.0000   1.0000   0.0000
     0.0000   0.0000   0.0000   0.0000   0.0000

          k = 0.0833 0.5292-0.3097 (  2842 PWs)   bands (ev):

   -75.1456 -75.1456 -38.6541 -38.6541 -38.4413 -38.4413 -38.4033 -38.4033
    14.8898  14.8898  16.4828  16.4828  18.2317  18.2317  19.0106  19.0106
    20.0388  20.0388  21.4264  21.4264  27.3397

     occupation numbers 
     1.0000   1.0000   1.0000   1.0000   1.0000   1.0000   1.0000   1.0000
     1.0000   1.0000   1.0000   1.0000   1.0000   1.0000   0.0000   0.0000
     0.0000   0.0000   0.0000   0.0000   0.0000

          k = 0.1667 0.2887 0.0000 (  2824 PWs)   bands (ev):

   -75.1806 -75.1389 -38.6100 -38.5127 -38.5032 -38.4197 -38.3708 -38.3677
    12.4502  15.8583  16.1942  16.5559  17.7278  17.8218  18.3096  18.7240
    19.2626  19.6274  20.0365  24.8106  26.6698

     occupation numbers 
     1.0000   1.0000   1.0000   1.0000   1.0000   1.0000   1.0000   1.0000
     1.0000   1.0000   1.0000   1.0000   1.0000   1.0000   1.0000   0.9998
     0.0000   0.0000   0.0000   0.0000   0.0000

          k = 0.1667 0.2887 0.1032 (  2823 PWs)   bands (ev):

   -75.1778 -75.1417 -38.6099 -38.5109 -38.4948 -38.4272 -38.3753 -38.3661
    12.6647  15.7950  16.0919  16.6229  17.6455  17.8487  18.1960  18.8026
    19.3929  19.5035  20.0455  23.1547  28.8716

     occupation numbers 
     1.0000   1.0000   1.0000   1.0000   1.0000   1.0000   1.0000   1.0000
     1.0000   1.0000   1.0000   1.0000   1.0000   1.0000   1.0000   0.0000
     0.0000   0.0000   0.0000   0.0000   0.0000

          k = 0.1667 0.2887 0.2065 (  2831 PWs)   bands (ev):

   -75.1702 -75.1493 -38.5999 -38.5379 -38.4570 -38.4300 -38.3862 -38.3736
    13.2728  15.1077  16.3467  16.7939  17.3935  17.6772  18.2510  18.8607
    19.5082  19.6236  19.9972  21.4206  32.1304

     occupation numbers 
     1.0000   1.0000   1.0000   1.0000   1.0000   1.0000   1.0000   1.0000
     1.0000   1.0000   1.0000   1.0000   1.0000   1.0000   1.0000   0.0000
     0.0000   0.0000   0.0000   0.0000   0.0000

          k = 0.1667 0.2887-0.3097 (  2846 PWs)   bands (ev):

   -75.1598 -75.1598 -38.5735 -38.5735 -38.4290 -38.4290 -38.3899 -38.3899
    14.1586  14.1586  16.7297  16.7297  17.3555  17.3555  18.5599  18.5599
    19.8181  19.8181  20.2322  20.2322  33.8400

     occupation numbers 
     1.0000   1.0000   1.0000   1.0000   1.0000   1.0000   1.0000   1.0000
     1.0000   1.0000   1.0000   1.0000   1.0000   1.0000   1.0000   1.0000
     0.0000   0.0000   0.0000   0.0000   0.0000

          k = 0.1667 0.3849 0.0000 (  2841 PWs)   bands (ev):

   -75.1672 -75.1359 -38.5722 -38.5635 -38.5390 -38.4501 -38.3929 -38.3904
    13.7045  15.8860  15.9327  16.3598  17.5271  17.9598  18.0766  19.0667
    19.7729  20.0333  20.3515  26.5861  26.8805

     occupation numbers 
     1.0000   1.0000   1.0000   1.0000   1.0000   1.0000   1.0000   1.0000
     1.0000   1.0000   1.0000   1.0000   1.0000   1.0000   1.0000   0.0000
     0.0000   0.0000   0.0000   0.0000   0.0000

          k = 0.1667 0.3849 0.1032 (  2837 PWs)   bands (ev):

   -75.1651 -75.1380 -38.6018 -38.5585 -38.5102 -38.4564 -38.3996 -38.3816
    13.8540  15.7490  16.0383  16.4649  17.5093  17.9161  18.0350  19.1003
    19.7604  19.8766  20.4637  24.2514  28.9447

     occupation numbers 
     1.0000   1.0000   1.0000   1.0000   1.0000   1.0000   1.0000   1.0000
     1.0000   1.0000   1.0000   1.0000   1.0000   1.0000   1.0000   0.0000
     0.0000   0.0000   0.0000   0.0000   0.0000

          k = 0.1667 0.3849 0.2065 (  2830 PWs)   bands (ev):

   -75.1594 -75.1438 -38.6162 -38.5817 -38.4700 -38.4520 -38.4082 -38.3799
    14.2630  15.3677  16.3274  16.6865  17.3782  17.6275  18.2240  19.0451
    19.6191  20.0637  20.5468  22.2426  29.8992

     occupation numbers 
     1.0000   1.0000   1.0000   1.0000   1.0000   1.0000   1.0000   1.0000
     1.0000   1.0000   1.0000   1.0000   1.0000   1.0000   1.0000   0.0000
     0.0000   0.0000   0.0000   0.0000   0.0000

          k = 0.1667 0.3849-0.3097 (  2834 PWs)   bands (ev):

   -75.1516 -75.1516 -38.6071 -38.6071 -38.4511 -38.4511 -38.3959 -38.3959
    14.8206  14.8206  16.6763  16.6763  17.3503  17.3503  18.5894  18.5894
    20.0637  20.0637  20.9042  20.9042  31.0160

     occupation numbers 
     1.0000   1.0000   1.0000   1.0000   1.0000   1.0000   1.0000   1.0000
     1.0000   1.0000   1.0000   1.0000   1.0000   1.0000   1.0000   1.0000
     0.0000   0.0000   0.0000   0.0000   0.0000

          k = 0.1667 0.4811 0.0000 (  2849 PWs)   bands (ev):

   -75.1559 -75.1352 -38.6037 -38.5565 -38.5358 -38.4789 -38.4158 -38.4079
    14.8102  15.7047  15.7124  16.4061  17.4682  17.8156  18.1969  19.5206
    20.0294  20.0370  21.2616  25.2289  28.4954

     occupation numbers 
     1.0000   1.0000   1.0000   1.0000   1.0000   1.0000   1.0000   1.0000
     1.0000   1.0000   1.0000   1.0000   1.0000   1.0000   1.0000   0.0000
     0.0000   0.0000   0.0000   0.0000   0.0000

          k = 0.1667 0.4811 0.1032 (  2846 PWs)   bands (ev):

   -75.1545 -75.1366 -38.6196 -38.5778 -38.5111 -38.4716 -38.4215 -38.3968
    14.8268  15.6612  15.8798  16.4449  17.4851  17.7977  18.2525  19.5075
    19.7893  20.1133  21.3142  24.6238  27.4689

     occupation numbers 
     1.0000   1.0000   1.0000   1.0000   1.0000   1.0000   1.0000   1.0000
     1.0000   1.0000   1.0000   1.0000   1.0000   1.0000   1.0000   0.0000
     0.0000   0.0000   0.0000   0.0000   0.0000

          k = 0.1667 0.4811 0.2065 (  2841 PWs)   bands (ev):

   -75.1508 -75.1404 -38.6366 -38.6090 -38.4909 -38.4526 -38.4220 -38.3870
    14.9314  15.4586  16.2188  16.7298  17.3192  17.7723  18.4578  19.1722
    19.7249  20.2115  21.4662  23.1822  27.5855

     occupation numbers 
     1.0000   1.0000   1.0000   1.0000   1.0000   1.0000   1.0000   1.0000
     1.0000   1.0000   1.0000   1.0000   1.0000   1.0000   1.0000   0.0000
     0.0000   0.0000   0.0000   0.0000   0.0000

          k = 0.1667 0.4811-0.3097 (  2830 PWs)   bands (ev):

   -75.1456 -75.1456 -38.6329 -38.6329 -38.4693 -38.4693 -38.3968 -38.3968
    15.1610  15.1610  16.6380  16.6380  17.5007  17.5007  18.7341  18.7341
    20.0560  20.0560  21.9983  21.9983  28.3964

     occupation numbers 
     1.0000   1.0000   1.0000   1.0000   1.0000   1.0000   1.0000   1.0000
     1.0000   1.0000   1.0000   1.0000   1.0000   1.0000   0.9940   0.9940
     0.0000   0.0000   0.0000   0.0000   0.0000

          k = 0.1667 0.5774 0.0000 (  2852 PWs)   bands (ev):

   -75.1509 -75.1359 -38.6183 -38.5616 -38.5173 -38.4909 -38.4303 -38.4132
    15.2772  15.5748  15.6457  16.4664  17.5078  17.6587  18.3032  19.8391
    20.0185  20.0276  22.1655  23.6597  29.4650

     occupation numbers 
     1.0000   1.0000   1.0000   1.0000   1.0000   1.0000   1.0000   1.0000
     1.0000   1.0000   1.0000   1.0000   1.0000   1.0000   1.0000   0.0000
     0.0000   0.0000   0.0000   0.0000   0.0000

          k = 0.1667 0.5774 0.1032 (  2855 PWs)   bands (ev):

   -75.1499 -75.1369 -38.6309 -38.5814 -38.5153 -38.4655 -38.4349 -38.4035
    15.1235  15.6218  16.0246  16.2906  17.4402  17.8346  18.3680  19.7583
    19.8364  20.0827  22.1961  23.5615  28.6109

     occupation numbers 
     1.0000   1.0000   1.0000   1.0000   1.0000   1.0000   1.0000   1.0000
     1.0000   1.0000   1.0000   1.0000   1.0000   1.0000   1.0000   0.0000
     0.0000   0.0000   0.0000   0.0000   0.0000

          k = 0.1667 0.5774 0.2065 (  2844 PWs)   bands (ev):

   -75.1471 -75.1396 -38.6462 -38.6174 -38.4999 -38.4521 -38.4248 -38.3907
    15.0825  15.5180  16.2835  16.6443  17.2286  17.9476  18.6062  19.2459
    19.8603  20.1279  22.3257  23.2355  27.5299

     occupation numbers 
     1.0000   1.0000   1.0000   1.0000   1.0000   1.0000   1.0000   1.0000
     1.0000   1.0000   1.0000   1.0000   1.0000   1.0000   1.0000   0.0000
     0.0000   0.0000   0.0000   0.0000   0.0000

          k = 0.1667 0.5774-0.3097 (  2830 PWs)   bands (ev):

   -75.1434 -75.1434 -38.6426 -38.6426 -38.4762 -38.4762 -38.3966 -38.3966
    15.2414  15.2414  16.6282  16.6282  17.5528  17.5528  18.9005  18.9005
    19.9905  19.9905  22.7234  22.7234  27.1378

     occupation numbers 
     1.0000   1.0000   1.0000   1.0000   1.0000   1.0000   1.0000   1.0000
     1.0000   1.0000   1.0000   1.0000   1.0000   1.0000   0.0000   0.0000
     0.0000   0.0000   0.0000   0.0000   0.0000

          k = 0.2500 0.4330 0.0000 (  2858 PWs)   bands (ev):

   -75.1560 -75.1352 -38.5820 -38.5580 -38.5360 -38.4796 -38.4278 -38.4156
    14.8181  15.7791  16.0578  16.0800  17.3761  17.8413  18.2005  19.2782
    19.9821  20.0412  21.3002  26.8014  27.6066

     occupation numbers 
     1.0000   1.0000   1.0000   1.0000   1.0000   1.0000   1.0000   1.0000
     1.0000   1.0000   1.0000   1.0000   1.0000   1.0000   1.0000   0.0000
     0.0000   0.0000   0.0000   0.0000   0.0000

          k = 0.2500 0.4330 0.1032 (  2851 PWs)   bands (ev):

   -75.1546 -75.1366 -38.5933 -38.5862 -38.4947 -38.4934 -38.4308 -38.4004
    14.8987  15.6971  16.1272  16.2695  17.4233  17.6640  18.1991  19.3128
    19.7320  20.1222  21.4069  25.3712  27.8976

     occupation numbers 
     1.0000   1.0000   1.0000   1.0000   1.0000   1.0000   1.0000   1.0000
     1.0000   1.0000   1.0000   1.0000   1.0000   1.0000   1.0000   0.0000
     0.0000   0.0000   0.0000   0.0000   0.0000

          k = 0.2500 0.4330 0.2065 (  2838 PWs)   bands (ev):

   -75.1508 -75.1404 -38.6184 -38.6028 -38.4984 -38.4709 -38.4211 -38.3868
    15.1042  15.5569  16.3526  16.6366  17.2764  17.4027  18.2731  19.0742
    19.6841  20.2201  21.6455  23.5025  28.6849

     occupation numbers 
     1.0000   1.0000   1.0000   1.0000   1.0000   1.0000   1.0000   1.0000
     1.0000   1.0000   1.0000   1.0000   1.0000   1.0000   1.0000   0.0000
     0.0000   0.0000   0.0000   0.0000   0.0000

          k = 0.2500 0.4330-0.3097 (  2840 PWs)   bands (ev):

   -75.1456 -75.1456 -38.6198 -38.6198 -38.4845 -38.4845 -38.3949 -38.3949
    15.3511  15.3511  16.6997  16.6997  17.1699  17.1699  18.5683  18.5683
    20.0798  20.0798  22.2151  22.2151  29.7034

     occupation numbers 
     1.0000   1.0000   1.0000   1.0000   1.0000   1.0000   1.0000   1.0000
     1.0000   1.0000   1.0000   1.0000   1.0000   1.0000   1.0000   1.0000
     0.0000   0.0000   0.0000   0.0000   0.0000

          k = 0.2500 0.5292 0.0000 (  2859 PWs)   bands (ev):

   -75.1475 -75.1368 -38.5961 -38.5479 -38.5120 -38.5036 -38.4501 -38.4416
    15.5371  15.7427  15.8956  16.1649  17.3784  17.5985  18.4019  19.5866
    19.9519  19.9837  22.5798  24.8286  26.9198

     occupation numbers 
     1.0000   1.0000   1.0000   1.0000   1.0000   1.0000   1.0000   1.0000
     1.0000   1.0000   1.0000   1.0000   1.0000   1.0000   1.0000   0.0000
     0.0000   0.0000   0.0000   0.0000   0.0000

          k = 0.2500 0.5292 0.1032 (  2852 PWs)   bands (ev):

   -75.1468 -75.1375 -38.6025 -38.5729 -38.5314 -38.4728 -38.4531 -38.4183
    15.4965  15.8647  15.9822  16.2309  17.3572  17.5003  18.4075  19.6009
    19.6983  20.0377  22.7446  24.8067  26.9928

     occupation numbers 
     1.0000   1.0000   1.0000   1.0000   1.0000   1.0000   1.0000   1.0000
     1.0000   1.0000   1.0000   1.0000   1.0000   1.0000   1.0000   0.0000
     0.0000   0.0000   0.0000   0.0000   0.0000

          k = 0.2500 0.5292 0.2065 (  2845 PWs)   bands (ev):

   -75.1448 -75.1394 -38.6196 -38.6036 -38.5304 -38.4848 -38.4174 -38.3948
    15.5344  15.8281  16.2632  16.5802  17.1113  17.3591  18.4697  19.1138
    19.7721  20.0848  23.1304  24.4498  27.0802

     occupation numbers 
     1.0000   1.0000   1.0000   1.0000   1.0000   1.0000   1.0000   1.0000
     1.0000   1.0000   1.0000   1.0000   1.0000   1.0000   1.0000   0.0000
     0.0000   0.0000   0.0000   0.0000   0.0000

          k = 0.2500 0.5292-0.3097 (  2838 PWs)   bands (ev):

   -75.1421 -75.1421 -38.6225 -38.6225 -38.5092 -38.5092 -38.3934 -38.3934
    15.6692  15.6692  16.6622  16.6622  17.0722  17.0722  18.6750  18.6750
    19.9779  19.9779  23.7230  23.7230  27.6294

     occupation numbers 
     1.0000   1.0000   1.0000   1.0000   1.0000   1.0000   1.0000   1.0000
     1.0000   1.0000   1.0000   1.0000   1.0000   1.0000   1.0000   1.0000
     0.0000   0.0000   0.0000   0.0000   0.0000

          k = 0.3333 0.5774 0.0000 (  2850 PWs)   bands (ev):

   -75.1409 -75.1409 -38.5862 -38.5327 -38.5327 -38.4761 -38.4714 -38.4714
    15.7742  15.8885  15.8885  16.0920  17.4235  17.4235  18.5107  19.7560
    19.7560  19.9212  24.0208  24.8213  24.8213

     occupation numbers 
     1.0000   1.0000   1.0000   1.0000   1.0000   1.0000   1.0000   1.0000
     1.0000   1.0000   1.0000   1.0000   1.0000   1.0000   1.0000   0.0000
     0.0000   0.0000   0.0000   0.0000   0.0000

          k = 0.3333 0.5774 0.1032 (  2847 PWs)   bands (ev):

   -75.1409 -75.1409 -38.5789 -38.5629 -38.5629 -38.4835 -38.4411 -38.4411
    15.8498  15.9635  15.9635  16.1247  17.3387  17.3387  18.4877  19.6407
    19.8020  19.8020  24.4411  24.8711  24.8711

     occupation numbers 
     1.0000   1.0000   1.0000   1.0000   1.0000   1.0000   1.0000   1.0000
     1.0000   1.0000   1.0000   1.0000   1.0000   1.0000   1.0000   0.0000
     0.0000   0.0000   0.0000   0.0000   0.0000

          k = 0.3333 0.5774 0.2065 (  2838 PWs)   bands (ev):

   -75.1409 -75.1409 -38.5980 -38.5980 -38.5588 -38.5037 -38.4057 -38.4057
    16.0273  16.1417  16.1417  16.1848  17.1491  17.1491  18.4801  19.0859
    19.8856  19.8856  24.9944  24.9944  25.4586

     occupation numbers 
     1.0000   1.0000   1.0000   1.0000   1.0000   1.0000   1.0000   1.0000
     1.0000   1.0000   1.0000   1.0000   1.0000   1.0000   1.0000   0.0000
     0.0000   0.0000   0.0000   0.0000   0.0000

          k = 0.3333 0.5774-0.3097 (  2838 PWs)   bands (ev):

   -75.1409 -75.1409 -38.6113 -38.6113 -38.5313 -38.5313 -38.3922 -38.3922
    16.1720  16.1720  16.2571  16.2571  17.0316  17.0316  18.6470  18.6470
    19.9236  19.9236  25.0727  25.0727  26.7965

     occupation numbers 
     1.0000   1.0000   1.0000   1.0000   1.0000   1.0000   1.0000   1.0000
     1.0000   1.0000   1.0000   1.0000   1.0000   1.0000   1.0000   1.0000
     0.0000   0.0000   0.0000   0.0000   0.0000

     the Fermi energy is    18.7583 ev

!    total energy              =    -753.45520245 Ry
     total all-electron energy =     -5573.811894 Ry
     estimated scf accuracy    <       0.00000057 Ry
     smearing contrib. (-TS)   =      -0.00001882 Ry
     internal energy E=F+TS    =    -753.45518363 Ry

     The total energy is F=E-TS. E is the sum of the following terms:
     one-electron contribution =    -281.80548916 Ry
     hartree contribution      =     164.66096071 Ry
     xc contribution           =     -61.40611328 Ry
     ewald contribution        =    -399.72946096 Ry
     one-center paw contrib.   =    -175.17508094 Ry
      -> PAW hartree energy AE =     222.02986984 Ry
      -> PAW hartree energy PS =    -220.97422984 Ry
      -> PAW xc energy AE      =    -117.67174013 Ry
      -> PAW xc energy PS      =      29.02855966 Ry
      -> total E_H with PAW    =     165.71660071 Ry
      -> total E_XC with PAW   =    -150.04929375 Ry

     total magnetization       =     3.31 Bohr mag/cell
     absolute magnetization    =     3.63 Bohr mag/cell

     convergence has been achieved in   8 iterations

     Writing all to output data dir ./out/Co.save/
 
     init_run     :      0.40s CPU      0.51s WALL (       1 calls)
     electrons    :     15.71s CPU     16.55s WALL (       1 calls)

     Called by init_run:
     wfcinit      :      0.27s CPU      0.35s WALL (       1 calls)
     potinit      :      0.08s CPU      0.10s WALL (       1 calls)
     hinit0       :      0.03s CPU      0.04s WALL (       1 calls)

     Called by electrons:
     c_bands      :     13.51s CPU     14.14s WALL (       8 calls)
     sum_band     :      1.48s CPU      1.56s WALL (       8 calls)
     v_of_rho     :      0.02s CPU      0.03s WALL (       9 calls)
     v_h          :      0.00s CPU      0.00s WALL (       9 calls)
     v_xc         :      0.02s CPU      0.02s WALL (       9 calls)
     newd         :      0.03s CPU      0.04s WALL (       9 calls)
     PAW_pot      :      0.72s CPU      0.86s WALL (       9 calls)
     mix_rho      :      0.00s CPU      0.01s WALL (       8 calls)

     Called by c_bands:
     init_us_2    :      0.08s CPU      0.09s WALL (    2432 calls)
     init_us_2:cp :      0.08s CPU      0.09s WALL (    2432 calls)
     cegterg      :     12.97s CPU     13.51s WALL (    1216 calls)

     Called by sum_band:
     sum_band:wei :      0.01s CPU      0.01s WALL (       8 calls)
     sum_band:loo :      1.41s CPU      1.48s WALL (       8 calls)
     sum_band:buf :      0.01s CPU      0.01s WALL (    1216 calls)
     sum_band:ini :      0.05s CPU      0.04s WALL (    1216 calls)
     sum_band:cal :      0.12s CPU      0.12s WALL (    1216 calls)
     sum_band:bec :      0.00s CPU      0.01s WALL (    1216 calls)
     addusdens    :      0.05s CPU      0.05s WALL (       8 calls)
                                        0.00s GPU  (       8 calls)
     addusd:skk   :      0.00s CPU      0.00s WALL (       8 calls)
                                        0.00s GPU  (       8 calls)

     Called by *egterg:
     cdiaghg      :      3.12s CPU      3.20s WALL (    6581 calls)
     cegterg:over :      0.44s CPU      0.41s WALL (    5517 calls)
     cegterg:upda :      0.05s CPU      0.10s WALL (    5517 calls)
     cegterg:last :      0.15s CPU      0.17s WALL (    3713 calls)
     h_psi        :      8.67s CPU      9.09s WALL (    6733 calls)
     s_psi        :      0.18s CPU      0.15s WALL (    6733 calls)
     g_psi        :      0.02s CPU      0.03s WALL (    5517 calls)

     Called by h_psi:
     h_psi:calbec :      0.47s CPU      0.45s WALL (    6733 calls)
     vloc_psi     :      8.09s CPU      8.45s WALL (    6733 calls)
     add_vuspsi   :      0.09s CPU      0.15s WALL (    6733 calls)

     General routines
     calbec       :      0.58s CPU      0.55s WALL (    7949 calls)
     fft          :      0.01s CPU      0.02s WALL (     219 calls)
     ffts         :      0.00s CPU      0.00s WALL (      34 calls)
     fftw         :      8.81s CPU      9.06s WALL (  203224 calls)
     interpolate  :      0.00s CPU      0.00s WALL (      18 calls)
 
     Parallel routines

     PAW routines
     PAW_pot      :      0.72s CPU      0.86s WALL (       9 calls)
     PAW_symme    :      0.01s CPU      0.01s WALL (      16 calls)
 
     PWSCF        :     16.44s CPU     17.84s WALL

 
   This run was terminated on:   9:29:37  22Mar2024            

=------------------------------------------------------------------------------=
   JOB DONE.
=------------------------------------------------------------------------------=
