
     Program PWSCF v.7.2 starts on 22Mar2024 at  9:33:30 

     This program is part of the open-source Quantum ESPRESSO suite
     for quantum simulation of materials; please cite
         "P. Giannozzi et al., J. Phys.:Condens. Matter 21 395502 (2009);
         "P. Giannozzi et al., J. Phys.:Condens. Matter 29 465901 (2017);
         "P. Giannozzi et al., J. Chem. Phys. 152 154105 (2020);
          URL http://www.quantum-espresso.org", 
     in publications or presentations arising from this work. More details at
     http://www.quantum-espresso.org/quote

     Parallel version (MPI), running on    20 processors

     MPI processes distributed on     1 nodes
     336877 MiB available memory on the printing compute node when the environment starts
 
     Waiting for input...
     Reading input from standard input

     Current dimensions of program PWSCF are:
     Max number of different atomic species (ntypx) = 10
     Max number of k-points (npk) = 120000
     Max angular momentum in pseudopotentials (lmaxx) =  4
     file Co.pbe-spn-kjpaw_psl.0.3.1.UPF: wavefunction(s)  3P 3D renormalized
 
     R & G space division:  proc/nbgrp/npool/nimage =      20
     Subspace diagonalization in iterative solution of the eigenvalue problem:
     a serial algorithm will be used

 
     Parallelization info
     --------------------
     sticks:   dense  smooth     PW     G-vecs:    dense   smooth      PW
     Min          32      32      9                 1142     1102     181
     Max          34      33     10                 1155     1109     186
     Sum         661     649    199                22935    22095    3695
 
     Using Slab Decomposition
 


     bravais-lattice index     =            4
     lattice parameter (alat)  =       4.6204  a.u.
     unit-cell volume          =     142.0187 (a.u.)^3
     number of atoms/cell      =            2
     number of atomic types    =            1
     number of electrons       =        34.00
     number of Kohn-Sham states=           21
     kinetic-energy cutoff     =     110.0000  Ry
     charge density cutoff     =     450.0000  Ry
     scf convergence threshold =      1.0E-06
     mixing beta               =       0.7000
     number of iterations used =            8  plain     mixing
     Exchange-correlation= SLA  PW   PBX  PBC
                           (   1   4   3   4   0   0   0)

     celldm(1)=   4.620380  celldm(2)=   0.000000  celldm(3)=   1.662577
     celldm(4)=   0.000000  celldm(5)=   0.000000  celldm(6)=   0.000000

     crystal axes: (cart. coord. in units of alat)
               a(1) = (   1.000000   0.000000   0.000000 )  
               a(2) = (  -0.500000   0.866025   0.000000 )  
               a(3) = (   0.000000   0.000000   1.662577 )  

     reciprocal axes: (cart. coord. in units 2 pi/alat)
               b(1) = (  1.000000  0.577350  0.000000 )  
               b(2) = (  0.000000  1.154701  0.000000 )  
               b(3) = (  0.000000  0.000000  0.601476 )  


     PseudoPot. # 1 for Co read from file:
     /truba/home/amuhaymin/ZnS/pseudo/QE/Co.pbe-spn-kjpaw_psl.0.3.1.UPF
     MD5 check sum: b0a1ad65bf214e88c1f3d33b20c7d919
     Pseudo is Projector augmented-wave + core cor, Zval = 17.0
     Generated using &quot;atomic&quot; code by A. Dal Corso  v.6.2.2
     Shape of augmentation charge: PSQ
     Using radial grid of 1193 points,  6 beta functions with: 
                l(1) =   0
                l(2) =   0
                l(3) =   1
                l(4) =   1
                l(5) =   2
                l(6) =   2
     Q(r) pseudized with 0 coefficients 


     atomic species   valence    mass     pseudopotential
        Co            17.00    58.93300     Co( 1.00)

     Starting magnetic structure 
     atomic species   magnetization
        Co           0.294

     24 Sym. Ops., with inversion, found (12 have fractional translation)


                                    s                        frac. trans.

      isym =  1     identity                                     

 cryst.   s( 1) = (     1          0          0      )
                  (     0          1          0      )
                  (     0          0          1      )

 cart.    s( 1) = (  1.0000000  0.0000000  0.0000000 )
                  (  0.0000000  1.0000000  0.0000000 )
                  (  0.0000000  0.0000000  1.0000000 )


      isym =  2     180 deg rotation - cart. axis [0,0,1]        

 cryst.   s( 2) = (    -1          0          0      )    f =(  0.0000000 )
                  (     0         -1          0      )       (  0.0000000 )
                  (     0          0          1      )       ( -0.5000000 )

 cart.    s( 2) = ( -1.0000000  0.0000000  0.0000000 )    f =(  0.0000000 )
                  (  0.0000000 -1.0000000  0.0000000 )       (  0.0000000 )
                  (  0.0000000  0.0000000  1.0000000 )       ( -0.8312883 )


      isym =  3     180 deg rotation - cart. axis [0,1,0]        

 cryst.   s( 3) = (    -1          0          0      )    f =(  0.0000000 )
                  (     1          1          0      )       (  0.0000000 )
                  (     0          0         -1      )       ( -0.5000000 )

 cart.    s( 3) = ( -1.0000000  0.0000000  0.0000000 )    f =(  0.0000000 )
                  (  0.0000000  1.0000000  0.0000000 )       (  0.0000000 )
                  (  0.0000000  0.0000000 -1.0000000 )       ( -0.8312883 )


      isym =  4     180 deg rotation - cart. axis [1,0,0]        

 cryst.   s( 4) = (     1          0          0      )
                  (    -1         -1          0      )
                  (     0          0         -1      )

 cart.    s( 4) = (  1.0000000  0.0000000  0.0000000 )
                  (  0.0000000 -1.0000000  0.0000000 )
                  (  0.0000000  0.0000000 -1.0000000 )


      isym =  5      60 deg rotation - cryst. axis [0,0,1]       

 cryst.   s( 5) = (     1          1          0      )    f =(  0.0000000 )
                  (    -1          0          0      )       ( -0.0000000 )
                  (     0          0          1      )       ( -0.5000000 )

 cart.    s( 5) = (  0.5000000 -0.8660254  0.0000000 )    f =(  0.0000000 )
                  (  0.8660254  0.5000000  0.0000000 )       ( -0.0000000 )
                  (  0.0000000  0.0000000  1.0000000 )       ( -0.8312883 )


      isym =  6      60 deg rotation - cryst. axis [0,0,-1]      

 cryst.   s( 6) = (     0         -1          0      )    f =(  0.0000000 )
                  (     1          1          0      )       ( -0.0000000 )
                  (     0          0          1      )       ( -0.5000000 )

 cart.    s( 6) = (  0.5000000  0.8660254  0.0000000 )    f =(  0.0000000 )
                  ( -0.8660254  0.5000000  0.0000000 )       ( -0.0000000 )
                  (  0.0000000  0.0000000  1.0000000 )       ( -0.8312883 )


      isym =  7     120 deg rotation - cryst. axis [0,0,1]       

 cryst.   s( 7) = (     0          1          0      )
                  (    -1         -1          0      )
                  (     0          0          1      )

 cart.    s( 7) = ( -0.5000000 -0.8660254  0.0000000 )
                  (  0.8660254 -0.5000000  0.0000000 )
                  (  0.0000000  0.0000000  1.0000000 )


      isym =  8     120 deg rotation - cryst. axis [0,0,-1]      

 cryst.   s( 8) = (    -1         -1          0      )
                  (     1          0          0      )
                  (     0          0          1      )

 cart.    s( 8) = ( -0.5000000  0.8660254  0.0000000 )
                  ( -0.8660254 -0.5000000  0.0000000 )
                  (  0.0000000  0.0000000  1.0000000 )


      isym =  9     180 deg rotation - cryst. axis [1,-1,0]      

 cryst.   s( 9) = (     0         -1          0      )    f =(  0.0000000 )
                  (    -1          0          0      )       (  0.0000000 )
                  (     0          0         -1      )       ( -0.5000000 )

 cart.    s( 9) = (  0.5000000 -0.8660254  0.0000000 )    f =(  0.0000000 )
                  ( -0.8660254 -0.5000000  0.0000000 )       (  0.0000000 )
                  (  0.0000000  0.0000000 -1.0000000 )       ( -0.8312883 )


      isym = 10     180 deg rotation - cryst. axis [2,1,0]       

 cryst.   s(10) = (     1          1          0      )    f =(  0.0000000 )
                  (     0         -1          0      )       ( -0.0000000 )
                  (     0          0         -1      )       ( -0.5000000 )

 cart.    s(10) = (  0.5000000  0.8660254  0.0000000 )    f =(  0.0000000 )
                  (  0.8660254 -0.5000000  0.0000000 )       ( -0.0000000 )
                  (  0.0000000  0.0000000 -1.0000000 )       ( -0.8312883 )


      isym = 11     180 deg rotation - cryst. axis [0,1,0]       

 cryst.   s(11) = (    -1         -1          0      )
                  (     0          1          0      )
                  (     0          0         -1      )

 cart.    s(11) = ( -0.5000000 -0.8660254  0.0000000 )
                  ( -0.8660254  0.5000000  0.0000000 )
                  (  0.0000000  0.0000000 -1.0000000 )


      isym = 12     180 deg rotation - cryst. axis [1,1,0]       

 cryst.   s(12) = (     0          1          0      )
                  (     1          0          0      )
                  (     0          0         -1      )

 cart.    s(12) = ( -0.5000000  0.8660254  0.0000000 )
                  (  0.8660254  0.5000000  0.0000000 )
                  (  0.0000000  0.0000000 -1.0000000 )


      isym = 13     inversion                                    

 cryst.   s(13) = (    -1          0          0      )
                  (     0         -1          0      )
                  (     0          0         -1      )

 cart.    s(13) = ( -1.0000000  0.0000000  0.0000000 )
                  (  0.0000000 -1.0000000  0.0000000 )
                  (  0.0000000  0.0000000 -1.0000000 )


      isym = 14     inv. 180 deg rotation - cart. axis [0,0,1]   

 cryst.   s(14) = (     1          0          0      )    f =(  0.0000000 )
                  (     0          1          0      )       (  0.0000000 )
                  (     0          0         -1      )       ( -0.5000000 )

 cart.    s(14) = (  1.0000000  0.0000000  0.0000000 )    f =(  0.0000000 )
                  (  0.0000000  1.0000000  0.0000000 )       (  0.0000000 )
                  (  0.0000000  0.0000000 -1.0000000 )       ( -0.8312883 )


      isym = 15     inv. 180 deg rotation - cart. axis [0,1,0]   

 cryst.   s(15) = (     1          0          0      )    f =(  0.0000000 )
                  (    -1         -1          0      )       (  0.0000000 )
                  (     0          0          1      )       ( -0.5000000 )

 cart.    s(15) = (  1.0000000  0.0000000  0.0000000 )    f =(  0.0000000 )
                  (  0.0000000 -1.0000000  0.0000000 )       (  0.0000000 )
                  (  0.0000000  0.0000000  1.0000000 )       ( -0.8312883 )


      isym = 16     inv. 180 deg rotation - cart. axis [1,0,0]   

 cryst.   s(16) = (    -1          0          0      )
                  (     1          1          0      )
                  (     0          0          1      )

 cart.    s(16) = ( -1.0000000  0.0000000  0.0000000 )
                  (  0.0000000  1.0000000  0.0000000 )
                  (  0.0000000  0.0000000  1.0000000 )


      isym = 17     inv.  60 deg rotation - cryst. axis [0,0,1]  

 cryst.   s(17) = (    -1         -1          0      )    f =(  0.0000000 )
                  (     1          0          0      )       (  0.0000000 )
                  (     0          0         -1      )       ( -0.5000000 )

 cart.    s(17) = ( -0.5000000  0.8660254  0.0000000 )    f =(  0.0000000 )
                  ( -0.8660254 -0.5000000  0.0000000 )       (  0.0000000 )
                  (  0.0000000  0.0000000 -1.0000000 )       ( -0.8312883 )


      isym = 18     inv.  60 deg rotation - cryst. axis [0,0,-1] 

 cryst.   s(18) = (     0          1          0      )    f =(  0.0000000 )
                  (    -1         -1          0      )       ( -0.0000000 )
                  (     0          0         -1      )       ( -0.5000000 )

 cart.    s(18) = ( -0.5000000 -0.8660254  0.0000000 )    f =(  0.0000000 )
                  (  0.8660254 -0.5000000  0.0000000 )       ( -0.0000000 )
                  (  0.0000000  0.0000000 -1.0000000 )       ( -0.8312883 )


      isym = 19     inv. 120 deg rotation - cryst. axis [0,0,1]  

 cryst.   s(19) = (     0         -1          0      )
                  (     1          1          0      )
                  (     0          0         -1      )

 cart.    s(19) = (  0.5000000  0.8660254  0.0000000 )
                  ( -0.8660254  0.5000000  0.0000000 )
                  (  0.0000000  0.0000000 -1.0000000 )


      isym = 20     inv. 120 deg rotation - cryst. axis [0,0,-1] 

 cryst.   s(20) = (     1          1          0      )
                  (    -1          0          0      )
                  (     0          0         -1      )

 cart.    s(20) = (  0.5000000 -0.8660254  0.0000000 )
                  (  0.8660254  0.5000000  0.0000000 )
                  (  0.0000000  0.0000000 -1.0000000 )


      isym = 21     inv. 180 deg rotation - cryst. axis [1,-1,0] 

 cryst.   s(21) = (     0          1          0      )    f =(  0.0000000 )
                  (     1          0          0      )       ( -0.0000000 )
                  (     0          0          1      )       ( -0.5000000 )

 cart.    s(21) = ( -0.5000000  0.8660254  0.0000000 )    f =(  0.0000000 )
                  (  0.8660254  0.5000000  0.0000000 )       ( -0.0000000 )
                  (  0.0000000  0.0000000  1.0000000 )       ( -0.8312883 )


      isym = 22     inv. 180 deg rotation - cryst. axis [2,1,0]  

 cryst.   s(22) = (    -1         -1          0      )    f =(  0.0000000 )
                  (     0          1          0      )       ( -0.0000000 )
                  (     0          0          1      )       ( -0.5000000 )

 cart.    s(22) = ( -0.5000000 -0.8660254  0.0000000 )    f =(  0.0000000 )
                  ( -0.8660254  0.5000000  0.0000000 )       ( -0.0000000 )
                  (  0.0000000  0.0000000  1.0000000 )       ( -0.8312883 )


      isym = 23     inv. 180 deg rotation - cryst. axis [0,1,0]  

 cryst.   s(23) = (     1          1          0      )
                  (     0         -1          0      )
                  (     0          0          1      )

 cart.    s(23) = (  0.5000000  0.8660254  0.0000000 )
                  (  0.8660254 -0.5000000  0.0000000 )
                  (  0.0000000  0.0000000  1.0000000 )


      isym = 24     inv. 180 deg rotation - cryst. axis [1,1,0]  

 cryst.   s(24) = (     0         -1          0      )
                  (    -1          0          0      )
                  (     0          0          1      )

 cart.    s(24) = (  0.5000000 -0.8660254  0.0000000 )
                  ( -0.8660254 -0.5000000  0.0000000 )
                  (  0.0000000  0.0000000  1.0000000 )


     point group D_6h(6/mmm)
     there are 12 classes
     the character table:

       E     2C6   2C3   C2    3C2'  3C2'' i     2S3   2S6   s_h   3s_d  3s_v 
A_1g   1.00  1.00  1.00  1.00  1.00  1.00  1.00  1.00  1.00  1.00  1.00  1.00
A_2g   1.00  1.00  1.00  1.00 -1.00 -1.00  1.00  1.00  1.00  1.00 -1.00 -1.00
B_1g   1.00 -1.00  1.00 -1.00  1.00 -1.00  1.00 -1.00  1.00 -1.00  1.00 -1.00
B_2g   1.00 -1.00  1.00 -1.00 -1.00  1.00  1.00 -1.00  1.00 -1.00 -1.00  1.00
E_1g   2.00  1.00 -1.00 -2.00  0.00  0.00  2.00  1.00 -1.00 -2.00  0.00  0.00
E_2g   2.00 -1.00 -1.00  2.00  0.00  0.00  2.00 -1.00 -1.00  2.00  0.00  0.00
A_1u   1.00  1.00  1.00  1.00  1.00  1.00 -1.00 -1.00 -1.00 -1.00 -1.00 -1.00
A_2u   1.00  1.00  1.00  1.00 -1.00 -1.00 -1.00 -1.00 -1.00 -1.00  1.00  1.00
B_1u   1.00 -1.00  1.00 -1.00  1.00 -1.00 -1.00  1.00 -1.00  1.00 -1.00  1.00
B_2u   1.00 -1.00  1.00 -1.00 -1.00  1.00 -1.00  1.00 -1.00  1.00  1.00 -1.00
E_1u   2.00  1.00 -1.00 -2.00  0.00  0.00 -2.00 -1.00  1.00  2.00  0.00  0.00
E_2u   2.00 -1.00 -1.00  2.00  0.00  0.00 -2.00  1.00  1.00 -2.00  0.00  0.00

     the symmetry operations in each class and the name of the first element:

     E        1
          identity                                               
     2C6      5    6
           60 deg rotation - cryst. axis [0,0,1]                 
     2C3      7    8
          120 deg rotation - cryst. axis [0,0,1]                 
     C2       2
          180 deg rotation - cart. axis [0,0,1]                  
     3C2'     4   12   11
          180 deg rotation - cart. axis [1,0,0]                  
     3C2''    3    9   10
          180 deg rotation - cart. axis [0,1,0]                  
     i       13
          inversion                                              
     2S3     17   18
          inv.  60 deg rotation - cryst. axis [0,0,1]            
     2S6     19   20
          inv. 120 deg rotation - cryst. axis [0,0,1]            
     s_h     14
          inv. 180 deg rotation - cart. axis [0,0,1]             
     3s_d    16   24   23
          inv. 180 deg rotation - cart. axis [1,0,0]             
     3s_v    15   21   22
          inv. 180 deg rotation - cart. axis [0,1,0]             

   Cartesian axes

     site n.     atom                  positions (alat units)
         1           Co  tau(   1) = (  -0.0000000   0.5773503   0.4156442  )
         2           Co  tau(   2) = (   0.5000000   0.2886751   1.2469325  )

   Crystallographic axes

     site n.     atom                  positions (cryst. coord.)
         1           Co  tau(   1) = (  0.3333333  0.6666667  0.2500000  )
         2           Co  tau(   2) = (  0.6666667  0.3333333  0.7500000  )

     number of k points=    76  Gaussian smearing, width (Ry)=  0.0010
                       cart. coord. in units 2pi/alat
        k(    1) = (   0.0000000   0.0000000   0.0000000), wk =   0.0011574
        k(    2) = (   0.0000000   0.0000000   0.1002460), wk =   0.0023148
        k(    3) = (   0.0000000   0.0000000   0.2004920), wk =   0.0023148
        k(    4) = (   0.0000000   0.0000000  -0.3007380), wk =   0.0011574
        k(    5) = (   0.0000000   0.0962250   0.0000000), wk =   0.0069444
        k(    6) = (   0.0000000   0.0962250   0.1002460), wk =   0.0138889
        k(    7) = (   0.0000000   0.0962250   0.2004920), wk =   0.0138889
        k(    8) = (   0.0000000   0.0962250  -0.3007380), wk =   0.0069444
        k(    9) = (   0.0000000   0.1924501   0.0000000), wk =   0.0069444
        k(   10) = (   0.0000000   0.1924501   0.1002460), wk =   0.0138889
        k(   11) = (   0.0000000   0.1924501   0.2004920), wk =   0.0138889
        k(   12) = (   0.0000000   0.1924501  -0.3007380), wk =   0.0069444
        k(   13) = (   0.0000000   0.2886751   0.0000000), wk =   0.0069444
        k(   14) = (   0.0000000   0.2886751   0.1002460), wk =   0.0138889
        k(   15) = (   0.0000000   0.2886751   0.2004920), wk =   0.0138889
        k(   16) = (   0.0000000   0.2886751  -0.3007380), wk =   0.0069444
        k(   17) = (   0.0000000   0.3849002   0.0000000), wk =   0.0069444
        k(   18) = (   0.0000000   0.3849002   0.1002460), wk =   0.0138889
        k(   19) = (   0.0000000   0.3849002   0.2004920), wk =   0.0138889
        k(   20) = (   0.0000000   0.3849002  -0.3007380), wk =   0.0069444
        k(   21) = (   0.0000000   0.4811252   0.0000000), wk =   0.0069444
        k(   22) = (   0.0000000   0.4811252   0.1002460), wk =   0.0138889
        k(   23) = (   0.0000000   0.4811252   0.2004920), wk =   0.0138889
        k(   24) = (   0.0000000   0.4811252  -0.3007380), wk =   0.0069444
        k(   25) = (   0.0000000  -0.5773503   0.0000000), wk =   0.0034722
        k(   26) = (   0.0000000  -0.5773503   0.1002460), wk =   0.0069444
        k(   27) = (   0.0000000  -0.5773503   0.2004920), wk =   0.0069444
        k(   28) = (   0.0000000  -0.5773503  -0.3007380), wk =   0.0034722
        k(   29) = (   0.0833333   0.1443376   0.0000000), wk =   0.0069444
        k(   30) = (   0.0833333   0.1443376   0.1002460), wk =   0.0138889
        k(   31) = (   0.0833333   0.1443376   0.2004920), wk =   0.0138889
        k(   32) = (   0.0833333   0.1443376  -0.3007380), wk =   0.0069444
        k(   33) = (   0.0833333   0.2405626   0.0000000), wk =   0.0138889
        k(   34) = (   0.0833333   0.2405626   0.1002460), wk =   0.0277778
        k(   35) = (   0.0833333   0.2405626   0.2004920), wk =   0.0277778
        k(   36) = (   0.0833333   0.2405626  -0.3007380), wk =   0.0138889
        k(   37) = (   0.0833333   0.3367877   0.0000000), wk =   0.0138889
        k(   38) = (   0.0833333   0.3367877   0.1002460), wk =   0.0277778
        k(   39) = (   0.0833333   0.3367877   0.2004920), wk =   0.0277778
        k(   40) = (   0.0833333   0.3367877  -0.3007380), wk =   0.0138889
        k(   41) = (   0.0833333   0.4330127   0.0000000), wk =   0.0138889
        k(   42) = (   0.0833333   0.4330127   0.1002460), wk =   0.0277778
        k(   43) = (   0.0833333   0.4330127   0.2004920), wk =   0.0277778
        k(   44) = (   0.0833333   0.4330127  -0.3007380), wk =   0.0138889
        k(   45) = (   0.0833333   0.5292377   0.0000000), wk =   0.0138889
        k(   46) = (   0.0833333   0.5292377   0.1002460), wk =   0.0277778
        k(   47) = (   0.0833333   0.5292377   0.2004920), wk =   0.0277778
        k(   48) = (   0.0833333   0.5292377  -0.3007380), wk =   0.0138889
        k(   49) = (   0.1666667   0.2886751   0.0000000), wk =   0.0069444
        k(   50) = (   0.1666667   0.2886751   0.1002460), wk =   0.0138889
        k(   51) = (   0.1666667   0.2886751   0.2004920), wk =   0.0138889
        k(   52) = (   0.1666667   0.2886751  -0.3007380), wk =   0.0069444
        k(   53) = (   0.1666667   0.3849002   0.0000000), wk =   0.0138889
        k(   54) = (   0.1666667   0.3849002   0.1002460), wk =   0.0277778
        k(   55) = (   0.1666667   0.3849002   0.2004920), wk =   0.0277778
        k(   56) = (   0.1666667   0.3849002  -0.3007380), wk =   0.0138889
        k(   57) = (   0.1666667   0.4811252   0.0000000), wk =   0.0138889
        k(   58) = (   0.1666667   0.4811252   0.1002460), wk =   0.0277778
        k(   59) = (   0.1666667   0.4811252   0.2004920), wk =   0.0277778
        k(   60) = (   0.1666667   0.4811252  -0.3007380), wk =   0.0138889
        k(   61) = (   0.1666667   0.5773503   0.0000000), wk =   0.0069444
        k(   62) = (   0.1666667   0.5773503   0.1002460), wk =   0.0138889
        k(   63) = (   0.1666667   0.5773503   0.2004920), wk =   0.0138889
        k(   64) = (   0.1666667   0.5773503  -0.3007380), wk =   0.0069444
        k(   65) = (   0.2500000   0.4330127   0.0000000), wk =   0.0069444
        k(   66) = (   0.2500000   0.4330127   0.1002460), wk =   0.0138889
        k(   67) = (   0.2500000   0.4330127   0.2004920), wk =   0.0138889
        k(   68) = (   0.2500000   0.4330127  -0.3007380), wk =   0.0069444
        k(   69) = (   0.2500000   0.5292377   0.0000000), wk =   0.0138889
        k(   70) = (   0.2500000   0.5292377   0.1002460), wk =   0.0277778
        k(   71) = (   0.2500000   0.5292377   0.2004920), wk =   0.0277778
        k(   72) = (   0.2500000   0.5292377  -0.3007380), wk =   0.0138889
        k(   73) = (   0.3333333   0.5773503   0.0000000), wk =   0.0023148
        k(   74) = (   0.3333333   0.5773503   0.1002460), wk =   0.0046296
        k(   75) = (   0.3333333   0.5773503   0.2004920), wk =   0.0046296
        k(   76) = (   0.3333333   0.5773503  -0.3007380), wk =   0.0023148

                       cryst. coord.
        k(    1) = (   0.0000000   0.0000000   0.0000000), wk =   0.0011574
        k(    2) = (   0.0000000   0.0000000   0.1666667), wk =   0.0023148
        k(    3) = (   0.0000000   0.0000000   0.3333333), wk =   0.0023148
        k(    4) = (   0.0000000   0.0000000  -0.5000000), wk =   0.0011574
        k(    5) = (   0.0000000   0.0833333   0.0000000), wk =   0.0069444
        k(    6) = (   0.0000000   0.0833333   0.1666667), wk =   0.0138889
        k(    7) = (   0.0000000   0.0833333   0.3333333), wk =   0.0138889
        k(    8) = (   0.0000000   0.0833333  -0.5000000), wk =   0.0069444
        k(    9) = (   0.0000000   0.1666667   0.0000000), wk =   0.0069444
        k(   10) = (   0.0000000   0.1666667   0.1666667), wk =   0.0138889
        k(   11) = (   0.0000000   0.1666667   0.3333333), wk =   0.0138889
        k(   12) = (   0.0000000   0.1666667  -0.5000000), wk =   0.0069444
        k(   13) = (   0.0000000   0.2500000   0.0000000), wk =   0.0069444
        k(   14) = (   0.0000000   0.2500000   0.1666667), wk =   0.0138889
        k(   15) = (   0.0000000   0.2500000   0.3333333), wk =   0.0138889
        k(   16) = (   0.0000000   0.2500000  -0.5000000), wk =   0.0069444
        k(   17) = (   0.0000000   0.3333333   0.0000000), wk =   0.0069444
        k(   18) = (   0.0000000   0.3333333   0.1666667), wk =   0.0138889
        k(   19) = (   0.0000000   0.3333333   0.3333333), wk =   0.0138889
        k(   20) = (   0.0000000   0.3333333  -0.5000000), wk =   0.0069444
        k(   21) = (   0.0000000   0.4166667   0.0000000), wk =   0.0069444
        k(   22) = (   0.0000000   0.4166667   0.1666667), wk =   0.0138889
        k(   23) = (   0.0000000   0.4166667   0.3333333), wk =   0.0138889
        k(   24) = (   0.0000000   0.4166667  -0.5000000), wk =   0.0069444
        k(   25) = (   0.0000000  -0.5000000   0.0000000), wk =   0.0034722
        k(   26) = (   0.0000000  -0.5000000   0.1666667), wk =   0.0069444
        k(   27) = (   0.0000000  -0.5000000   0.3333333), wk =   0.0069444
        k(   28) = (   0.0000000  -0.5000000  -0.5000000), wk =   0.0034722
        k(   29) = (   0.0833333   0.0833333   0.0000000), wk =   0.0069444
        k(   30) = (   0.0833333   0.0833333   0.1666667), wk =   0.0138889
        k(   31) = (   0.0833333   0.0833333   0.3333333), wk =   0.0138889
        k(   32) = (   0.0833333   0.0833333  -0.5000000), wk =   0.0069444
        k(   33) = (   0.0833333   0.1666667   0.0000000), wk =   0.0138889
        k(   34) = (   0.0833333   0.1666667   0.1666667), wk =   0.0277778
        k(   35) = (   0.0833333   0.1666667   0.3333333), wk =   0.0277778
        k(   36) = (   0.0833333   0.1666667  -0.5000000), wk =   0.0138889
        k(   37) = (   0.0833333   0.2500000   0.0000000), wk =   0.0138889
        k(   38) = (   0.0833333   0.2500000   0.1666667), wk =   0.0277778
        k(   39) = (   0.0833333   0.2500000   0.3333333), wk =   0.0277778
        k(   40) = (   0.0833333   0.2500000  -0.5000000), wk =   0.0138889
        k(   41) = (   0.0833333   0.3333333   0.0000000), wk =   0.0138889
        k(   42) = (   0.0833333   0.3333333   0.1666667), wk =   0.0277778
        k(   43) = (   0.0833333   0.3333333   0.3333333), wk =   0.0277778
        k(   44) = (   0.0833333   0.3333333  -0.5000000), wk =   0.0138889
        k(   45) = (   0.0833333   0.4166667   0.0000000), wk =   0.0138889
        k(   46) = (   0.0833333   0.4166667   0.1666667), wk =   0.0277778
        k(   47) = (   0.0833333   0.4166667   0.3333333), wk =   0.0277778
        k(   48) = (   0.0833333   0.4166667  -0.5000000), wk =   0.0138889
        k(   49) = (   0.1666667   0.1666667   0.0000000), wk =   0.0069444
        k(   50) = (   0.1666667   0.1666667   0.1666667), wk =   0.0138889
        k(   51) = (   0.1666667   0.1666667   0.3333333), wk =   0.0138889
        k(   52) = (   0.1666667   0.1666667  -0.5000000), wk =   0.0069444
        k(   53) = (   0.1666667   0.2500000   0.0000000), wk =   0.0138889
        k(   54) = (   0.1666667   0.2500000   0.1666667), wk =   0.0277778
        k(   55) = (   0.1666667   0.2500000   0.3333333), wk =   0.0277778
        k(   56) = (   0.1666667   0.2500000  -0.5000000), wk =   0.0138889
        k(   57) = (   0.1666667   0.3333333   0.0000000), wk =   0.0138889
        k(   58) = (   0.1666667   0.3333333   0.1666667), wk =   0.0277778
        k(   59) = (   0.1666667   0.3333333   0.3333333), wk =   0.0277778
        k(   60) = (   0.1666667   0.3333333  -0.5000000), wk =   0.0138889
        k(   61) = (   0.1666667   0.4166667   0.0000000), wk =   0.0069444
        k(   62) = (   0.1666667   0.4166667   0.1666667), wk =   0.0138889
        k(   63) = (   0.1666667   0.4166667   0.3333333), wk =   0.0138889
        k(   64) = (   0.1666667   0.4166667  -0.5000000), wk =   0.0069444
        k(   65) = (   0.2500000   0.2500000   0.0000000), wk =   0.0069444
        k(   66) = (   0.2500000   0.2500000   0.1666667), wk =   0.0138889
        k(   67) = (   0.2500000   0.2500000   0.3333333), wk =   0.0138889
        k(   68) = (   0.2500000   0.2500000  -0.5000000), wk =   0.0069444
        k(   69) = (   0.2500000   0.3333333   0.0000000), wk =   0.0138889
        k(   70) = (   0.2500000   0.3333333   0.1666667), wk =   0.0277778
        k(   71) = (   0.2500000   0.3333333   0.3333333), wk =   0.0277778
        k(   72) = (   0.2500000   0.3333333  -0.5000000), wk =   0.0138889
        k(   73) = (   0.3333333   0.3333333   0.0000000), wk =   0.0023148
        k(   74) = (   0.3333333   0.3333333   0.1666667), wk =   0.0046296
        k(   75) = (   0.3333333   0.3333333   0.3333333), wk =   0.0046296
        k(   76) = (   0.3333333   0.3333333  -0.5000000), wk =   0.0023148

     Dense  grid:    22935 G-vectors     FFT dimensions: (  32,  32,  54)

     Smooth grid:    22095 G-vectors     FFT dimensions: (  32,  32,  54)

     Dynamical RAM for                 wfc:       0.04 MB

     Dynamical RAM for     wfc (w. buffer):       6.77 MB

     Dynamical RAM for           str. fact:       0.02 MB

     Dynamical RAM for           local pot:       0.00 MB

     Dynamical RAM for          nlocal pot:       0.08 MB

     Dynamical RAM for                qrad:       1.70 MB

     Dynamical RAM for          rho,v,vnew:       0.25 MB

     Dynamical RAM for               rhoin:       0.08 MB

     Dynamical RAM for            rho*nmix:       0.56 MB

     Dynamical RAM for           G-vectors:       0.07 MB

     Dynamical RAM for          h,s,v(r/c):       0.08 MB

     Dynamical RAM for          <psi|beta>:       0.01 MB

     Dynamical RAM for                 psi:       0.09 MB

     Dynamical RAM for                hpsi:       0.09 MB

     Dynamical RAM for                spsi:       0.09 MB

     Dynamical RAM for      wfcinit/wfcrot:       0.10 MB

     Dynamical RAM for           addusdens:       3.32 MB

     Estimated static dynamical RAM per process >       9.14 MB

     Estimated max dynamical RAM per process >      13.02 MB

     Estimated total dynamical RAM >     260.42 MB

     Check: negative core charge=   -0.000043
     Generating pointlists ...
     new r_m :   0.4125 (alat units)  1.9059 (a.u.) for type    1

     The initial density is read from file :
     ./out2/Co.save/charge-density


     starting charge      34.0419, renormalised to      34.0000

     negative rho (up, down):  4.010E-03 2.471E-03
     Starting wfcs from file
     Checking if some PAW data can be deallocated... 

     total cpu time spent up to now is        0.6 secs

     Self-consistent Calculation

     iteration #  1     ecut=   110.00 Ry     beta= 0.70
     Davidson diagonalization with overlap

---- Real-time Memory Report at c_bands before calling an iterative solver
            56 MiB given to the printing process from OS
             0 MiB allocation reported by mallinfo(arena+hblkhd)
        336317 MiB available memory on the node where the printing process lives
------------------
     ethr =  1.00E-05,  avg # of iterations =  6.8

     total cpu time spent up to now is        3.9 secs

     total energy              =    -753.42886145 Ry
     estimated scf accuracy    <       0.01196913 Ry

     total magnetization       =     3.21 Bohr mag/cell
     absolute magnetization    =     3.47 Bohr mag/cell

     iteration #  2     ecut=   110.00 Ry     beta= 0.70
     Davidson diagonalization with overlap

---- Real-time Memory Report at c_bands before calling an iterative solver
            74 MiB given to the printing process from OS
             0 MiB allocation reported by mallinfo(arena+hblkhd)
        336097 MiB available memory on the node where the printing process lives
------------------
     ethr =  3.52E-05,  avg # of iterations =  5.6

     total cpu time spent up to now is        6.5 secs

     total energy              =    -753.43798681 Ry
     estimated scf accuracy    <       0.05318908 Ry

     total magnetization       =     3.25 Bohr mag/cell
     absolute magnetization    =     3.55 Bohr mag/cell

     iteration #  3     ecut=   110.00 Ry     beta= 0.70
     Davidson diagonalization with overlap

---- Real-time Memory Report at c_bands before calling an iterative solver
            77 MiB given to the printing process from OS
             0 MiB allocation reported by mallinfo(arena+hblkhd)
        336086 MiB available memory on the node where the printing process lives
------------------
     ethr =  3.52E-05,  avg # of iterations =  4.1

     total cpu time spent up to now is        8.5 secs

     total energy              =    -753.45261944 Ry
     estimated scf accuracy    <       0.00183270 Ry

     total magnetization       =     3.22 Bohr mag/cell
     absolute magnetization    =     3.52 Bohr mag/cell

     iteration #  4     ecut=   110.00 Ry     beta= 0.70
     Davidson diagonalization with overlap

---- Real-time Memory Report at c_bands before calling an iterative solver
            77 MiB given to the printing process from OS
             0 MiB allocation reported by mallinfo(arena+hblkhd)
        336074 MiB available memory on the node where the printing process lives
------------------
     ethr =  5.39E-06,  avg # of iterations =  4.5

     total cpu time spent up to now is       10.6 secs

     total energy              =    -753.45338655 Ry
     estimated scf accuracy    <       0.00022676 Ry

     total magnetization       =     3.21 Bohr mag/cell
     absolute magnetization    =     3.51 Bohr mag/cell

     iteration #  5     ecut=   110.00 Ry     beta= 0.70
     Davidson diagonalization with overlap

---- Real-time Memory Report at c_bands before calling an iterative solver
            78 MiB given to the printing process from OS
             0 MiB allocation reported by mallinfo(arena+hblkhd)
        336067 MiB available memory on the node where the printing process lives
------------------
     ethr =  6.67E-07,  avg # of iterations =  4.0

     total cpu time spent up to now is       12.5 secs

     total energy              =    -753.45342058 Ry
     estimated scf accuracy    <       0.00012561 Ry

     total magnetization       =     3.22 Bohr mag/cell
     absolute magnetization    =     3.52 Bohr mag/cell

     iteration #  6     ecut=   110.00 Ry     beta= 0.70
     Davidson diagonalization with overlap

---- Real-time Memory Report at c_bands before calling an iterative solver
            80 MiB given to the printing process from OS
             0 MiB allocation reported by mallinfo(arena+hblkhd)
        336057 MiB available memory on the node where the printing process lives
------------------
     ethr =  3.69E-07,  avg # of iterations =  3.0

     total cpu time spent up to now is       14.2 secs

     total energy              =    -753.45345146 Ry
     estimated scf accuracy    <       0.00000230 Ry

     total magnetization       =     3.22 Bohr mag/cell
     absolute magnetization    =     3.53 Bohr mag/cell

     iteration #  7     ecut=   110.00 Ry     beta= 0.70
     Davidson diagonalization with overlap

---- Real-time Memory Report at c_bands before calling an iterative solver
            81 MiB given to the printing process from OS
             0 MiB allocation reported by mallinfo(arena+hblkhd)
        336048 MiB available memory on the node where the printing process lives
------------------
     ethr =  6.76E-09,  avg # of iterations =  9.8

     total cpu time spent up to now is       17.6 secs

     total energy              =    -753.45345700 Ry
     estimated scf accuracy    <       0.00000196 Ry

     total magnetization       =     3.23 Bohr mag/cell
     absolute magnetization    =     3.53 Bohr mag/cell

     iteration #  8     ecut=   110.00 Ry     beta= 0.70
     Davidson diagonalization with overlap

---- Real-time Memory Report at c_bands before calling an iterative solver
            82 MiB given to the printing process from OS
             0 MiB allocation reported by mallinfo(arena+hblkhd)
        336041 MiB available memory on the node where the printing process lives
------------------
     ethr =  5.75E-09,  avg # of iterations =  2.6
 
     Magnetic moment per site  (integrated on atomic sphere of radius R)
     atom   1 (R=0.413)  charge= 15.5481  magn=  1.6860
     atom   2 (R=0.413)  charge= 15.5481  magn=  1.6860

     total cpu time spent up to now is       19.2 secs

     End of self-consistent calculation

 ------ SPIN UP ------------


          k = 0.0000 0.0000 0.0000 (  2779 PWs)   bands (ev):

   -76.7466 -76.6891 -40.1579 -39.8246 -39.8246 -39.8185 -39.7796 -39.7796
    10.2022  14.0219  16.5611  16.7460  16.7460  17.0447  17.0447  17.5106
    17.5106  18.5636  18.5636  18.8176  25.5592

     occupation numbers 
     1.0000   1.0000   1.0000   1.0000   1.0000   1.0000   1.0000   1.0000
     1.0000   1.0000   1.0000   1.0000   1.0000   1.0000   1.0000   1.0000
     1.0000   1.0000   1.0000   1.0000   0.0000

          k = 0.0000 0.0000 0.1002 (  2767 PWs)   bands (ev):

   -76.7427 -76.6930 -40.1354 -39.8415 -39.8215 -39.8215 -39.7826 -39.7826
    10.4749  13.9376  16.4943  16.6968  16.6968  16.9797  16.9797  17.6536
    17.6536  17.9286  18.5422  18.5422  27.0160

     occupation numbers 
     1.0000   1.0000   1.0000   1.0000   1.0000   1.0000   1.0000   1.0000
     1.0000   1.0000   1.0000   1.0000   1.0000   1.0000   1.0000   1.0000
     1.0000   1.0000   1.0000   1.0000   0.0000

          k = 0.0000 0.0000 0.2005 (  2786 PWs)   bands (ev):

   -76.7323 -76.7035 -40.0739 -39.9042 -39.8133 -39.8133 -39.7908 -39.7908
    11.2564  13.4644  16.3412  16.6539  16.6539  16.6958  16.8346  16.8346
    17.9508  17.9508  18.4478  18.4478  30.1431

     occupation numbers 
     1.0000   1.0000   1.0000   1.0000   1.0000   1.0000   1.0000   1.0000
     1.0000   1.0000   1.0000   1.0000   1.0000   1.0000   1.0000   1.0000
     1.0000   1.0000   1.0000   1.0000   0.0000

          k = 0.0000 0.0000-0.3007 (  2786 PWs)   bands (ev):

   -76.7179 -76.7179 -39.9894 -39.9894 -39.8021 -39.8021 -39.8021 -39.8021
    12.3963  12.3963  16.2715  16.2715  16.7033  16.7033  16.7033  16.7033
    18.2439  18.2439  18.2439  18.2439  33.9011

     occupation numbers 
     1.0000   1.0000   1.0000   1.0000   1.0000   1.0000   1.0000   1.0000
     1.0000   1.0000   1.0000   1.0000   1.0000   1.0000   1.0000   1.0000
     1.0000   1.0000   1.0000   1.0000   0.0000

          k = 0.0000 0.0962 0.0000 (  2759 PWs)   bands (ev):

   -76.7427 -76.6870 -40.1501 -39.8437 -39.8305 -39.8211 -39.7993 -39.7830
    10.4545  14.1818  16.4437  16.8296  16.8687  16.9854  17.1552  17.2905
    17.4365  17.6370  18.5919  20.1220  25.5971

     occupation numbers 
     1.0000   1.0000   1.0000   1.0000   1.0000   1.0000   1.0000   1.0000
     1.0000   1.0000   1.0000   1.0000   1.0000   1.0000   1.0000   1.0000
     1.0000   1.0000   1.0000   0.0000   0.0000

          k = 0.0000 0.0962 0.1002 (  2783 PWs)   bands (ev):

   -76.7390 -76.6908 -40.1288 -39.8469 -39.8401 -39.8273 -39.7990 -39.7862
    10.7229  14.1117  16.4390  16.6833  16.7944  16.8062  17.0849  17.2804
    17.6023  17.6408  18.5634  19.4375  27.1258

     occupation numbers 
     1.0000   1.0000   1.0000   1.0000   1.0000   1.0000   1.0000   1.0000
     1.0000   1.0000   1.0000   1.0000   1.0000   1.0000   1.0000   1.0000
     1.0000   1.0000   1.0000   0.0000   0.0000

          k = 0.0000 0.0962 0.2005 (  2786 PWs)   bands (ev):

   -76.7288 -76.7010 -40.0705 -39.9087 -39.8308 -39.8186 -39.8059 -39.7949
    11.4917  13.6643  16.3117  16.3369  16.5621  16.7553  16.9281  16.9377
    17.9206  17.9591  18.4523  18.7394  30.3028

     occupation numbers 
     1.0000   1.0000   1.0000   1.0000   1.0000   1.0000   1.0000   1.0000
     1.0000   1.0000   1.0000   1.0000   1.0000   1.0000   1.0000   1.0000
     1.0000   1.0000   1.0000   1.0000   0.0000

          k = 0.0000 0.0962-0.3007 (  2780 PWs)   bands (ev):

   -76.7149 -76.7149 -39.9902 -39.9902 -39.8181 -39.8181 -39.8068 -39.8068
    12.6133  12.6133  16.1554  16.1554  16.6820  16.6820  16.8049  16.8049
    18.2303  18.2303  18.3317  18.3317  34.0798

     occupation numbers 
     1.0000   1.0000   1.0000   1.0000   1.0000   1.0000   1.0000   1.0000
     1.0000   1.0000   1.0000   1.0000   1.0000   1.0000   1.0000   1.0000
     1.0000   1.0000   1.0000   1.0000   0.0000

          k = 0.0000 0.1925 0.0000 (  2753 PWs)   bands (ev):

   -76.7321 -76.6815 -40.1279 -39.8964 -39.8527 -39.8464 -39.8292 -39.7926
    11.1829  14.5784  16.1943  16.4158  16.7667  17.1392  17.2153  17.2539
    17.3601  17.4651  18.6500  21.7606  25.7334

     occupation numbers 
     1.0000   1.0000   1.0000   1.0000   1.0000   1.0000   1.0000   1.0000
     1.0000   1.0000   1.0000   1.0000   1.0000   1.0000   1.0000   1.0000
     1.0000   1.0000   1.0000   0.0000   0.0000

          k = 0.0000 0.1925 0.1002 (  2770 PWs)   bands (ev):

   -76.7287 -76.6849 -40.1105 -39.8919 -39.8749 -39.8429 -39.8293 -39.7962
    11.4348  14.5520  16.1426  16.2384  16.6442  17.0306  17.0583  17.3601
    17.5563  17.6064  18.6060  20.6802  27.4858

     occupation numbers 
     1.0000   1.0000   1.0000   1.0000   1.0000   1.0000   1.0000   1.0000
     1.0000   1.0000   1.0000   1.0000   1.0000   1.0000   1.0000   1.0000
     1.0000   1.0000   1.0000   0.0000   0.0000

          k = 0.0000 0.1925 0.2005 (  2773 PWs)   bands (ev):

   -76.7194 -76.6941 -40.0628 -39.9295 -39.8759 -39.8392 -39.8330 -39.8061
    12.1534  14.1801  15.8183  16.2929  16.3656  16.8610  17.0071  17.2222
    17.8832  18.0235  18.4611  19.3776  30.7821

     occupation numbers 
     1.0000   1.0000   1.0000   1.0000   1.0000   1.0000   1.0000   1.0000
     1.0000   1.0000   1.0000   1.0000   1.0000   1.0000   1.0000   1.0000
     1.0000   1.0000   1.0000   0.2881   0.0000

          k = 0.0000 0.1925-0.3007 (  2778 PWs)   bands (ev):

   -76.7068 -76.7068 -39.9969 -39.9969 -39.8570 -39.8570 -39.8196 -39.8196
    13.1961  13.1961  15.9455  15.9455  16.5931  16.5931  17.0761  17.0761
    18.2089  18.2089  18.5701  18.5701  34.5807

     occupation numbers 
     1.0000   1.0000   1.0000   1.0000   1.0000   1.0000   1.0000   1.0000
     1.0000   1.0000   1.0000   1.0000   1.0000   1.0000   1.0000   1.0000
     1.0000   1.0000   1.0000   1.0000   0.0000

          k = 0.0000 0.2887 0.0000 (  2777 PWs)   bands (ev):

   -76.7170 -76.6743 -40.0948 -39.9688 -39.9246 -39.8677 -39.8430 -39.8063
    12.2796  14.8915  15.6656  16.0477  16.6384  17.0344  17.1281  17.6042
    17.7190  17.9106  18.7015  23.5924  26.0080

     occupation numbers 
     1.0000   1.0000   1.0000   1.0000   1.0000   1.0000   1.0000   1.0000
     1.0000   1.0000   1.0000   1.0000   1.0000   1.0000   1.0000   1.0000
     1.0000   1.0000   1.0000   0.0000   0.0000

          k = 0.0000 0.2887 0.1002 (  2765 PWs)   bands (ev):

   -76.7142 -76.6772 -40.0865 -39.9597 -39.9380 -39.8636 -39.8471 -39.8104
    12.4867  14.9174  15.5284  16.1031  16.4935  17.0747  17.1112  17.7491
    17.7564  17.8730  18.6454  21.9746  28.1448

     occupation numbers 
     1.0000   1.0000   1.0000   1.0000   1.0000   1.0000   1.0000   1.0000
     1.0000   1.0000   1.0000   1.0000   1.0000   1.0000   1.0000   1.0000
     1.0000   1.0000   1.0000   0.0000   0.0000

          k = 0.0000 0.2887 0.2005 (  2755 PWs)   bands (ev):

   -76.7063 -76.6850 -40.0619 -39.9805 -39.9261 -39.8632 -39.8524 -39.8216
    13.0640  14.6303  15.4870  16.0953  16.4016  16.9475  17.1983  17.6193
    18.0138  18.1682  18.4860  20.1478  31.4947

     occupation numbers 
     1.0000   1.0000   1.0000   1.0000   1.0000   1.0000   1.0000   1.0000
     1.0000   1.0000   1.0000   1.0000   1.0000   1.0000   1.0000   1.0000
     1.0000   1.0000   1.0000   0.0000   0.0000

          k = 0.0000 0.2887-0.3007 (  2764 PWs)   bands (ev):

   -76.6957 -76.6957 -40.0239 -40.0239 -39.8921 -39.8921 -39.8370 -39.8370
    13.8671  13.8671  15.7834  15.7834  16.6599  16.6599  17.3949  17.3949
    18.2558  18.2558  18.9096  18.9097  34.1926

     occupation numbers 
     1.0000   1.0000   1.0000   1.0000   1.0000   1.0000   1.0000   1.0000
     1.0000   1.0000   1.0000   1.0000   1.0000   1.0000   1.0000   1.0000
     1.0000   1.0000   1.0000   1.0000   0.0000

          k = 0.0000 0.3849 0.0000 (  2762 PWs)   bands (ev):

   -76.7010 -76.6680 -40.0562 -40.0417 -39.9951 -39.8885 -39.8622 -39.8203
    13.4610  14.8082  15.1333  16.1736  16.7729  16.8365  16.9080  18.2589
    18.3599  18.3922  18.7335  25.5850  26.1668

     occupation numbers 
     1.0000   1.0000   1.0000   1.0000   1.0000   1.0000   1.0000   1.0000
     1.0000   1.0000   1.0000   1.0000   1.0000   1.0000   1.0000   1.0000
     1.0000   1.0000   1.0000   0.0000   0.0000

          k = 0.0000 0.3849 0.1002 (  2759 PWs)   bands (ev):

   -76.6988 -76.6703 -40.0793 -40.0170 -39.9951 -39.8839 -39.8639 -39.8249
    13.5491  14.8163  15.1855  15.9901  16.7307  16.9292  17.2749  18.2627
    18.2957  18.3059  18.6921  23.2338  28.5553

     occupation numbers 
     1.0000   1.0000   1.0000   1.0000   1.0000   1.0000   1.0000   1.0000
     1.0000   1.0000   1.0000   1.0000   1.0000   1.0000   1.0000   1.0000
     1.0000   1.0000   1.0000   0.0000   0.0000

          k = 0.0000 0.3849 0.2005 (  2764 PWs)   bands (ev):

   -76.6928 -76.6763 -40.0870 -40.0436 -39.9489 -39.8758 -39.8715 -39.8374
    13.8047  14.6134  15.3472  15.8496  16.8798  17.1903  17.6226  17.9692
    18.3719  18.4060  18.5972  21.0412  29.9051

     occupation numbers 
     1.0000   1.0000   1.0000   1.0000   1.0000   1.0000   1.0000   1.0000
     1.0000   1.0000   1.0000   1.0000   1.0000   1.0000   1.0000   1.0000
     1.0000   1.0000   1.0000   0.0000   0.0000

          k = 0.0000 0.3849-0.3007 (  2764 PWs)   bands (ev):

   -76.6845 -76.6845 -40.0728 -40.0728 -39.9048 -39.9048 -39.8544 -39.8544
    14.1926  14.1926  15.6268  15.6268  17.3102  17.3102  17.5673  17.5673
    18.4819  18.4819  19.3933  19.3933  30.9992

     occupation numbers 
     1.0000   1.0000   1.0000   1.0000   1.0000   1.0000   1.0000   1.0000
     1.0000   1.0000   1.0000   1.0000   1.0000   1.0000   1.0000   1.0000
     1.0000   1.0000   0.0141   0.0141   0.0000

          k = 0.0000 0.4811 0.0000 (  2772 PWs)   bands (ev):

   -76.6881 -76.6647 -40.0954 -40.0460 -40.0209 -39.9034 -39.8834 -39.8308
    14.2112  14.6054  14.8180  16.5518  16.7012  16.7505  17.0050  18.6664
    18.7487  18.7883  19.5570  24.5892  27.6423

     occupation numbers 
     1.0000   1.0000   1.0000   1.0000   1.0000   1.0000   1.0000   1.0000
     1.0000   1.0000   1.0000   1.0000   1.0000   1.0000   1.0000   1.0000
     1.0000   1.0000   0.0000   0.0000   0.0000

          k = 0.0000 0.4811 0.1002 (  2764 PWs)   bands (ev):

   -76.6865 -76.6662 -40.1105 -40.0615 -39.9920 -39.8986 -39.8814 -39.8357
    14.0895  14.5808  15.1463  15.8689  16.8132  17.0249  17.6615  18.5294
    18.6877  18.8299  19.3881  23.6879  27.2189

     occupation numbers 
     1.0000   1.0000   1.0000   1.0000   1.0000   1.0000   1.0000   1.0000
     1.0000   1.0000   1.0000   1.0000   1.0000   1.0000   1.0000   1.0000
     1.0000   1.0000   0.0489   0.0000   0.0000

          k = 0.0000 0.4811 0.2005 (  2765 PWs)   bands (ev):

   -76.6822 -76.6705 -40.1236 -40.0917 -39.9449 -39.8853 -39.8850 -39.8490
    14.0420  14.5016  15.3277  15.6267  17.1306  17.3263  18.1072  18.6817
    18.7222  18.8134  19.0263  21.9142  27.4549

     occupation numbers 
     1.0000   1.0000   1.0000   1.0000   1.0000   1.0000   1.0000   1.0000
     1.0000   1.0000   1.0000   1.0000   1.0000   1.0000   1.0000   1.0000
     1.0000   1.0000   1.0000   0.0000   0.0000

          k = 0.0000 0.4811-0.3007 (  2778 PWs)   bands (ev):

   -76.6764 -76.6764 -40.1166 -40.1166 -39.9060 -39.9060 -39.8672 -39.8672
    14.2176  14.2176  15.4880  15.4880  17.5957  17.5957  18.0683  18.0683
    18.7699  18.7699  20.2491  20.2491  28.2210

     occupation numbers 
     1.0000   1.0000   1.0000   1.0000   1.0000   1.0000   1.0000   1.0000
     1.0000   1.0000   1.0000   1.0000   1.0000   1.0000   1.0000   1.0000
     1.0000   1.0000   0.0000   0.0000   0.0000

          k = 0.0000-0.5774 0.0000 (  2746 PWs)   bands (ev):

   -76.6828 -76.6640 -40.1150 -40.0644 -40.0045 -39.9089 -39.8946 -39.8346
    14.4381  14.4795  14.7138  16.6533  16.6935  16.8264  17.0763  18.7529
    18.8143  18.9484  20.7636  22.8752  28.9797

     occupation numbers 
     1.0000   1.0000   1.0000   1.0000   1.0000   1.0000   1.0000   1.0000
     1.0000   1.0000   1.0000   1.0000   1.0000   1.0000   1.0000   1.0000
     1.0000   1.0000   0.0000   0.0000   0.0000

          k = 0.0000-0.5774 0.1002 (  2768 PWs)   bands (ev):

   -76.6815 -76.6653 -40.1270 -40.0793 -39.9816 -39.9039 -39.8905 -39.8396
    14.1793  14.4822  15.1736  15.8395  16.7708  17.1111  17.8819  18.5672
    18.8398  18.9411  20.5285  22.6678  28.2243

     occupation numbers 
     1.0000   1.0000   1.0000   1.0000   1.0000   1.0000   1.0000   1.0000
     1.0000   1.0000   1.0000   1.0000   1.0000   1.0000   1.0000   1.0000
     1.0000   1.0000   0.0000   0.0000   0.0000

          k = 0.0000-0.5774 0.2005 (  2778 PWs)   bands (ev):

   -76.6781 -76.6687 -40.1394 -40.1094 -39.9397 -39.8904 -39.8895 -39.8533
    14.0562  14.4563  15.3618  15.5189  17.1043  17.4698  18.1312  18.8098
    18.8651  18.9213  20.1392  21.9950  27.3467

     occupation numbers 
     1.0000   1.0000   1.0000   1.0000   1.0000   1.0000   1.0000   1.0000
     1.0000   1.0000   1.0000   1.0000   1.0000   1.0000   1.0000   1.0000
     1.0000   1.0000   0.0000   0.0000   0.0000

          k = 0.0000-0.5774-0.3007 (  2764 PWs)   bands (ev):

   -76.6734 -76.6734 -40.1334 -40.1334 -39.9055 -39.9055 -39.8719 -39.8719
    14.1992  14.1992  15.4353  15.4353  17.5935  17.5935  18.3139  18.3139
    18.8937  18.8937  20.9260  20.9260  26.9339

     occupation numbers 
     1.0000   1.0000   1.0000   1.0000   1.0000   1.0000   1.0000   1.0000
     1.0000   1.0000   1.0000   1.0000   1.0000   1.0000   1.0000   1.0000
     1.0000   1.0000   0.0000   0.0000   0.0000

          k = 0.0833 0.1443 0.0000 (  2765 PWs)   bands (ev):

   -76.7355 -76.6832 -40.1351 -39.8766 -39.8519 -39.8264 -39.8262 -39.7919
    10.9459  14.4669  16.2481  16.6730  16.8651  16.9671  17.1192  17.2019
    17.3951  17.5136  18.6224  21.3043  25.6863

     occupation numbers 
     1.0000   1.0000   1.0000   1.0000   1.0000   1.0000   1.0000   1.0000
     1.0000   1.0000   1.0000   1.0000   1.0000   1.0000   1.0000   1.0000
     1.0000   1.0000   1.0000   0.0000   0.0000

          k = 0.0833 0.1443 0.1002 (  2762 PWs)   bands (ev):

   -76.7320 -76.6867 -40.1163 -39.8721 -39.8658 -39.8411 -39.8178 -39.7953
    11.2040  14.4262  16.2800  16.3383  16.6964  16.9632  17.0358  17.2698
    17.5541  17.6359  18.5860  20.3428  27.3628

     occupation numbers 
     1.0000   1.0000   1.0000   1.0000   1.0000   1.0000   1.0000   1.0000
     1.0000   1.0000   1.0000   1.0000   1.0000   1.0000   1.0000   1.0000
     1.0000   1.0000   1.0000   0.0000   0.0000

          k = 0.0833 0.1443 0.2005 (  2772 PWs)   bands (ev):

   -76.7224 -76.6963 -40.0648 -39.9211 -39.8601 -39.8376 -39.8213 -39.8045
    11.9422  14.0294  15.9422  16.3216  16.3959  16.8544  16.9512  17.1368
    17.9147  17.9770  18.4592  19.1929  30.6249

     occupation numbers 
     1.0000   1.0000   1.0000   1.0000   1.0000   1.0000   1.0000   1.0000
     1.0000   1.0000   1.0000   1.0000   1.0000   1.0000   1.0000   1.0000
     1.0000   1.0000   1.0000   1.0000   0.0000

          k = 0.0833 0.1443-0.3007 (  2782 PWs)   bands (ev):

   -76.7094 -76.7094 -39.9937 -39.9937 -39.8450 -39.8450 -39.8163 -39.8163
    13.0170  13.0170  16.0017  16.0017  16.5983  16.5983  17.0040  17.0040
    18.2148  18.2148  18.4962  18.4962  34.4264

     occupation numbers 
     1.0000   1.0000   1.0000   1.0000   1.0000   1.0000   1.0000   1.0000
     1.0000   1.0000   1.0000   1.0000   1.0000   1.0000   1.0000   1.0000
     1.0000   1.0000   1.0000   1.0000   0.0000

          k = 0.0833 0.2406 0.0000 (  2765 PWs)   bands (ev):

   -76.7226 -76.6768 -40.1074 -39.9348 -39.9056 -39.8544 -39.8375 -39.8072
    11.8681  14.8749  15.9375  15.9791  16.7063  16.9496  17.2461  17.3599
    17.5764  17.8474  18.6568  22.9338  25.9131

     occupation numbers 
     1.0000   1.0000   1.0000   1.0000   1.0000   1.0000   1.0000   1.0000
     1.0000   1.0000   1.0000   1.0000   1.0000   1.0000   1.0000   1.0000
     1.0000   1.0000   1.0000   0.0000   0.0000

          k = 0.0833 0.2406 0.1002 (  2767 PWs)   bands (ev):

   -76.7195 -76.6799 -40.0947 -39.9287 -39.9163 -39.8600 -39.8365 -39.8108
    12.0978  14.8929  15.7296  16.0329  16.6002  16.8878  17.1900  17.4547
    17.7599  17.8198  18.6168  21.5313  27.8935

     occupation numbers 
     1.0000   1.0000   1.0000   1.0000   1.0000   1.0000   1.0000   1.0000
     1.0000   1.0000   1.0000   1.0000   1.0000   1.0000   1.0000   1.0000
     1.0000   1.0000   1.0000   0.0000   0.0000

          k = 0.0833 0.2406 0.2005 (  2766 PWs)   bands (ev):

   -76.7112 -76.6883 -40.0594 -39.9579 -39.9057 -39.8646 -39.8393 -39.8207
    12.7471  14.5715  15.5747  16.1494  16.3101  16.7517  17.1678  17.4835
    18.0025  18.0932  18.4927  19.8825  31.2610

     occupation numbers 
     1.0000   1.0000   1.0000   1.0000   1.0000   1.0000   1.0000   1.0000
     1.0000   1.0000   1.0000   1.0000   1.0000   1.0000   1.0000   1.0000
     1.0000   1.0000   1.0000   0.0000   0.0000

          k = 0.0833 0.2406-0.3007 (  2774 PWs)   bands (ev):

   -76.6998 -76.6998 -40.0097 -40.0097 -39.8813 -39.8813 -39.8330 -39.8330
    13.6752  13.6752  15.8535  15.8535  16.4758  16.4758  17.3107  17.3107
    18.2591  18.2591  18.7893  18.7893  34.9745

     occupation numbers 
     1.0000   1.0000   1.0000   1.0000   1.0000   1.0000   1.0000   1.0000
     1.0000   1.0000   1.0000   1.0000   1.0000   1.0000   1.0000   1.0000
     1.0000   1.0000   1.0000   1.0000   0.0000

          k = 0.0833 0.3368 0.0000 (  2763 PWs)   bands (ev):

   -76.7070 -76.6702 -40.0713 -40.0056 -39.9688 -39.8824 -39.8542 -39.8238
    13.0487  14.9972  15.3550  15.9303  16.6935  16.7410  17.1320  17.7044
    18.1187  18.4588  18.6839  24.8075  26.2835

     occupation numbers 
     1.0000   1.0000   1.0000   1.0000   1.0000   1.0000   1.0000   1.0000
     1.0000   1.0000   1.0000   1.0000   1.0000   1.0000   1.0000   1.0000
     1.0000   1.0000   1.0000   0.0000   0.0000

          k = 0.0833 0.3368 0.1002 (  2761 PWs)   bands (ev):

   -76.7046 -76.6727 -40.0746 -39.9933 -39.9734 -39.8828 -39.8547 -39.8273
    13.2042  15.0409  15.2762  15.9731  16.5057  16.9686  17.0921  17.7526
    18.1987  18.3039  18.7097  22.8117  28.6929

     occupation numbers 
     1.0000   1.0000   1.0000   1.0000   1.0000   1.0000   1.0000   1.0000
     1.0000   1.0000   1.0000   1.0000   1.0000   1.0000   1.0000   1.0000
     1.0000   1.0000   1.0000   0.0000   0.0000

          k = 0.0833 0.3368 0.2005 (  2765 PWs)   bands (ev):

   -76.6978 -76.6794 -40.0697 -40.0158 -39.9413 -39.8830 -39.8591 -39.8375
    13.6270  14.7565  15.4186  16.0038  16.4428  16.9415  17.2166  17.8179
    18.2262  18.4106  18.6878  20.7433  31.4869

     occupation numbers 
     1.0000   1.0000   1.0000   1.0000   1.0000   1.0000   1.0000   1.0000
     1.0000   1.0000   1.0000   1.0000   1.0000   1.0000   1.0000   1.0000
     1.0000   1.0000   1.0000   0.0000   0.0000

          k = 0.0833 0.3368-0.3007 (  2772 PWs)   bands (ev):

   -76.6886 -76.6886 -40.0481 -40.0481 -39.9036 -39.9036 -39.8516 -39.8516
    14.1980  14.1980  15.7514  15.7514  16.6798  16.6798  17.5018  17.5018
    18.4902  18.4902  19.2537  19.2537  32.7438

     occupation numbers 
     1.0000   1.0000   1.0000   1.0000   1.0000   1.0000   1.0000   1.0000
     1.0000   1.0000   1.0000   1.0000   1.0000   1.0000   1.0000   1.0000
     1.0000   1.0000   1.0000   1.0000   0.0000

          k = 0.0833 0.4330 0.0000 (  2765 PWs)   bands (ev):

   -76.6924 -76.6655 -40.0681 -40.0333 -40.0232 -39.9054 -39.8755 -39.8380
    14.0663  14.8012  14.9655  16.1802  16.6147  16.8950  16.9064  18.2894
    18.5778  18.6982  19.3007  25.8574  26.8417

     occupation numbers 
     1.0000   1.0000   1.0000   1.0000   1.0000   1.0000   1.0000   1.0000
     1.0000   1.0000   1.0000   1.0000   1.0000   1.0000   1.0000   1.0000
     1.0000   1.0000   1.0000   0.0000   0.0000

          k = 0.0833 0.4330 0.1002 (  2766 PWs)   bands (ev):

   -76.6906 -76.6673 -40.0889 -40.0408 -39.9955 -39.9027 -39.8742 -39.8414
    14.0441  14.7997  15.1415  15.8890  16.6914  17.0056  17.2358  18.2424
    18.5209  18.6348  19.2947  23.9399  27.8339

     occupation numbers 
     1.0000   1.0000   1.0000   1.0000   1.0000   1.0000   1.0000   1.0000
     1.0000   1.0000   1.0000   1.0000   1.0000   1.0000   1.0000   1.0000
     1.0000   1.0000   1.0000   0.0000   0.0000

          k = 0.0833 0.4330 0.2005 (  2765 PWs)   bands (ev):

   -76.6857 -76.6723 -40.1022 -40.0691 -39.9487 -39.8960 -39.8766 -39.8508
    14.1045  14.6588  15.3395  15.7985  16.7999  17.2536  17.6694  17.9958
    18.4110  18.7741  19.3471  21.7932  28.6062

     occupation numbers 
     1.0000   1.0000   1.0000   1.0000   1.0000   1.0000   1.0000   1.0000
     1.0000   1.0000   1.0000   1.0000   1.0000   1.0000   1.0000   1.0000
     1.0000   1.0000   0.9954   0.0000   0.0000

          k = 0.0833 0.4330-0.3007 (  2778 PWs)   bands (ev):

   -76.6790 -76.6790 -40.0941 -40.0941 -39.9115 -39.9115 -39.8661 -39.8661
    14.3349  14.3349  15.6098  15.6098  17.2450  17.2450  17.6626  17.6626
    18.7158  18.7158  20.1383  20.1383  29.6220

     occupation numbers 
     1.0000   1.0000   1.0000   1.0000   1.0000   1.0000   1.0000   1.0000
     1.0000   1.0000   1.0000   1.0000   1.0000   1.0000   1.0000   1.0000
     1.0000   1.0000   0.0000   0.0000   0.0000

          k = 0.0833 0.5292 0.0000 (  2760 PWs)   bands (ev):

   -76.6828 -76.6640 -40.1042 -40.0545 -40.0047 -39.9183 -39.8944 -39.8463
    14.4952  14.6330  14.7722  16.5738  16.5917  16.7133  17.0755  18.7033
    18.7210  18.8117  20.6198  23.6674  28.7864

     occupation numbers 
     1.0000   1.0000   1.0000   1.0000   1.0000   1.0000   1.0000   1.0000
     1.0000   1.0000   1.0000   1.0000   1.0000   1.0000   1.0000   1.0000
     1.0000   1.0000   0.0000   0.0000   0.0000

          k = 0.0833 0.5292 0.1002 (  2763 PWs)   bands (ev):

   -76.6815 -76.6652 -40.1165 -40.0697 -39.9827 -39.9125 -39.8912 -39.8496
    14.2690  14.6231  15.2216  15.8272  16.6352  17.1743  17.5380  18.5040
    18.7248  18.8377  20.5396  23.3545  27.6741

     occupation numbers 
     1.0000   1.0000   1.0000   1.0000   1.0000   1.0000   1.0000   1.0000
     1.0000   1.0000   1.0000   1.0000   1.0000   1.0000   1.0000   1.0000
     1.0000   1.0000   0.0000   0.0000   0.0000

          k = 0.0833 0.5292 0.2005 (  2770 PWs)   bands (ev):

   -76.6781 -76.6687 -40.1291 -40.0998 -39.9450 -39.8992 -39.8909 -39.8581
    14.1675  14.5915  15.3722  15.6395  16.8063  17.5548  17.9527  18.2611
    18.6815  18.8856  20.5491  22.4161  27.0688

     occupation numbers 
     1.0000   1.0000   1.0000   1.0000   1.0000   1.0000   1.0000   1.0000
     1.0000   1.0000   1.0000   1.0000   1.0000   1.0000   1.0000   1.0000
     1.0000   1.0000   0.0000   0.0000   0.0000

          k = 0.0833 0.5292-0.3007 (  2766 PWs)   bands (ev):

   -76.6734 -76.6734 -40.1234 -40.1234 -39.9145 -39.9145 -39.8730 -39.8730
    14.3198  14.3198  15.5160  15.5160  17.3553  17.3553  18.1122  18.1122
    18.7589  18.7589  21.2664  21.2664  27.3600

     occupation numbers 
     1.0000   1.0000   1.0000   1.0000   1.0000   1.0000   1.0000   1.0000
     1.0000   1.0000   1.0000   1.0000   1.0000   1.0000   1.0000   1.0000
     1.0000   1.0000   0.0000   0.0000   0.0000

          k = 0.1667 0.2887 0.0000 (  2758 PWs)   bands (ev):

   -76.7092 -76.6710 -40.0765 -39.9781 -39.9693 -39.8763 -39.8516 -39.8331
    12.9038  15.2097  15.4735  15.6699  16.6559  16.7074  17.2496  17.4209
    18.1029  18.4885  18.6370  24.5464  26.3148

     occupation numbers 
     1.0000   1.0000   1.0000   1.0000   1.0000   1.0000   1.0000   1.0000
     1.0000   1.0000   1.0000   1.0000   1.0000   1.0000   1.0000   1.0000
     1.0000   1.0000   1.0000   0.0000   0.0000

          k = 0.1667 0.2887 0.1002 (  2766 PWs)   bands (ev):

   -76.7066 -76.6736 -40.0745 -39.9776 -39.9637 -39.8854 -39.8470 -39.8368
    13.0824  15.3011  15.3231  15.7246  16.5881  16.7155  17.1492  17.5527
    18.2149  18.2881  18.7254  22.6754  28.6538

     occupation numbers 
     1.0000   1.0000   1.0000   1.0000   1.0000   1.0000   1.0000   1.0000
     1.0000   1.0000   1.0000   1.0000   1.0000   1.0000   1.0000   1.0000
     1.0000   1.0000   1.0000   0.0000   0.0000

          k = 0.1667 0.2887 0.2005 (  2775 PWs)   bands (ev):

   -76.6997 -76.6806 -40.0626 -40.0035 -39.9318 -39.8927 -39.8489 -39.8459
    13.5726  14.8808  15.5516  15.8788  16.3688  16.5829  17.1646  17.7505
    18.2192  18.4096  18.7661  20.6709  32.0154

     occupation numbers 
     1.0000   1.0000   1.0000   1.0000   1.0000   1.0000   1.0000   1.0000
     1.0000   1.0000   1.0000   1.0000   1.0000   1.0000   1.0000   1.0000
     1.0000   1.0000   1.0000   0.0000   0.0000

          k = 0.1667 0.2887-0.3007 (  2774 PWs)   bands (ev):

   -76.6901 -76.6901 -40.0367 -40.0367 -39.9031 -39.9031 -39.8530 -39.8530
    14.2377  14.2377  15.8675  15.8675  16.3100  16.3100  17.4447  17.4447
    18.5402  18.5402  19.2391  19.2391  34.4719

     occupation numbers 
     1.0000   1.0000   1.0000   1.0000   1.0000   1.0000   1.0000   1.0000
     1.0000   1.0000   1.0000   1.0000   1.0000   1.0000   1.0000   1.0000
     1.0000   1.0000   1.0000   1.0000   0.0000

          k = 0.1667 0.3849 0.0000 (  2775 PWs)   bands (ev):

   -76.6948 -76.6661 -40.0400 -40.0333 -40.0112 -39.9086 -39.8713 -39.8583
    14.0314  15.1195  15.1741  15.6668  16.4766  16.8529  17.0266  17.7706
    18.5666  18.6158  19.3548  26.4442  26.8050

     occupation numbers 
     1.0000   1.0000   1.0000   1.0000   1.0000   1.0000   1.0000   1.0000
     1.0000   1.0000   1.0000   1.0000   1.0000   1.0000   1.0000   1.0000
     1.0000   1.0000   0.9650   0.0000   0.0000

          k = 0.1667 0.3849 0.1002 (  2765 PWs)   bands (ev):

   -76.6929 -76.6680 -40.0669 -40.0290 -39.9852 -39.9152 -39.8687 -39.8577
    14.0963  15.0539  15.2650  15.7449  16.5021  16.8640  16.9895  17.8276
    18.4148  18.6522  19.4267  24.0040  29.2166

     occupation numbers 
     1.0000   1.0000   1.0000   1.0000   1.0000   1.0000   1.0000   1.0000
     1.0000   1.0000   1.0000   1.0000   1.0000   1.0000   1.0000   1.0000
     1.0000   1.0000   0.0000   0.0000   0.0000

          k = 0.1667 0.3849 0.2005 (  2772 PWs)   bands (ev):

   -76.6876 -76.6733 -40.0796 -40.0496 -39.9449 -39.9174 -39.8733 -39.8578
    14.2817  14.8472  15.5065  15.9541  16.4049  16.7240  17.1403  17.8493
    18.3282  18.7968  19.5945  21.8209  30.3571

     occupation numbers 
     1.0000   1.0000   1.0000   1.0000   1.0000   1.0000   1.0000   1.0000
     1.0000   1.0000   1.0000   1.0000   1.0000   1.0000   1.0000   1.0000
     1.0000   1.0000   0.0000   0.0000   0.0000

          k = 0.1667 0.3849-0.3007 (  2766 PWs)   bands (ev):

   -76.6805 -76.6805 -40.0716 -40.0716 -39.9213 -39.9213 -39.8684 -39.8684
    14.5550  14.5550  15.8383  15.8383  16.5049  16.5049  17.4329  17.4329
    18.7611  18.7611  20.2529  20.2529  31.4761

     occupation numbers 
     1.0000   1.0000   1.0000   1.0000   1.0000   1.0000   1.0000   1.0000
     1.0000   1.0000   1.0000   1.0000   1.0000   1.0000   1.0000   1.0000
     1.0000   1.0000   0.0000   0.0000   0.0000

          k = 0.1667 0.4811 0.0000 (  2764 PWs)   bands (ev):

   -76.6829 -76.6639 -40.0764 -40.0344 -40.0052 -39.9376 -39.8939 -39.8757
    14.7220  14.9054  14.9540  16.0085  16.4341  16.7748  17.0696  18.2399
    18.6006  18.7793  20.5888  25.3728  28.5018

     occupation numbers 
     1.0000   1.0000   1.0000   1.0000   1.0000   1.0000   1.0000   1.0000
     1.0000   1.0000   1.0000   1.0000   1.0000   1.0000   1.0000   1.0000
     1.0000   1.0000   0.0000   0.0000   0.0000

          k = 0.1667 0.4811 0.1002 (  2766 PWs)   bands (ev):

   -76.6816 -76.6652 -40.0891 -40.0519 -39.9826 -39.9343 -39.8941 -39.8711
    14.5323  14.9969  15.2076  15.7848  16.4844  16.9242  17.1819  18.2327
    18.4134  18.8377  20.6620  24.6946  27.5618

     occupation numbers 
     1.0000   1.0000   1.0000   1.0000   1.0000   1.0000   1.0000   1.0000
     1.0000   1.0000   1.0000   1.0000   1.0000   1.0000   1.0000   1.0000
     1.0000   1.0000   0.0000   0.0000   0.0000

          k = 0.1667 0.4811 0.2005 (  2767 PWs)   bands (ev):

   -76.6781 -76.6687 -40.1032 -40.0790 -39.9577 -39.9243 -39.8930 -39.8655
    14.4748  14.9084  15.3993  15.9250  16.3822  17.0738  17.4464  17.9241
    18.4332  18.9071  20.9504  23.1096  27.7373

     occupation numbers 
     1.0000   1.0000   1.0000   1.0000   1.0000   1.0000   1.0000   1.0000
     1.0000   1.0000   1.0000   1.0000   1.0000   1.0000   1.0000   1.0000
     1.0000   1.0000   0.0000   0.0000   0.0000

          k = 0.1667 0.4811-0.3007 (  2770 PWs)   bands (ev):

   -76.6734 -76.6734 -40.0998 -40.0998 -39.9372 -39.9372 -39.8744 -39.8744
    14.6246  14.6246  15.7232  15.7232  16.7923  16.7923  17.6187  17.6187
    18.7634  18.7634  21.7246  21.7246  28.6011

     occupation numbers 
     1.0000   1.0000   1.0000   1.0000   1.0000   1.0000   1.0000   1.0000
     1.0000   1.0000   1.0000   1.0000   1.0000   1.0000   1.0000   1.0000
     1.0000   1.0000   0.0000   0.0000   0.0000

          k = 0.1667 0.5774 0.0000 (  2776 PWs)   bands (ev):

   -76.6777 -76.6639 -40.0920 -40.0421 -39.9876 -39.9493 -39.9070 -39.8819
    14.8343  14.8433  14.8918  16.2477  16.4831  16.6181  17.1626  18.5623
    18.5949  18.7329  21.8796  23.5363  29.9605

     occupation numbers 
     1.0000   1.0000   1.0000   1.0000   1.0000   1.0000   1.0000   1.0000
     1.0000   1.0000   1.0000   1.0000   1.0000   1.0000   1.0000   1.0000
     1.0000   1.0000   0.0000   0.0000   0.0000

          k = 0.1667 0.5774 0.1002 (  2763 PWs)   bands (ev):

   -76.6768 -76.6648 -40.1019 -40.0581 -39.9812 -39.9324 -39.9094 -39.8767
    14.5445  14.9112  15.3751  15.7639  16.4023  17.0548  17.2817  18.3876
    18.5599  18.7777  21.9590  23.4640  28.7885

     occupation numbers 
     1.0000   1.0000   1.0000   1.0000   1.0000   1.0000   1.0000   1.0000
     1.0000   1.0000   1.0000   1.0000   1.0000   1.0000   1.0000   1.0000
     1.0000   1.0000   0.0000   0.0000   0.0000

          k = 0.1667 0.5774 0.2005 (  2759 PWs)   bands (ev):

   -76.6742 -76.6674 -40.1142 -40.0884 -39.9650 -39.9228 -39.8999 -39.8690
    14.4671  14.9179  15.4426  15.8713  16.2994  17.2765  17.5860  17.9942
    18.5797  18.8147  22.2266  23.2008  27.5844

     occupation numbers 
     1.0000   1.0000   1.0000   1.0000   1.0000   1.0000   1.0000   1.0000
     1.0000   1.0000   1.0000   1.0000   1.0000   1.0000   1.0000   1.0000
     1.0000   1.0000   0.0000   0.0000   0.0000

          k = 0.1667 0.5774-0.3007 (  2754 PWs)   bands (ev):

   -76.6708 -76.6708 -40.1104 -40.1104 -39.9437 -39.9437 -39.8755 -39.8755
    14.6268  14.6268  15.6809  15.6809  16.8305  16.8305  17.8375  17.8375
    18.6969  18.6969  22.7139  22.7139  27.1371

     occupation numbers 
     1.0000   1.0000   1.0000   1.0000   1.0000   1.0000   1.0000   1.0000
     1.0000   1.0000   1.0000   1.0000   1.0000   1.0000   1.0000   1.0000
     1.0000   1.0000   0.0000   0.0000   0.0000

          k = 0.2500 0.4330 0.0000 (  2758 PWs)   bands (ev):

   -76.6829 -76.6639 -40.0524 -40.0315 -40.0054 -39.9430 -39.8976 -39.8937
    14.8873  14.9836  15.4073  15.4114  16.3429  16.8087  17.0782  17.9642
    18.5471  18.7774  20.6124  27.0822  28.0549

     occupation numbers 
     1.0000   1.0000   1.0000   1.0000   1.0000   1.0000   1.0000   1.0000
     1.0000   1.0000   1.0000   1.0000   1.0000   1.0000   1.0000   1.0000
     1.0000   1.0000   0.0000   0.0000   0.0000

          k = 0.2500 0.4330 0.1002 (  2766 PWs)   bands (ev):

   -76.6816 -76.6652 -40.0606 -40.0568 -39.9711 -39.9553 -39.8996 -39.8800
    14.8760  14.9343  15.4196  15.5820  16.4941  16.6490  17.0956  18.0219
    18.3499  18.8423  20.7271  25.4027  28.3267

     occupation numbers 
     1.0000   1.0000   1.0000   1.0000   1.0000   1.0000   1.0000   1.0000
     1.0000   1.0000   1.0000   1.0000   1.0000   1.0000   1.0000   1.0000
     1.0000   1.0000   0.0000   0.0000   0.0000

          k = 0.2500 0.4330 0.2005 (  2773 PWs)   bands (ev):

   -76.6781 -76.6686 -40.0830 -40.0712 -39.9610 -39.9456 -39.8943 -39.8681
    14.8407  14.8745  15.5849  15.9556  16.3122  16.5985  17.1632  17.8202
    18.3960  18.9162  21.0822  23.3857  29.0801

     occupation numbers 
     1.0000   1.0000   1.0000   1.0000   1.0000   1.0000   1.0000   1.0000
     1.0000   1.0000   1.0000   1.0000   1.0000   1.0000   1.0000   1.0000
     1.0000   1.0000   0.0000   0.0000   0.0000

          k = 0.2500 0.4330-0.3007 (  2768 PWs)   bands (ev):

   -76.6734 -76.6734 -40.0849 -40.0849 -39.9518 -39.9518 -39.8748 -39.8748
    14.8378  14.8378  15.9027  15.9027  16.3878  16.3878  17.3917  17.3917
    18.7840  18.7840  21.8952  21.8952  30.0722

     occupation numbers 
     1.0000   1.0000   1.0000   1.0000   1.0000   1.0000   1.0000   1.0000
     1.0000   1.0000   1.0000   1.0000   1.0000   1.0000   1.0000   1.0000
     1.0000   1.0000   0.0000   0.0000   0.0000

          k = 0.2500 0.5292 0.0000 (  2777 PWs)   bands (ev):

   -76.6742 -76.6644 -40.0657 -40.0231 -39.9778 -39.9747 -39.9232 -39.9173
    14.9277  15.1693  15.2488  15.7742  16.3583  16.5768  17.2552  18.2771
    18.5071  18.6829  22.3296  24.9836  27.3814

     occupation numbers 
     1.0000   1.0000   1.0000   1.0000   1.0000   1.0000   1.0000   1.0000
     1.0000   1.0000   1.0000   1.0000   1.0000   1.0000   1.0000   1.0000
     1.0000   1.0000   0.0000   0.0000   0.0000

          k = 0.2500 0.5292 0.1002 (  2774 PWs)   bands (ev):

   -76.6736 -76.6651 -40.0716 -40.0435 -39.9953 -39.9481 -39.9266 -39.8965
    14.8731  15.2797  15.3701  15.6537  16.3773  16.5893  17.2812  18.2734
    18.3383  18.7315  22.5059  24.9678  27.3586

     occupation numbers 
     1.0000   1.0000   1.0000   1.0000   1.0000   1.0000   1.0000   1.0000
     1.0000   1.0000   1.0000   1.0000   1.0000   1.0000   1.0000   1.0000
     1.0000   1.0000   0.0000   0.0000   0.0000

          k = 0.2500 0.5292 0.2005 (  2754 PWs)   bands (ev):

   -76.6718 -76.6669 -40.0853 -40.0707 -39.9949 -39.9571 -39.8968 -39.8763
    14.8824  15.2492  15.5134  15.8482  16.2137  16.6212  17.3575  17.8315
    18.4840  18.7822  22.9790  24.5822  27.2382

     occupation numbers 
     1.0000   1.0000   1.0000   1.0000   1.0000   1.0000   1.0000   1.0000
     1.0000   1.0000   1.0000   1.0000   1.0000   1.0000   1.0000   1.0000
     1.0000   1.0000   0.0000   0.0000   0.0000

          k = 0.2500 0.5292-0.3007 (  2748 PWs)   bands (ev):

   -76.6693 -76.6693 -40.0873 -40.0873 -39.9777 -39.9777 -39.8755 -39.8755
    15.0182  15.0182  15.8054  15.8054  16.3887  16.3887  17.4989  17.4989
    18.6922  18.6922  23.7230  23.7230  27.7818

     occupation numbers 
     1.0000   1.0000   1.0000   1.0000   1.0000   1.0000   1.0000   1.0000
     1.0000   1.0000   1.0000   1.0000   1.0000   1.0000   1.0000   1.0000
     1.0000   1.0000   0.0000   0.0000   0.0000

          k = 0.3333 0.5774 0.0000 (  2802 PWs)   bands (ev):

   -76.6678 -76.6678 -40.0510 -40.0041 -40.0041 -39.9547 -39.9447 -39.9447
    14.9526  15.3812  15.3812  15.6245  16.4098  16.4098  17.3583  18.4392
    18.4392  18.4698  24.1066  25.0081  25.0081

     occupation numbers 
     1.0000   1.0000   1.0000   1.0000   1.0000   1.0000   1.0000   1.0000
     1.0000   1.0000   1.0000   1.0000   1.0000   1.0000   1.0000   1.0000
     1.0000   1.0000   0.0000   0.0000   0.0000

          k = 0.3333 0.5774 0.1002 (  2790 PWs)   bands (ev):

   -76.6678 -76.6678 -40.0446 -40.0300 -40.0300 -39.9612 -39.9187 -39.9187
    15.0462  15.3909  15.3909  15.6391  16.3872  16.3872  17.3361  18.2479
    18.4924  18.4924  24.4927  25.0647  25.0647

     occupation numbers 
     1.0000   1.0000   1.0000   1.0000   1.0000   1.0000   1.0000   1.0000
     1.0000   1.0000   1.0000   1.0000   1.0000   1.0000   1.0000   1.0000
     1.0000   1.0000   0.0000   0.0000   0.0000

          k = 0.3333 0.5774 0.2005 (  2751 PWs)   bands (ev):

   -76.6678 -76.6678 -40.0610 -40.0610 -40.0270 -39.9788 -39.8874 -39.8874
    15.2844  15.4077  15.4077  15.6427  16.3489  16.3489  17.3144  17.7861
    18.5956  18.5956  25.2036  25.2036  25.4924

     occupation numbers 
     1.0000   1.0000   1.0000   1.0000   1.0000   1.0000   1.0000   1.0000
     1.0000   1.0000   1.0000   1.0000   1.0000   1.0000   1.0000   1.0000
     1.0000   1.0000   0.0000   0.0000   0.0000

          k = 0.3333 0.5774-0.3007 (  2742 PWs)   bands (ev):

   -76.6678 -76.6678 -40.0729 -40.0729 -40.0029 -40.0029 -39.8753 -39.8753
    15.4148  15.4148  15.5325  15.5325  16.3332  16.3332  17.4268  17.4268
    18.6459  18.6459  25.2914  25.2914  26.8786

     occupation numbers 
     1.0000   1.0000   1.0000   1.0000   1.0000   1.0000   1.0000   1.0000
     1.0000   1.0000   1.0000   1.0000   1.0000   1.0000   1.0000   1.0000
     1.0000   1.0000   0.0000   0.0000   0.0000

 ------ SPIN DOWN ----------


          k = 0.0000 0.0000 0.0000 (  2779 PWs)   bands (ev):

   -74.6814 -74.6197 -38.1520 -37.8173 -37.8173 -37.7822 -37.7690 -37.7690
    10.2089  14.9353  18.1707  18.3877  18.3877  18.7369  18.7369  18.7689
    19.3315  19.3315  20.4999  20.4999  26.6216

     occupation numbers 
     1.0000   1.0000   1.0000   1.0000   1.0000   1.0000   1.0000   1.0000
     1.0000   1.0000   1.0000   1.0000   1.0000   1.0000   1.0000   1.0000
     1.0000   1.0000   0.0000   0.0000   0.0000

          k = 0.0000 0.0000 0.1002 (  2767 PWs)   bands (ev):

   -74.6773 -74.6238 -38.1276 -37.8141 -37.8141 -37.8073 -37.7723 -37.7723
    10.4832  14.6902  18.0824  18.2356  18.3391  18.3391  18.6640  18.6640
    19.4861  19.4861  20.4773  20.4773  27.8833

     occupation numbers 
     1.0000   1.0000   1.0000   1.0000   1.0000   1.0000   1.0000   1.0000
     1.0000   1.0000   1.0000   1.0000   1.0000   1.0000   1.0000   1.0000
     0.0000   0.0000   0.0000   0.0000   0.0000

          k = 0.0000 0.0000 0.2005 (  2786 PWs)   bands (ev):

   -74.6661 -74.6352 -38.0607 -37.8758 -37.8053 -37.8053 -37.7811 -37.7811
    11.2756  13.7958  17.6534  17.8592  18.2972  18.2972  18.5013  18.5013
    19.8155  19.8155  20.3732  20.3732  30.7754

     occupation numbers 
     1.0000   1.0000   1.0000   1.0000   1.0000   1.0000   1.0000   1.0000
     1.0000   1.0000   1.0000   1.0000   1.0000   1.0000   1.0000   1.0000
     0.0000   0.0000   0.0000   0.0000   0.0000

          k = 0.0000 0.0000-0.3007 (  2786 PWs)   bands (ev):

   -74.6506 -74.6506 -37.9686 -37.9686 -37.7932 -37.7932 -37.7932 -37.7932
    12.4749  12.4749  17.6312  17.6312  18.3542  18.3542  18.3542  18.3542
    20.1445  20.1445  20.1445  20.1445  34.3535

     occupation numbers 
     1.0000   1.0000   1.0000   1.0000   1.0000   1.0000   1.0000   1.0000
     1.0000   1.0000   1.0000   1.0000   1.0000   1.0000   1.0000   1.0000
     0.0000   0.0000   0.0000   0.0000   0.0000

          k = 0.0000 0.0962 0.0000 (  2759 PWs)   bands (ev):

   -74.6773 -74.6174 -38.1435 -37.8382 -37.8238 -37.7905 -37.7850 -37.7727
    10.4625  15.1161  18.0287  18.2237  18.4765  18.5221  18.6591  18.8581
    19.2340  19.2447  20.5339  21.2821  26.6362

     occupation numbers 
     1.0000   1.0000   1.0000   1.0000   1.0000   1.0000   1.0000   1.0000
     1.0000   1.0000   1.0000   1.0000   1.0000   1.0000   1.0000   1.0000
     1.0000   1.0000   0.0000   0.0000   0.0000

          k = 0.0000 0.0962 0.1002 (  2783 PWs)   bands (ev):

   -74.6733 -74.6215 -38.1204 -37.8345 -37.8204 -37.8169 -37.7861 -37.7761
    10.7329  14.8825  17.8313  18.0185  18.3149  18.4610  18.6585  18.7789
    19.4230  19.4231  20.5024  20.9672  27.9668

     occupation numbers 
     1.0000   1.0000   1.0000   1.0000   1.0000   1.0000   1.0000   1.0000
     1.0000   1.0000   1.0000   1.0000   1.0000   1.0000   1.0000   1.0000
     0.0000   0.0000   0.0000   0.0000   0.0000

          k = 0.0000 0.0962 0.2005 (  2786 PWs)   bands (ev):

   -74.6624 -74.6325 -38.0571 -37.8823 -37.8240 -37.8110 -37.7958 -37.7855
    11.5141  14.0019  17.4586  17.8627  18.1776  18.4099  18.4926  18.6137
    19.7773  19.8053  20.3778  20.5663  30.9189

     occupation numbers 
     1.0000   1.0000   1.0000   1.0000   1.0000   1.0000   1.0000   1.0000
     1.0000   1.0000   1.0000   1.0000   1.0000   1.0000   1.0000   1.0000
     0.0000   0.0000   0.0000   0.0000   0.0000

          k = 0.0000 0.0962-0.3007 (  2780 PWs)   bands (ev):

   -74.6474 -74.6474 -37.9701 -37.9701 -37.8099 -37.8099 -37.7983 -37.7983
    12.6968  12.6968  17.5592  17.5592  18.2908  18.2908  18.4658  18.4658
    20.1268  20.1268  20.2033  20.2033  34.5258

     occupation numbers 
     1.0000   1.0000   1.0000   1.0000   1.0000   1.0000   1.0000   1.0000
     1.0000   1.0000   1.0000   1.0000   1.0000   1.0000   1.0000   1.0000
     0.0000   0.0000   0.0000   0.0000   0.0000

          k = 0.0000 0.1925 0.0000 (  2753 PWs)   bands (ev):

   -74.6659 -74.6115 -38.1191 -37.8955 -37.8486 -37.8410 -37.7937 -37.7830
    11.1990  15.5815  17.4204  17.7042  18.3845  18.8074  18.9039  19.0208
    19.0324  19.1989  20.6028  22.7338  26.6990

     occupation numbers 
     1.0000   1.0000   1.0000   1.0000   1.0000   1.0000   1.0000   1.0000
     1.0000   1.0000   1.0000   1.0000   1.0000   1.0000   1.0000   1.0000
     1.0000   1.0000   0.0000   0.0000   0.0000

          k = 0.0000 0.1925 0.1002 (  2770 PWs)   bands (ev):

   -74.6622 -74.6151 -38.1006 -37.8899 -37.8642 -37.8372 -37.8027 -37.7869
    11.4558  15.3858  17.1922  17.7501  18.2642  18.5869  18.7580  19.0796
    19.3445  19.3571  20.5519  21.9727  28.2508

     occupation numbers 
     1.0000   1.0000   1.0000   1.0000   1.0000   1.0000   1.0000   1.0000
     1.0000   1.0000   1.0000   1.0000   1.0000   1.0000   1.0000   1.0000
     0.9980   0.9416   0.0000   0.0000   0.0000

          k = 0.0000 0.1925 0.2005 (  2773 PWs)   bands (ev):

   -74.6523 -74.6251 -38.0500 -37.9134 -37.8714 -37.8266 -37.8236 -37.7975
    12.1966  14.5532  17.0994  17.8411  17.8938  18.3996  18.6959  18.9245
    19.7207  19.8291  20.3847  21.0332  31.3530

     occupation numbers 
     1.0000   1.0000   1.0000   1.0000   1.0000   1.0000   1.0000   1.0000
     1.0000   1.0000   1.0000   1.0000   1.0000   1.0000   1.0000   1.0000
     0.0000   0.0000   0.0000   0.0000   0.0000

          k = 0.0000 0.1925-0.3007 (  2778 PWs)   bands (ev):

   -74.6387 -74.6387 -37.9811 -37.9811 -37.8484 -37.8484 -37.8121 -37.8121
    13.3152  13.3152  17.3942  17.3942  18.1316  18.1316  18.7664  18.7664
    20.0944  20.0944  20.3700  20.3700  35.0103

     occupation numbers 
     1.0000   1.0000   1.0000   1.0000   1.0000   1.0000   1.0000   1.0000
     1.0000   1.0000   1.0000   1.0000   1.0000   1.0000   1.0000   1.0000
     0.0000   0.0000   0.0000   0.0000   0.0000

[...]
    20.6638  20.6961  21.9384  24.5571  29.3030

     occupation numbers 
     1.0000   1.0000   1.0000   1.0000   1.0000   1.0000   1.0000   1.0000
     1.0000   1.0000   1.0000   1.0000   1.0000   1.0000   1.0000   0.0000
     0.0000   0.0000   0.0000   0.0000   0.0000

          k = 0.0833 0.5292 0.1002 (  2763 PWs)   bands (ev):

   -74.6116 -74.5941 -38.1323 -38.0821 -37.9642 -37.9114 -37.8650 -37.8422
    15.2129  15.7842  16.3625  16.9734  18.2536  18.7203  18.7398  20.4208
    20.5910  20.7296  21.7957  24.1755  28.4031

     occupation numbers 
     1.0000   1.0000   1.0000   1.0000   1.0000   1.0000   1.0000   1.0000
     1.0000   1.0000   1.0000   1.0000   1.0000   1.0000   1.0000   0.0000
     0.0000   0.0000   0.0000   0.0000   0.0000

          k = 0.0833 0.5292 0.2005 (  2770 PWs)   bands (ev):

   -74.6079 -74.5978 -38.1436 -38.1126 -37.9289 -37.8902 -37.8755 -37.8459
    15.1659  15.6330  16.6671  16.9583  18.2929  19.0906  19.2778  19.9687
    20.5459  20.7930  21.5794  23.1801  27.9631

     occupation numbers 
     1.0000   1.0000   1.0000   1.0000   1.0000   1.0000   1.0000   1.0000
     1.0000   1.0000   1.0000   1.0000   1.0000   1.0000   1.0000   0.0000
     0.0000   0.0000   0.0000   0.0000   0.0000

          k = 0.0833 0.5292-0.3007 (  2766 PWs)   bands (ev):

   -74.6028 -74.6028 -38.1372 -38.1372 -37.8998 -37.8998 -37.8612 -37.8612
    15.3348  15.3348  16.8964  16.8964  18.8200  18.8200  19.6262  19.6262
    20.6392  20.6392  22.1043  22.1043  28.2345

     occupation numbers 
     1.0000   1.0000   1.0000   1.0000   1.0000   1.0000   1.0000   1.0000
     1.0000   1.0000   1.0000   1.0000   1.0000   1.0000   0.0000   0.0000
     0.0000   0.0000   0.0000   0.0000   0.0000

          k = 0.1667 0.2887 0.0000 (  2758 PWs)   bands (ev):

   -74.6413 -74.6003 -38.0629 -37.9842 -37.9753 -37.8734 -37.8267 -37.8180
    12.9825  16.3679  16.5981  17.0431  18.2400  18.3091  18.9169  19.1343
    19.8746  20.2381  20.5874  25.3560  27.0786

     occupation numbers 
     1.0000   1.0000   1.0000   1.0000   1.0000   1.0000   1.0000   1.0000
     1.0000   1.0000   1.0000   1.0000   1.0000   1.0000   1.0000   1.0000
     0.0000   0.0000   0.0000   0.0000   0.0000

          k = 0.1667 0.2887 0.1002 (  2766 PWs)   bands (ev):

   -74.6385 -74.6030 -38.0649 -37.9825 -37.9643 -37.8786 -37.8307 -37.8195
    13.1879  16.2302  16.5654  17.1103  18.1725  18.2618  18.8231  19.2861
    19.9999  20.0971  20.6063  23.7079  29.2631

     occupation numbers 
     1.0000   1.0000   1.0000   1.0000   1.0000   1.0000   1.0000   1.0000
     1.0000   1.0000   1.0000   1.0000   1.0000   1.0000   1.0000   1.0000
     0.0000   0.0000   0.0000   0.0000   0.0000

          k = 0.1667 0.2887 0.2005 (  2775 PWs)   bands (ev):

   -74.6310 -74.6105 -38.0583 -38.0055 -37.9236 -37.8827 -37.8403 -37.8305
    13.7704  15.5340  16.8354  17.2821  17.8583  18.1082  18.8809  19.4773
    20.0475  20.2228  20.5703  21.9941  32.5049

     occupation numbers 
     1.0000   1.0000   1.0000   1.0000   1.0000   1.0000   1.0000   1.0000
     1.0000   1.0000   1.0000   1.0000   1.0000   1.0000   1.0000   0.0000
     0.0000   0.0000   0.0000   0.0000   0.0000

          k = 0.1667 0.2887-0.3007 (  2774 PWs)   bands (ev):

   -74.6208 -74.6208 -38.0359 -38.0359 -37.8898 -37.8898 -37.8448 -37.8448
    14.6195  14.6195  17.2139  17.2139  17.8029  17.8029  19.1892  19.1892
    20.4064  20.4064  20.7954  20.7954  34.8949

     occupation numbers 
     1.0000   1.0000   1.0000   1.0000   1.0000   1.0000   1.0000   1.0000
     1.0000   1.0000   1.0000   1.0000   1.0000   1.0000   1.0000   1.0000
     0.0000   0.0000   0.0000   0.0000   0.0000

          k = 0.1667 0.3849 0.0000 (  2775 PWs)   bands (ev):

   -74.6258 -74.5950 -38.0446 -38.0230 -38.0203 -37.9084 -37.8540 -37.8393
    14.2669  16.3142  16.4267  16.8802  18.0807  18.3739  18.6486  19.5169
    20.4014  20.5633  21.0266  27.1599  27.4241

     occupation numbers 
     1.0000   1.0000   1.0000   1.0000   1.0000   1.0000   1.0000   1.0000
     1.0000   1.0000   1.0000   1.0000   1.0000   1.0000   1.0000   0.0000
     0.0000   0.0000   0.0000   0.0000   0.0000

          k = 0.1667 0.3849 0.1002 (  2765 PWs)   bands (ev):

   -74.6238 -74.5971 -38.0687 -38.0372 -37.9770 -37.9121 -37.8595 -37.8350
    14.4032  16.1765  16.5259  16.9817  18.0186  18.3721  18.6086  19.5897
    20.3120  20.5034  21.1150  24.8352  29.8191

     occupation numbers 
     1.0000   1.0000   1.0000   1.0000   1.0000   1.0000   1.0000   1.0000
     1.0000   1.0000   1.0000   1.0000   1.0000   1.0000   1.0000   0.0000
     0.0000   0.0000   0.0000   0.0000   0.0000

          k = 0.1667 0.3849 0.2005 (  2772 PWs)   bands (ev):

   -74.6181 -74.6027 -38.0842 -38.0574 -37.9329 -37.9105 -37.8670 -37.8374
    14.7775  15.8056  16.8003  17.1866  17.8496  18.1223  18.8009  19.6373
    20.1498  20.6848  21.1957  22.8533  30.9519

     occupation numbers 
     1.0000   1.0000   1.0000   1.0000   1.0000   1.0000   1.0000   1.0000
     1.0000   1.0000   1.0000   1.0000   1.0000   1.0000   1.0000   0.0000
     0.0000   0.0000   0.0000   0.0000   0.0000

          k = 0.1667 0.3849-0.3007 (  2766 PWs)   bands (ev):

   -74.6104 -74.6104 -38.0780 -38.0780 -37.9117 -37.9117 -37.8550 -37.8550
    15.2919  15.2919  17.1411  17.1411  17.8436  17.8436  19.1816  19.1816
    20.6560  20.6560  21.5368  21.5368  32.0308

     occupation numbers 
     1.0000   1.0000   1.0000   1.0000   1.0000   1.0000   1.0000   1.0000
     1.0000   1.0000   1.0000   1.0000   1.0000   1.0000   1.0000   1.0000
     0.0000   0.0000   0.0000   0.0000   0.0000

          k = 0.1667 0.4811 0.0000 (  2764 PWs)   bands (ev):

   -74.6130 -74.5927 -38.0914 -38.0454 -37.9848 -37.9400 -37.8727 -37.8638
    15.3654  16.1548  16.1796  16.9755  18.0109  18.3469  18.6226  20.0306
    20.5455  20.6524  22.0044  26.0970  29.1051

     occupation numbers 
     1.0000   1.0000   1.0000   1.0000   1.0000   1.0000   1.0000   1.0000
     1.0000   1.0000   1.0000   1.0000   1.0000   1.0000   1.0000   0.0000
     0.0000   0.0000   0.0000   0.0000   0.0000

          k = 0.1667 0.4811 0.1002 (  2766 PWs)   bands (ev):

   -74.6116 -74.5940 -38.1016 -38.0617 -37.9688 -37.9309 -37.8830 -37.8519
    15.3553  16.1138  16.3589  16.9808  18.0196  18.3074  18.7445  20.0377
    20.3151  20.7260  22.0481  25.3781  28.3237

     occupation numbers 
     1.0000   1.0000   1.0000   1.0000   1.0000   1.0000   1.0000   1.0000
     1.0000   1.0000   1.0000   1.0000   1.0000   1.0000   1.0000   0.0000
     0.0000   0.0000   0.0000   0.0000   0.0000

          k = 0.1667 0.4811 0.2005 (  2767 PWs)   bands (ev):

   -74.6079 -74.5977 -38.1144 -38.0893 -37.9514 -37.9152 -37.8826 -37.8449
    15.4206  15.9173  16.6849  17.2081  17.8374  18.3064  19.0145  19.7402
    20.2718  20.8194  22.1907  23.8839  28.5301

     occupation numbers 
     1.0000   1.0000   1.0000   1.0000   1.0000   1.0000   1.0000   1.0000
     1.0000   1.0000   1.0000   1.0000   1.0000   1.0000   1.0000   0.0000
     0.0000   0.0000   0.0000   0.0000   0.0000

          k = 0.1667 0.4811-0.3007 (  2770 PWs)   bands (ev):

   -74.6028 -74.6028 -38.1106 -38.1106 -37.9317 -37.9317 -37.8566 -37.8566
    15.6267  15.6267  17.0789  17.0789  18.0484  18.0484  19.3065  19.3065
    20.6458  20.6458  22.7104  22.7104  29.3289

     occupation numbers 
     1.0000   1.0000   1.0000   1.0000   1.0000   1.0000   1.0000   1.0000
     1.0000   1.0000   1.0000   1.0000   1.0000   1.0000   1.0000   1.0000
     0.0000   0.0000   0.0000   0.0000   0.0000

          k = 0.1667 0.5774 0.0000 (  2776 PWs)   bands (ev):

   -74.6074 -74.5927 -38.1084 -38.0537 -37.9657 -37.9527 -37.8795 -37.8780
    15.8071  16.0318  16.1047  17.0750  18.1012  18.1192  18.7327  20.3957
    20.5388  20.6062  22.9544  24.5236  30.4476

     occupation numbers 
     1.0000   1.0000   1.0000   1.0000   1.0000   1.0000   1.0000   1.0000
     1.0000   1.0000   1.0000   1.0000   1.0000   1.0000   1.0000   0.0000
     0.0000   0.0000   0.0000   0.0000   0.0000

          k = 0.1667 0.5774 0.1002 (  2763 PWs)   bands (ev):

   -74.6064 -74.5936 -38.1167 -38.0691 -37.9713 -37.9242 -37.8959 -37.8605
    15.6119  16.0747  16.5183  16.8466  17.9805  18.3424  18.8615  20.2918
    20.3973  20.6626  22.9718  24.4068  29.3961

     occupation numbers 
     1.0000   1.0000   1.0000   1.0000   1.0000   1.0000   1.0000   1.0000
     1.0000   1.0000   1.0000   1.0000   1.0000   1.0000   1.0000   0.0000
     0.0000   0.0000   0.0000   0.0000   0.0000

          k = 0.1667 0.5774 0.2005 (  2759 PWs)   bands (ev):

   -74.6037 -74.5963 -38.1273 -38.0996 -37.9608 -37.9161 -37.8844 -37.8490
    15.5492  15.9802  16.7633  17.1160  17.7497  18.4922  19.1709  19.8050
    20.4340  20.7134  23.0814  24.0328  28.3691

     occupation numbers 
     1.0000   1.0000   1.0000   1.0000   1.0000   1.0000   1.0000   1.0000
     1.0000   1.0000   1.0000   1.0000   1.0000   1.0000   1.0000   0.0000
     0.0000   0.0000   0.0000   0.0000   0.0000

          k = 0.1667 0.5774-0.3007 (  2754 PWs)   bands (ev):

   -74.6000 -74.6000 -38.1226 -38.1226 -37.9396 -37.9396 -37.8563 -37.8563
    15.7026  15.7026  17.0649  17.0649  18.1101  18.1101  19.4773  19.4773
    20.5788  20.5788  23.4807  23.4807  28.0217

     occupation numbers 
     1.0000   1.0000   1.0000   1.0000   1.0000   1.0000   1.0000   1.0000
     1.0000   1.0000   1.0000   1.0000   1.0000   1.0000   0.0000   0.0000
     0.0000   0.0000   0.0000   0.0000   0.0000

          k = 0.2500 0.4330 0.0000 (  2758 PWs)   bands (ev):

   -74.6130 -74.5926 -38.0653 -38.0421 -37.9851 -37.9459 -37.8965 -37.8636
    15.4000  16.2405  16.5475  16.6160  17.9062  18.3789  18.6282  19.7433
    20.4847  20.6470  22.0582  27.6383  28.6585

     occupation numbers 
     1.0000   1.0000   1.0000   1.0000   1.0000   1.0000   1.0000   1.0000
     1.0000   1.0000   1.0000   1.0000   1.0000   1.0000   1.0000   0.0000
     0.0000   0.0000   0.0000   0.0000   0.0000

          k = 0.2500 0.4330 0.1002 (  2766 PWs)   bands (ev):

   -74.6117 -74.5940 -38.0690 -38.0664 -37.9563 -37.9555 -37.8977 -37.8536
    15.4640  16.1577  16.6133  16.7965  17.9435  18.1798  18.6632  19.8130
    20.2465  20.7306  22.1528  26.0655  28.9357

     occupation numbers 
     1.0000   1.0000   1.0000   1.0000   1.0000   1.0000   1.0000   1.0000
     1.0000   1.0000   1.0000   1.0000   1.0000   1.0000   1.0000   0.0000
     0.0000   0.0000   0.0000   0.0000   0.0000

          k = 0.2500 0.4330 0.2005 (  2773 PWs)   bands (ev):

   -74.6079 -74.5977 -38.0900 -38.0814 -37.9607 -37.9385 -37.8829 -37.8448
    15.6285  16.0157  16.8309  17.1440  17.7773  17.9052  18.7876  19.6277
    20.2259  20.8301  22.3809  24.2011  29.6901

     occupation numbers 
     1.0000   1.0000   1.0000   1.0000   1.0000   1.0000   1.0000   1.0000
     1.0000   1.0000   1.0000   1.0000   1.0000   1.0000   1.0000   0.0000
     0.0000   0.0000   0.0000   0.0000   0.0000

          k = 0.2500 0.4330-0.3007 (  2768 PWs)   bands (ev):

   -74.6028 -74.6028 -38.0934 -38.0934 -37.9503 -37.9503 -37.8553 -37.8553
    15.8323  15.8323  17.1709  17.1709  17.6806  17.6806  19.1144  19.1144
    20.6715  20.6715  22.9366  22.9366  30.6718

     occupation numbers 
     1.0000   1.0000   1.0000   1.0000   1.0000   1.0000   1.0000   1.0000
     1.0000   1.0000   1.0000   1.0000   1.0000   1.0000   1.0000   1.0000
     0.0000   0.0000   0.0000   0.0000   0.0000

          k = 0.2500 0.5292 0.0000 (  2777 PWs)   bands (ev):

   -74.6037 -74.5932 -38.0797 -38.0331 -37.9837 -37.9517 -37.9243 -37.8892
    16.1006  16.2314  16.3938  16.7248  17.9022  18.0996  18.8366  20.0882
    20.4389  20.5456  23.4187  25.7705  27.9526

     occupation numbers 
     1.0000   1.0000   1.0000   1.0000   1.0000   1.0000   1.0000   1.0000
     1.0000   1.0000   1.0000   1.0000   1.0000   1.0000   1.0000   0.0000
     0.0000   0.0000   0.0000   0.0000   0.0000

          k = 0.2500 0.5292 0.1002 (  2774 PWs)   bands (ev):

   -74.6030 -74.5939 -38.0838 -38.0514 -37.9973 -37.9403 -37.9159 -37.8727
    16.0152  16.3877  16.4730  16.7764  17.8700  17.9959  18.8696  20.1250
    20.2004  20.6083  23.5715  25.7146  27.9643

     occupation numbers 
     1.0000   1.0000   1.0000   1.0000   1.0000   1.0000   1.0000   1.0000
     1.0000   1.0000   1.0000   1.0000   1.0000   1.0000   1.0000   0.0000
     0.0000   0.0000   0.0000   0.0000   0.0000

          k = 0.2500 0.5292 0.2005 (  2754 PWs)   bands (ev):

   -74.6011 -74.5958 -38.0949 -38.0789 -37.9983 -37.9577 -37.8777 -37.8534
    16.0255  16.3252  16.7540  17.1151  17.5859  17.8686  18.9741  19.6416
    20.3355  20.6750  23.9413  25.2764  27.9842

     occupation numbers 
     1.0000   1.0000   1.0000   1.0000   1.0000   1.0000   1.0000   1.0000
     1.0000   1.0000   1.0000   1.0000   1.0000   1.0000   1.0000   0.0000
     0.0000   0.0000   0.0000   0.0000   0.0000

          k = 0.2500 0.5292-0.3007 (  2748 PWs)   bands (ev):

   -74.5984 -74.5984 -38.0960 -38.0960 -37.9806 -37.9806 -37.8537 -37.8537
    16.1520  16.1520  17.1458  17.1458  17.5851  17.5851  19.2014  19.2014
    20.5727  20.5727  24.5243  24.5243  28.5263

     occupation numbers 
     1.0000   1.0000   1.0000   1.0000   1.0000   1.0000   1.0000   1.0000
     1.0000   1.0000   1.0000   1.0000   1.0000   1.0000   1.0000   1.0000
     0.0000   0.0000   0.0000   0.0000   0.0000

          k = 0.3333 0.5774 0.0000 (  2802 PWs)   bands (ev):

   -74.5968 -74.5968 -38.0635 -38.0126 -38.0126 -37.9584 -37.9190 -37.9190
    16.2846  16.4469  16.4469  16.6100  17.9232  17.9232  18.9489  20.2746
    20.2746  20.3966  24.9205  25.7912  25.7912

     occupation numbers 
     1.0000   1.0000   1.0000   1.0000   1.0000   1.0000   1.0000   1.0000
     1.0000   1.0000   1.0000   1.0000   1.0000   1.0000   1.0000   0.0000
     0.0000   0.0000   0.0000   0.0000   0.0000

          k = 0.3333 0.5774 0.1002 (  2790 PWs)   bands (ev):

   -74.5968 -74.5968 -38.0565 -38.0352 -38.0352 -37.9655 -37.8962 -37.8962
    16.3579  16.5105  16.5105  16.6380  17.8344  17.8344  18.9359  20.1338
    20.3403  20.3403  25.3213  25.8244  25.8244

     occupation numbers 
     1.0000   1.0000   1.0000   1.0000   1.0000   1.0000   1.0000   1.0000
     1.0000   1.0000   1.0000   1.0000   1.0000   1.0000   1.0000   0.0000
     0.0000   0.0000   0.0000   0.0000   0.0000

          k = 0.3333 0.5774 0.2005 (  2751 PWs)   bands (ev):

   -74.5968 -74.5968 -38.0660 -38.0660 -38.0373 -37.9848 -37.8650 -37.8650
    16.5289  16.6617  16.6617  16.6874  17.6417  17.6417  18.9548  19.5967
    20.4638  20.4638  25.9060  25.9060  26.3124

     occupation numbers 
     1.0000   1.0000   1.0000   1.0000   1.0000   1.0000   1.0000   1.0000
     1.0000   1.0000   1.0000   1.0000   1.0000   1.0000   1.0000   0.0000
     0.0000   0.0000   0.0000   0.0000   0.0000

          k = 0.3333 0.5774-0.3007 (  2742 PWs)   bands (ev):

   -74.5968 -74.5968 -38.0783 -38.0783 -38.0111 -38.0111 -37.8525 -37.8525
    16.6688  16.6688  16.7592  16.7592  17.5272  17.5272  19.1498  19.1498
    20.5223  20.5223  25.9572  25.9572  27.6329

     occupation numbers 
     1.0000   1.0000   1.0000   1.0000   1.0000   1.0000   1.0000   1.0000
     1.0000   1.0000   1.0000   1.0000   1.0000   1.0000   1.0000   1.0000
     0.0000   0.0000   0.0000   0.0000   0.0000

     the Fermi energy is    19.3722 ev

!    total energy              =    -753.45345756 Ry
     total all-electron energy =     -5573.810149 Ry
     estimated scf accuracy    <       0.00000006 Ry
     smearing contrib. (-TS)   =      -0.00001908 Ry
     internal energy E=F+TS    =    -753.45343848 Ry

     The total energy is F=E-TS. E is the sum of the following terms:
     one-electron contribution =    -276.39086849 Ry
     hartree contribution      =     162.66901152 Ry
     xc contribution           =     -61.44061700 Ry
     ewald contribution        =    -403.11463291 Ry
     one-center paw contrib.   =    -175.17633162 Ry
      -> PAW hartree energy AE =     222.23346047 Ry
      -> PAW hartree energy PS =    -221.17709214 Ry
      -> PAW xc energy AE      =    -117.68155543 Ry
      -> PAW xc energy PS      =      29.03702130 Ry
      -> total E_H with PAW    =     163.72537985 Ry
      -> total E_XC with PAW   =    -150.08515113 Ry

     total magnetization       =     3.23 Bohr mag/cell
     absolute magnetization    =     3.54 Bohr mag/cell

     convergence has been achieved in   8 iterations

     Writing all to output data dir ./out2/Co.save/
 
     init_run     :      0.35s CPU      0.50s WALL (       1 calls)
     electrons    :     17.58s CPU     18.58s WALL (       1 calls)

     Called by init_run:
     wfcinit      :      0.21s CPU      0.33s WALL (       1 calls)
     potinit      :      0.10s CPU      0.13s WALL (       1 calls)
     hinit0       :      0.03s CPU      0.03s WALL (       1 calls)

     Called by electrons:
     c_bands      :     15.17s CPU     15.91s WALL (       8 calls)
     sum_band     :      1.55s CPU      1.63s WALL (       8 calls)
     v_of_rho     :      0.03s CPU      0.03s WALL (       9 calls)
     v_h          :      0.00s CPU      0.00s WALL (       9 calls)
     v_xc         :      0.03s CPU      0.03s WALL (       9 calls)
     newd         :      0.04s CPU      0.05s WALL (       9 calls)
     PAW_pot      :      0.87s CPU      1.07s WALL (       9 calls)
     mix_rho      :      0.01s CPU      0.01s WALL (       8 calls)

     Called by c_bands:
     init_us_2    :      0.09s CPU      0.10s WALL (    2432 calls)
     init_us_2:cp :      0.09s CPU      0.10s WALL (    2432 calls)
     cegterg      :     14.58s CPU     15.17s WALL (    1216 calls)

     Called by sum_band:
     sum_band:wei :      0.01s CPU      0.01s WALL (       8 calls)
     sum_band:loo :      1.46s CPU      1.54s WALL (       8 calls)
     sum_band:buf :      0.01s CPU      0.01s WALL (    1216 calls)
     sum_band:ini :      0.06s CPU      0.05s WALL (    1216 calls)
     sum_band:cal :      0.12s CPU      0.11s WALL (    1216 calls)
     sum_band:bec :      0.00s CPU      0.01s WALL (    1216 calls)
     addusdens    :      0.06s CPU      0.07s WALL (       8 calls)
                                        0.00s GPU  (       8 calls)
     addusd:skk   :      0.00s CPU      0.00s WALL (       8 calls)
                                        0.00s GPU  (       8 calls)

     Called by *egterg:
     cdiaghg      :      4.00s CPU      4.11s WALL (    7196 calls)
     cegterg:over :      0.51s CPU      0.48s WALL (    6132 calls)
     cegterg:upda :      0.05s CPU      0.12s WALL (    6132 calls)
     cegterg:last :      0.18s CPU      0.21s WALL (    3878 calls)
     h_psi        :      9.17s CPU      9.59s WALL (    7348 calls)
     s_psi        :      0.20s CPU      0.17s WALL (    7348 calls)
     g_psi        :      0.03s CPU      0.04s WALL (    6132 calls)

     Called by h_psi:
     h_psi:calbec :      0.46s CPU      0.42s WALL (    7348 calls)
     vloc_psi     :      8.55s CPU      8.92s WALL (    7348 calls)
     add_vuspsi   :      0.13s CPU      0.19s WALL (    7348 calls)

     General routines
     calbec       :      0.57s CPU      0.52s WALL (    8564 calls)
     fft          :      0.01s CPU      0.02s WALL (     219 calls)
     ffts         :      0.00s CPU      0.00s WALL (      34 calls)
     fftw         :      9.18s CPU      9.48s WALL (  206378 calls)
     interpolate  :      0.00s CPU      0.00s WALL (      18 calls)
 
     Parallel routines

     PAW routines
     PAW_pot      :      0.87s CPU      1.07s WALL (       9 calls)
     PAW_symme    :      0.01s CPU      0.01s WALL (      16 calls)
 
     PWSCF        :     18.30s CPU     19.93s WALL

 
   This run was terminated on:   9:33:50  22Mar2024            

=------------------------------------------------------------------------------=
   JOB DONE.
=------------------------------------------------------------------------------=
