
     Program PWSCF v.7.2 starts on 22Mar2024 at  7:34:33 

     This program is part of the open-source Quantum ESPRESSO suite
     for quantum simulation of materials; please cite
         "P. Giannozzi et al., J. Phys.:Condens. Matter 21 395502 (2009);
         "P. Giannozzi et al., J. Phys.:Condens. Matter 29 465901 (2017);
         "P. Giannozzi et al., J. Chem. Phys. 152 154105 (2020);
          URL http://www.quantum-espresso.org", 
     in publications or presentations arising from this work. More details at
     http://www.quantum-espresso.org/quote

     Parallel version (MPI), running on    20 processors

     MPI processes distributed on     1 nodes
     351967 MiB available memory on the printing compute node when the environment starts
 
     Waiting for input...
     Reading input from standard input

     Current dimensions of program PWSCF are:
     Max number of different atomic species (ntypx) = 10
     Max number of k-points (npk) = 120000
     Max angular momentum in pseudopotentials (lmaxx) =  4
     file Co.pbe-spn-kjpaw_psl.0.3.1.UPF: wavefunction(s)  3P 3D renormalized
 
     R & G space division:  proc/nbgrp/npool/nimage =      20
     Subspace diagonalization in iterative solution of the eigenvalue problem:
     a serial algorithm will be used

 
     Parallelization info
     --------------------
     sticks:   dense  smooth     PW     G-vecs:    dense   smooth      PW
     Min          33      33      9                 1169     1133     183
     Max          35      34     10                 1181     1139     190
     Sum         673     661    199                23477    22695    3755
 
     Using Slab Decomposition
 


     bravais-lattice index     =            4
     lattice parameter (alat)  =       4.6676  a.u.
     unit-cell volume          =     145.4726 (a.u.)^3
     number of atoms/cell      =            2
     number of atomic types    =            1
     number of electrons       =        34.00
     number of Kohn-Sham states=           21
     kinetic-energy cutoff     =     110.0000  Ry
     charge density cutoff     =     450.0000  Ry
     scf convergence threshold =      1.0E-06
     mixing beta               =       0.7000
     number of iterations used =            8  plain     mixing
     Exchange-correlation= SLA  PW   PBX  PBC
                           (   1   4   3   4   0   0   0)

     celldm(1)=   4.667624  celldm(2)=   0.000000  celldm(3)=   1.651822
     celldm(4)=   0.000000  celldm(5)=   0.000000  celldm(6)=   0.000000

     crystal axes: (cart. coord. in units of alat)
               a(1) = (   1.000000   0.000000   0.000000 )  
               a(2) = (  -0.500000   0.866025   0.000000 )  
               a(3) = (   0.000000   0.000000   1.651822 )  

     reciprocal axes: (cart. coord. in units 2 pi/alat)
               b(1) = (  1.000000  0.577350  0.000000 )  
               b(2) = (  0.000000  1.154701  0.000000 )  
               b(3) = (  0.000000  0.000000  0.605392 )  


     PseudoPot. # 1 for Co read from file:
     /truba/home/amuhaymin/ZnS/pseudo/QE/Co.pbe-spn-kjpaw_psl.0.3.1.UPF
     MD5 check sum: b0a1ad65bf214e88c1f3d33b20c7d919
     Pseudo is Projector augmented-wave + core cor, Zval = 17.0
     Generated using &quot;atomic&quot; code by A. Dal Corso  v.6.2.2
     Shape of augmentation charge: PSQ
     Using radial grid of 1193 points,  6 beta functions with: 
                l(1) =   0
                l(2) =   0
                l(3) =   1
                l(4) =   1
                l(5) =   2
                l(6) =   2
     Q(r) pseudized with 0 coefficients 


     atomic species   valence    mass     pseudopotential
        Co            17.00    58.93300     Co( 1.00)

     Starting magnetic structure 
     atomic species   magnetization
        Co           0.294

     24 Sym. Ops., with inversion, found (12 have fractional translation)


                                    s                        frac. trans.

      isym =  1     identity                                     

 cryst.   s( 1) = (     1          0          0      )
                  (     0          1          0      )
                  (     0          0          1      )

 cart.    s( 1) = (  1.0000000  0.0000000  0.0000000 )
                  (  0.0000000  1.0000000  0.0000000 )
                  (  0.0000000  0.0000000  1.0000000 )


      isym =  2     180 deg rotation - cart. axis [0,0,1]        

 cryst.   s( 2) = (    -1          0          0      )    f =(  0.0000000 )
                  (     0         -1          0      )       ( -0.0000000 )
                  (     0          0          1      )       ( -0.5000000 )

 cart.    s( 2) = ( -1.0000000  0.0000000  0.0000000 )    f =(  0.0000000 )
                  (  0.0000000 -1.0000000  0.0000000 )       ( -0.0000000 )
                  (  0.0000000  0.0000000  1.0000000 )       ( -0.8259109 )


      isym =  3     180 deg rotation - cart. axis [0,1,0]        

 cryst.   s( 3) = (    -1          0          0      )    f =(  0.0000000 )
                  (     1          1          0      )       (  0.0000000 )
                  (     0          0         -1      )       (  0.5000000 )

 cart.    s( 3) = ( -1.0000000  0.0000000  0.0000000 )    f =(  0.0000000 )
                  (  0.0000000  1.0000000  0.0000000 )       (  0.0000000 )
                  (  0.0000000  0.0000000 -1.0000000 )       (  0.8259109 )


      isym =  4     180 deg rotation - cart. axis [1,0,0]        

 cryst.   s( 4) = (     1          0          0      )
                  (    -1         -1          0      )
                  (     0          0         -1      )

 cart.    s( 4) = (  1.0000000  0.0000000  0.0000000 )
                  (  0.0000000 -1.0000000  0.0000000 )
                  (  0.0000000  0.0000000 -1.0000000 )


      isym =  5      60 deg rotation - cryst. axis [0,0,1]       

 cryst.   s( 5) = (     1          1          0      )    f =(  0.0000000 )
                  (    -1          0          0      )       ( -0.0000000 )
                  (     0          0          1      )       ( -0.5000000 )

 cart.    s( 5) = (  0.5000000 -0.8660254  0.0000000 )    f =(  0.0000000 )
                  (  0.8660254  0.5000000  0.0000000 )       ( -0.0000000 )
                  (  0.0000000  0.0000000  1.0000000 )       ( -0.8259109 )


      isym =  6      60 deg rotation - cryst. axis [0,0,-1]      

 cryst.   s( 6) = (     0         -1          0      )    f =(  0.0000000 )
                  (     1          1          0      )       ( -0.0000000 )
                  (     0          0          1      )       ( -0.5000000 )

 cart.    s( 6) = (  0.5000000  0.8660254  0.0000000 )    f =(  0.0000000 )
                  ( -0.8660254  0.5000000  0.0000000 )       ( -0.0000000 )
                  (  0.0000000  0.0000000  1.0000000 )       ( -0.8259109 )


      isym =  7     120 deg rotation - cryst. axis [0,0,1]       

 cryst.   s( 7) = (     0          1          0      )
                  (    -1         -1          0      )
                  (     0          0          1      )

 cart.    s( 7) = ( -0.5000000 -0.8660254  0.0000000 )
                  (  0.8660254 -0.5000000  0.0000000 )
                  (  0.0000000  0.0000000  1.0000000 )


      isym =  8     120 deg rotation - cryst. axis [0,0,-1]      

 cryst.   s( 8) = (    -1         -1          0      )
                  (     1          0          0      )
                  (     0          0          1      )

 cart.    s( 8) = ( -0.5000000  0.8660254  0.0000000 )
                  ( -0.8660254 -0.5000000  0.0000000 )
                  (  0.0000000  0.0000000  1.0000000 )


      isym =  9     180 deg rotation - cryst. axis [1,-1,0]      

 cryst.   s( 9) = (     0         -1          0      )    f =( -0.0000000 )
                  (    -1          0          0      )       ( -0.0000000 )
                  (     0          0         -1      )       (  0.5000000 )

 cart.    s( 9) = (  0.5000000 -0.8660254  0.0000000 )    f =( -0.0000000 )
                  ( -0.8660254 -0.5000000  0.0000000 )       ( -0.0000000 )
                  (  0.0000000  0.0000000 -1.0000000 )       (  0.8259109 )


      isym = 10     180 deg rotation - cryst. axis [2,1,0]       

 cryst.   s(10) = (     1          1          0      )    f =(  0.0000000 )
                  (     0         -1          0      )       ( -0.0000000 )
                  (     0          0         -1      )       (  0.5000000 )

 cart.    s(10) = (  0.5000000  0.8660254  0.0000000 )    f =(  0.0000000 )
                  (  0.8660254 -0.5000000  0.0000000 )       ( -0.0000000 )
                  (  0.0000000  0.0000000 -1.0000000 )       (  0.8259109 )


      isym = 11     180 deg rotation - cryst. axis [0,1,0]       

 cryst.   s(11) = (    -1         -1          0      )
                  (     0          1          0      )
                  (     0          0         -1      )

 cart.    s(11) = ( -0.5000000 -0.8660254  0.0000000 )
                  ( -0.8660254  0.5000000  0.0000000 )
                  (  0.0000000  0.0000000 -1.0000000 )


      isym = 12     180 deg rotation - cryst. axis [1,1,0]       

 cryst.   s(12) = (     0          1          0      )
                  (     1          0          0      )
                  (     0          0         -1      )

 cart.    s(12) = ( -0.5000000  0.8660254  0.0000000 )
                  (  0.8660254  0.5000000  0.0000000 )
                  (  0.0000000  0.0000000 -1.0000000 )


      isym = 13     inversion                                    

 cryst.   s(13) = (    -1          0          0      )
                  (     0         -1          0      )
                  (     0          0         -1      )

 cart.    s(13) = ( -1.0000000  0.0000000  0.0000000 )
                  (  0.0000000 -1.0000000  0.0000000 )
                  (  0.0000000  0.0000000 -1.0000000 )


      isym = 14     inv. 180 deg rotation - cart. axis [0,0,1]   

 cryst.   s(14) = (     1          0          0      )    f =(  0.0000000 )
                  (     0          1          0      )       (  0.0000000 )
                  (     0          0         -1      )       (  0.5000000 )

 cart.    s(14) = (  1.0000000  0.0000000  0.0000000 )    f =(  0.0000000 )
                  (  0.0000000  1.0000000  0.0000000 )       (  0.0000000 )
                  (  0.0000000  0.0000000 -1.0000000 )       (  0.8259109 )


      isym = 15     inv. 180 deg rotation - cart. axis [0,1,0]   

 cryst.   s(15) = (     1          0          0      )    f =(  0.0000000 )
                  (    -1         -1          0      )       ( -0.0000000 )
                  (     0          0          1      )       ( -0.5000000 )

 cart.    s(15) = (  1.0000000  0.0000000  0.0000000 )    f =(  0.0000000 )
                  (  0.0000000 -1.0000000  0.0000000 )       ( -0.0000000 )
                  (  0.0000000  0.0000000  1.0000000 )       ( -0.8259109 )


      isym = 16     inv. 180 deg rotation - cart. axis [1,0,0]   

 cryst.   s(16) = (    -1          0          0      )
                  (     1          1          0      )
                  (     0          0          1      )

 cart.    s(16) = ( -1.0000000  0.0000000  0.0000000 )
                  (  0.0000000  1.0000000  0.0000000 )
                  (  0.0000000  0.0000000  1.0000000 )


      isym = 17     inv.  60 deg rotation - cryst. axis [0,0,1]  

 cryst.   s(17) = (    -1         -1          0      )    f =(  0.0000000 )
                  (     1          0          0      )       ( -0.0000000 )
                  (     0          0         -1      )       (  0.5000000 )

 cart.    s(17) = ( -0.5000000  0.8660254  0.0000000 )    f =(  0.0000000 )
                  ( -0.8660254 -0.5000000  0.0000000 )       ( -0.0000000 )
                  (  0.0000000  0.0000000 -1.0000000 )       (  0.8259109 )


      isym = 18     inv.  60 deg rotation - cryst. axis [0,0,-1] 

 cryst.   s(18) = (     0          1          0      )    f =( -0.0000000 )
                  (    -1         -1          0      )       ( -0.0000000 )
                  (     0          0         -1      )       (  0.5000000 )

 cart.    s(18) = ( -0.5000000 -0.8660254  0.0000000 )    f =(  0.0000000 )
                  (  0.8660254 -0.5000000  0.0000000 )       ( -0.0000000 )
                  (  0.0000000  0.0000000 -1.0000000 )       (  0.8259109 )


      isym = 19     inv. 120 deg rotation - cryst. axis [0,0,1]  

 cryst.   s(19) = (     0         -1          0      )
                  (     1          1          0      )
                  (     0          0         -1      )

 cart.    s(19) = (  0.5000000  0.8660254  0.0000000 )
                  ( -0.8660254  0.5000000  0.0000000 )
                  (  0.0000000  0.0000000 -1.0000000 )


      isym = 20     inv. 120 deg rotation - cryst. axis [0,0,-1] 

 cryst.   s(20) = (     1          1          0      )
                  (    -1          0          0      )
                  (     0          0         -1      )

 cart.    s(20) = (  0.5000000 -0.8660254  0.0000000 )
                  (  0.8660254  0.5000000  0.0000000 )
                  (  0.0000000  0.0000000 -1.0000000 )


      isym = 21     inv. 180 deg rotation - cryst. axis [1,-1,0] 

 cryst.   s(21) = (     0          1          0      )    f =(  0.0000000 )
                  (     1          0          0      )       ( -0.0000000 )
                  (     0          0          1      )       ( -0.5000000 )

 cart.    s(21) = ( -0.5000000  0.8660254  0.0000000 )    f =(  0.0000000 )
                  (  0.8660254  0.5000000  0.0000000 )       ( -0.0000000 )
                  (  0.0000000  0.0000000  1.0000000 )       ( -0.8259109 )


      isym = 22     inv. 180 deg rotation - cryst. axis [2,1,0]  

 cryst.   s(22) = (    -1         -1          0      )    f =(  0.0000000 )
                  (     0          1          0      )       ( -0.0000000 )
                  (     0          0          1      )       ( -0.5000000 )

 cart.    s(22) = ( -0.5000000 -0.8660254  0.0000000 )    f =(  0.0000000 )
                  ( -0.8660254  0.5000000  0.0000000 )       ( -0.0000000 )
                  (  0.0000000  0.0000000  1.0000000 )       ( -0.8259109 )


      isym = 23     inv. 180 deg rotation - cryst. axis [0,1,0]  

 cryst.   s(23) = (     1          1          0      )
                  (     0         -1          0      )
                  (     0          0          1      )

 cart.    s(23) = (  0.5000000  0.8660254  0.0000000 )
                  (  0.8660254 -0.5000000  0.0000000 )
                  (  0.0000000  0.0000000  1.0000000 )


      isym = 24     inv. 180 deg rotation - cryst. axis [1,1,0]  

 cryst.   s(24) = (     0         -1          0      )
                  (    -1          0          0      )
                  (     0          0          1      )

 cart.    s(24) = (  0.5000000 -0.8660254  0.0000000 )
                  ( -0.8660254 -0.5000000  0.0000000 )
                  (  0.0000000  0.0000000  1.0000000 )


     point group D_6h(6/mmm)
     there are 12 classes
     the character table:

       E     2C6   2C3   C2    3C2'  3C2'' i     2S3   2S6   s_h   3s_d  3s_v 
A_1g   1.00  1.00  1.00  1.00  1.00  1.00  1.00  1.00  1.00  1.00  1.00  1.00
A_2g   1.00  1.00  1.00  1.00 -1.00 -1.00  1.00  1.00  1.00  1.00 -1.00 -1.00
B_1g   1.00 -1.00  1.00 -1.00  1.00 -1.00  1.00 -1.00  1.00 -1.00  1.00 -1.00
B_2g   1.00 -1.00  1.00 -1.00 -1.00  1.00  1.00 -1.00  1.00 -1.00 -1.00  1.00
E_1g   2.00  1.00 -1.00 -2.00  0.00  0.00  2.00  1.00 -1.00 -2.00  0.00  0.00
E_2g   2.00 -1.00 -1.00  2.00  0.00  0.00  2.00 -1.00 -1.00  2.00  0.00  0.00
A_1u   1.00  1.00  1.00  1.00  1.00  1.00 -1.00 -1.00 -1.00 -1.00 -1.00 -1.00
A_2u   1.00  1.00  1.00  1.00 -1.00 -1.00 -1.00 -1.00 -1.00 -1.00  1.00  1.00
B_1u   1.00 -1.00  1.00 -1.00  1.00 -1.00 -1.00  1.00 -1.00  1.00 -1.00  1.00
B_2u   1.00 -1.00  1.00 -1.00 -1.00  1.00 -1.00  1.00 -1.00  1.00  1.00 -1.00
E_1u   2.00  1.00 -1.00 -2.00  0.00  0.00 -2.00 -1.00  1.00  2.00  0.00  0.00
E_2u   2.00 -1.00 -1.00  2.00  0.00  0.00 -2.00  1.00  1.00 -2.00  0.00  0.00

     the symmetry operations in each class and the name of the first element:

     E        1
          identity                                               
     2C6      5    6
           60 deg rotation - cryst. axis [0,0,1]                 
     2C3      7    8
          120 deg rotation - cryst. axis [0,0,1]                 
     C2       2
          180 deg rotation - cart. axis [0,0,1]                  
     3C2'     4   12   11
          180 deg rotation - cart. axis [1,0,0]                  
     3C2''    3    9   10
          180 deg rotation - cart. axis [0,1,0]                  
     i       13
          inversion                                              
     2S3     17   18
          inv.  60 deg rotation - cryst. axis [0,0,1]            
     2S6     19   20
          inv. 120 deg rotation - cryst. axis [0,0,1]            
     s_h     14
          inv. 180 deg rotation - cart. axis [0,0,1]             
     3s_d    16   24   23
          inv. 180 deg rotation - cart. axis [1,0,0]             
     3s_v    15   21   22
          inv. 180 deg rotation - cart. axis [0,1,0]             

   Cartesian axes

     site n.     atom                  positions (alat units)
         1           Co  tau(   1) = (  -0.0000000   0.5773503   0.4129555  )
         2           Co  tau(   2) = (   0.5000000   0.2886751   1.2388664  )

   Crystallographic axes

     site n.     atom                  positions (cryst. coord.)
         1           Co  tau(   1) = (  0.3333333  0.6666667  0.2500000  )
         2           Co  tau(   2) = (  0.6666667  0.3333333  0.7500000  )

     number of k points=    76  Gaussian smearing, width (Ry)=  0.0010
                       cart. coord. in units 2pi/alat
        k(    1) = (   0.0000000   0.0000000   0.0000000), wk =   0.0011574
        k(    2) = (   0.0000000   0.0000000   0.1008987), wk =   0.0023148
        k(    3) = (   0.0000000   0.0000000   0.2017974), wk =   0.0023148
        k(    4) = (   0.0000000   0.0000000  -0.3026961), wk =   0.0011574
        k(    5) = (   0.0000000   0.0962250   0.0000000), wk =   0.0069444
        k(    6) = (   0.0000000   0.0962250   0.1008987), wk =   0.0138889
        k(    7) = (   0.0000000   0.0962250   0.2017974), wk =   0.0138889
        k(    8) = (   0.0000000   0.0962250  -0.3026961), wk =   0.0069444
        k(    9) = (   0.0000000   0.1924501   0.0000000), wk =   0.0069444
        k(   10) = (   0.0000000   0.1924501   0.1008987), wk =   0.0138889
        k(   11) = (   0.0000000   0.1924501   0.2017974), wk =   0.0138889
        k(   12) = (   0.0000000   0.1924501  -0.3026961), wk =   0.0069444
        k(   13) = (   0.0000000   0.2886751   0.0000000), wk =   0.0069444
        k(   14) = (   0.0000000   0.2886751   0.1008987), wk =   0.0138889
        k(   15) = (   0.0000000   0.2886751   0.2017974), wk =   0.0138889
        k(   16) = (   0.0000000   0.2886751  -0.3026961), wk =   0.0069444
        k(   17) = (   0.0000000   0.3849002   0.0000000), wk =   0.0069444
        k(   18) = (   0.0000000   0.3849002   0.1008987), wk =   0.0138889
        k(   19) = (   0.0000000   0.3849002   0.2017974), wk =   0.0138889
        k(   20) = (   0.0000000   0.3849002  -0.3026961), wk =   0.0069444
        k(   21) = (   0.0000000   0.4811252   0.0000000), wk =   0.0069444
        k(   22) = (   0.0000000   0.4811252   0.1008987), wk =   0.0138889
        k(   23) = (   0.0000000   0.4811252   0.2017974), wk =   0.0138889
        k(   24) = (   0.0000000   0.4811252  -0.3026961), wk =   0.0069444
        k(   25) = (   0.0000000  -0.5773503   0.0000000), wk =   0.0034722
        k(   26) = (   0.0000000  -0.5773503   0.1008987), wk =   0.0069444
        k(   27) = (   0.0000000  -0.5773503   0.2017974), wk =   0.0069444
        k(   28) = (   0.0000000  -0.5773503  -0.3026961), wk =   0.0034722
        k(   29) = (   0.0833333   0.1443376   0.0000000), wk =   0.0069444
        k(   30) = (   0.0833333   0.1443376   0.1008987), wk =   0.0138889
        k(   31) = (   0.0833333   0.1443376   0.2017974), wk =   0.0138889
        k(   32) = (   0.0833333   0.1443376  -0.3026961), wk =   0.0069444
        k(   33) = (   0.0833333   0.2405626   0.0000000), wk =   0.0138889
        k(   34) = (   0.0833333   0.2405626   0.1008987), wk =   0.0277778
        k(   35) = (   0.0833333   0.2405626   0.2017974), wk =   0.0277778
        k(   36) = (   0.0833333   0.2405626  -0.3026961), wk =   0.0138889
        k(   37) = (   0.0833333   0.3367877   0.0000000), wk =   0.0138889
        k(   38) = (   0.0833333   0.3367877   0.1008987), wk =   0.0277778
        k(   39) = (   0.0833333   0.3367877   0.2017974), wk =   0.0277778
        k(   40) = (   0.0833333   0.3367877  -0.3026961), wk =   0.0138889
        k(   41) = (   0.0833333   0.4330127   0.0000000), wk =   0.0138889
        k(   42) = (   0.0833333   0.4330127   0.1008987), wk =   0.0277778
        k(   43) = (   0.0833333   0.4330127   0.2017974), wk =   0.0277778
        k(   44) = (   0.0833333   0.4330127  -0.3026961), wk =   0.0138889
        k(   45) = (   0.0833333   0.5292377   0.0000000), wk =   0.0138889
        k(   46) = (   0.0833333   0.5292377   0.1008987), wk =   0.0277778
        k(   47) = (   0.0833333   0.5292377   0.2017974), wk =   0.0277778
        k(   48) = (   0.0833333   0.5292377  -0.3026961), wk =   0.0138889
        k(   49) = (   0.1666667   0.2886751   0.0000000), wk =   0.0069444
        k(   50) = (   0.1666667   0.2886751   0.1008987), wk =   0.0138889
        k(   51) = (   0.1666667   0.2886751   0.2017974), wk =   0.0138889
        k(   52) = (   0.1666667   0.2886751  -0.3026961), wk =   0.0069444
        k(   53) = (   0.1666667   0.3849002   0.0000000), wk =   0.0138889
        k(   54) = (   0.1666667   0.3849002   0.1008987), wk =   0.0277778
        k(   55) = (   0.1666667   0.3849002   0.2017974), wk =   0.0277778
        k(   56) = (   0.1666667   0.3849002  -0.3026961), wk =   0.0138889
        k(   57) = (   0.1666667   0.4811252   0.0000000), wk =   0.0138889
        k(   58) = (   0.1666667   0.4811252   0.1008987), wk =   0.0277778
        k(   59) = (   0.1666667   0.4811252   0.2017974), wk =   0.0277778
        k(   60) = (   0.1666667   0.4811252  -0.3026961), wk =   0.0138889
        k(   61) = (   0.1666667   0.5773503   0.0000000), wk =   0.0069444
        k(   62) = (   0.1666667   0.5773503   0.1008987), wk =   0.0138889
        k(   63) = (   0.1666667   0.5773503   0.2017974), wk =   0.0138889
        k(   64) = (   0.1666667   0.5773503  -0.3026961), wk =   0.0069444
        k(   65) = (   0.2500000   0.4330127   0.0000000), wk =   0.0069444
        k(   66) = (   0.2500000   0.4330127   0.1008987), wk =   0.0138889
        k(   67) = (   0.2500000   0.4330127   0.2017974), wk =   0.0138889
        k(   68) = (   0.2500000   0.4330127  -0.3026961), wk =   0.0069444
        k(   69) = (   0.2500000   0.5292377   0.0000000), wk =   0.0138889
        k(   70) = (   0.2500000   0.5292377   0.1008987), wk =   0.0277778
        k(   71) = (   0.2500000   0.5292377   0.2017974), wk =   0.0277778
        k(   72) = (   0.2500000   0.5292377  -0.3026961), wk =   0.0138889
        k(   73) = (   0.3333333   0.5773503   0.0000000), wk =   0.0023148
        k(   74) = (   0.3333333   0.5773503   0.1008987), wk =   0.0046296
        k(   75) = (   0.3333333   0.5773503   0.2017974), wk =   0.0046296
        k(   76) = (   0.3333333   0.5773503  -0.3026961), wk =   0.0023148

                       cryst. coord.
        k(    1) = (   0.0000000   0.0000000   0.0000000), wk =   0.0011574
        k(    2) = (   0.0000000   0.0000000   0.1666667), wk =   0.0023148
        k(    3) = (   0.0000000   0.0000000   0.3333333), wk =   0.0023148
        k(    4) = (   0.0000000   0.0000000  -0.5000000), wk =   0.0011574
        k(    5) = (   0.0000000   0.0833333   0.0000000), wk =   0.0069444
        k(    6) = (   0.0000000   0.0833333   0.1666667), wk =   0.0138889
        k(    7) = (   0.0000000   0.0833333   0.3333333), wk =   0.0138889
        k(    8) = (   0.0000000   0.0833333  -0.5000000), wk =   0.0069444
        k(    9) = (   0.0000000   0.1666667   0.0000000), wk =   0.0069444
        k(   10) = (   0.0000000   0.1666667   0.1666667), wk =   0.0138889
        k(   11) = (   0.0000000   0.1666667   0.3333333), wk =   0.0138889
        k(   12) = (   0.0000000   0.1666667  -0.5000000), wk =   0.0069444
        k(   13) = (   0.0000000   0.2500000   0.0000000), wk =   0.0069444
        k(   14) = (   0.0000000   0.2500000   0.1666667), wk =   0.0138889
        k(   15) = (   0.0000000   0.2500000   0.3333333), wk =   0.0138889
        k(   16) = (   0.0000000   0.2500000  -0.5000000), wk =   0.0069444
        k(   17) = (   0.0000000   0.3333333   0.0000000), wk =   0.0069444
        k(   18) = (   0.0000000   0.3333333   0.1666667), wk =   0.0138889
        k(   19) = (   0.0000000   0.3333333   0.3333333), wk =   0.0138889
        k(   20) = (   0.0000000   0.3333333  -0.5000000), wk =   0.0069444
        k(   21) = (   0.0000000   0.4166667   0.0000000), wk =   0.0069444
        k(   22) = (   0.0000000   0.4166667   0.1666667), wk =   0.0138889
        k(   23) = (   0.0000000   0.4166667   0.3333333), wk =   0.0138889
        k(   24) = (   0.0000000   0.4166667  -0.5000000), wk =   0.0069444
        k(   25) = (   0.0000000  -0.5000000   0.0000000), wk =   0.0034722
        k(   26) = (   0.0000000  -0.5000000   0.1666667), wk =   0.0069444
        k(   27) = (   0.0000000  -0.5000000   0.3333333), wk =   0.0069444
        k(   28) = (   0.0000000  -0.5000000  -0.5000000), wk =   0.0034722
        k(   29) = (   0.0833333   0.0833333   0.0000000), wk =   0.0069444
        k(   30) = (   0.0833333   0.0833333   0.1666667), wk =   0.0138889
        k(   31) = (   0.0833333   0.0833333   0.3333333), wk =   0.0138889
        k(   32) = (   0.0833333   0.0833333  -0.5000000), wk =   0.0069444
        k(   33) = (   0.0833333   0.1666667   0.0000000), wk =   0.0138889
        k(   34) = (   0.0833333   0.1666667   0.1666667), wk =   0.0277778
        k(   35) = (   0.0833333   0.1666667   0.3333333), wk =   0.0277778
        k(   36) = (   0.0833333   0.1666667  -0.5000000), wk =   0.0138889
        k(   37) = (   0.0833333   0.2500000   0.0000000), wk =   0.0138889
        k(   38) = (   0.0833333   0.2500000   0.1666667), wk =   0.0277778
        k(   39) = (   0.0833333   0.2500000   0.3333333), wk =   0.0277778
        k(   40) = (   0.0833333   0.2500000  -0.5000000), wk =   0.0138889
        k(   41) = (   0.0833333   0.3333333   0.0000000), wk =   0.0138889
        k(   42) = (   0.0833333   0.3333333   0.1666667), wk =   0.0277778
        k(   43) = (   0.0833333   0.3333333   0.3333333), wk =   0.0277778
        k(   44) = (   0.0833333   0.3333333  -0.5000000), wk =   0.0138889
        k(   45) = (   0.0833333   0.4166667   0.0000000), wk =   0.0138889
        k(   46) = (   0.0833333   0.4166667   0.1666667), wk =   0.0277778
        k(   47) = (   0.0833333   0.4166667   0.3333333), wk =   0.0277778
        k(   48) = (   0.0833333   0.4166667  -0.5000000), wk =   0.0138889
        k(   49) = (   0.1666667   0.1666667   0.0000000), wk =   0.0069444
        k(   50) = (   0.1666667   0.1666667   0.1666667), wk =   0.0138889
        k(   51) = (   0.1666667   0.1666667   0.3333333), wk =   0.0138889
        k(   52) = (   0.1666667   0.1666667  -0.5000000), wk =   0.0069444
        k(   53) = (   0.1666667   0.2500000   0.0000000), wk =   0.0138889
        k(   54) = (   0.1666667   0.2500000   0.1666667), wk =   0.0277778
        k(   55) = (   0.1666667   0.2500000   0.3333333), wk =   0.0277778
        k(   56) = (   0.1666667   0.2500000  -0.5000000), wk =   0.0138889
        k(   57) = (   0.1666667   0.3333333   0.0000000), wk =   0.0138889
        k(   58) = (   0.1666667   0.3333333   0.1666667), wk =   0.0277778
        k(   59) = (   0.1666667   0.3333333   0.3333333), wk =   0.0277778
        k(   60) = (   0.1666667   0.3333333  -0.5000000), wk =   0.0138889
        k(   61) = (   0.1666667   0.4166667   0.0000000), wk =   0.0069444
        k(   62) = (   0.1666667   0.4166667   0.1666667), wk =   0.0138889
        k(   63) = (   0.1666667   0.4166667   0.3333333), wk =   0.0138889
        k(   64) = (   0.1666667   0.4166667  -0.5000000), wk =   0.0069444
        k(   65) = (   0.2500000   0.2500000   0.0000000), wk =   0.0069444
        k(   66) = (   0.2500000   0.2500000   0.1666667), wk =   0.0138889
        k(   67) = (   0.2500000   0.2500000   0.3333333), wk =   0.0138889
        k(   68) = (   0.2500000   0.2500000  -0.5000000), wk =   0.0069444
        k(   69) = (   0.2500000   0.3333333   0.0000000), wk =   0.0138889
        k(   70) = (   0.2500000   0.3333333   0.1666667), wk =   0.0277778
        k(   71) = (   0.2500000   0.3333333   0.3333333), wk =   0.0277778
        k(   72) = (   0.2500000   0.3333333  -0.5000000), wk =   0.0138889
        k(   73) = (   0.3333333   0.3333333   0.0000000), wk =   0.0023148
        k(   74) = (   0.3333333   0.3333333   0.1666667), wk =   0.0046296
        k(   75) = (   0.3333333   0.3333333   0.3333333), wk =   0.0046296
        k(   76) = (   0.3333333   0.3333333  -0.5000000), wk =   0.0023148

     Dense  grid:    23477 G-vectors     FFT dimensions: (  32,  32,  54)

     Smooth grid:    22695 G-vectors     FFT dimensions: (  32,  32,  54)

     Dynamical RAM for                 wfc:       0.05 MB

     Dynamical RAM for     wfc (w. buffer):       6.91 MB

     Dynamical RAM for           str. fact:       0.02 MB

     Dynamical RAM for           local pot:       0.00 MB

     Dynamical RAM for          nlocal pot:       0.08 MB

     Dynamical RAM for                qrad:       1.70 MB

     Dynamical RAM for          rho,v,vnew:       0.25 MB

     Dynamical RAM for               rhoin:       0.08 MB

     Dynamical RAM for            rho*nmix:       0.58 MB

     Dynamical RAM for           G-vectors:       0.08 MB

     Dynamical RAM for          h,s,v(r/c):       0.08 MB

     Dynamical RAM for          <psi|beta>:       0.01 MB

     Dynamical RAM for                 psi:       0.09 MB

     Dynamical RAM for                hpsi:       0.09 MB

     Dynamical RAM for                spsi:       0.09 MB

     Dynamical RAM for      wfcinit/wfcrot:       0.10 MB

     Dynamical RAM for           addusdens:       3.41 MB

     Estimated static dynamical RAM per process >       9.30 MB

     Estimated max dynamical RAM per process >      13.28 MB

     Estimated total dynamical RAM >     265.55 MB

     Check: negative core charge=   -0.000043
     Generating pointlists ...
     new r_m :   0.4125 (alat units)  1.9254 (a.u.) for type    1

     The initial density is read from file :
     ./out/Co.save/charge-density


     starting charge      34.0417, renormalised to      34.0000

     negative rho (up, down):  8.837E-02 7.192E-02
     Starting wfcs from file
     Checking if some PAW data can be deallocated... 

     total cpu time spent up to now is        0.6 secs

     Self-consistent Calculation

     iteration #  1     ecut=   110.00 Ry     beta= 0.70
     Davidson diagonalization with overlap

---- Real-time Memory Report at c_bands before calling an iterative solver
            57 MiB given to the printing process from OS
             0 MiB allocation reported by mallinfo(arena+hblkhd)
        351396 MiB available memory on the node where the printing process lives
------------------
     ethr =  1.00E-05,  avg # of iterations = 15.9

     negative rho (up, down):  6.503E-04 3.017E-04

     total cpu time spent up to now is        7.7 secs

     total energy              =    -753.28322003 Ry
     estimated scf accuracy    <       0.04702353 Ry

     total magnetization       =     3.39 Bohr mag/cell
     absolute magnetization    =     3.66 Bohr mag/cell

     iteration #  2     ecut=   110.00 Ry     beta= 0.70
     Davidson diagonalization with overlap

---- Real-time Memory Report at c_bands before calling an iterative solver
            80 MiB given to the printing process from OS
             0 MiB allocation reported by mallinfo(arena+hblkhd)
        351182 MiB available memory on the node where the printing process lives
------------------
     ethr =  1.38E-04,  avg # of iterations =  2.9

     total cpu time spent up to now is        9.2 secs

     total energy              =    -753.39352532 Ry
     estimated scf accuracy    <       0.02561956 Ry

     total magnetization       =     3.31 Bohr mag/cell
     absolute magnetization    =     3.56 Bohr mag/cell

     iteration #  3     ecut=   110.00 Ry     beta= 0.70
     Davidson diagonalization with overlap

---- Real-time Memory Report at c_bands before calling an iterative solver
            82 MiB given to the printing process from OS
             0 MiB allocation reported by mallinfo(arena+hblkhd)
        351170 MiB available memory on the node where the printing process lives
------------------
     ethr =  7.54E-05,  avg # of iterations =  4.3

     total cpu time spent up to now is       11.2 secs

     total energy              =    -753.45362582 Ry
     estimated scf accuracy    <       0.03483015 Ry

     total magnetization       =     3.37 Bohr mag/cell
     absolute magnetization    =     3.67 Bohr mag/cell

     iteration #  4     ecut=   110.00 Ry     beta= 0.70
     Davidson diagonalization with overlap

---- Real-time Memory Report at c_bands before calling an iterative solver
            83 MiB given to the printing process from OS
             0 MiB allocation reported by mallinfo(arena+hblkhd)
        351156 MiB available memory on the node where the printing process lives
------------------
     ethr =  7.54E-05,  avg # of iterations =  2.0

     total cpu time spent up to now is       12.5 secs

     total energy              =    -753.45224178 Ry
     estimated scf accuracy    <       0.01038152 Ry

     total magnetization       =     3.37 Bohr mag/cell
     absolute magnetization    =     3.67 Bohr mag/cell

     iteration #  5     ecut=   110.00 Ry     beta= 0.70
     Davidson diagonalization with overlap

---- Real-time Memory Report at c_bands before calling an iterative solver
            85 MiB given to the printing process from OS
             0 MiB allocation reported by mallinfo(arena+hblkhd)
        351144 MiB available memory on the node where the printing process lives
------------------
     ethr =  3.05E-05,  avg # of iterations =  3.8

     total cpu time spent up to now is       14.1 secs

     total energy              =    -753.45412193 Ry
     estimated scf accuracy    <       0.00050430 Ry

     total magnetization       =     3.36 Bohr mag/cell
     absolute magnetization    =     3.66 Bohr mag/cell

     iteration #  6     ecut=   110.00 Ry     beta= 0.70
     Davidson diagonalization with overlap

---- Real-time Memory Report at c_bands before calling an iterative solver
            85 MiB given to the printing process from OS
             0 MiB allocation reported by mallinfo(arena+hblkhd)
        351137 MiB available memory on the node where the printing process lives
------------------
     ethr =  1.48E-06,  avg # of iterations =  5.1

     total cpu time spent up to now is       16.1 secs

     total energy              =    -753.45468500 Ry
     estimated scf accuracy    <       0.00001697 Ry

     total magnetization       =     3.36 Bohr mag/cell
     absolute magnetization    =     3.67 Bohr mag/cell

     iteration #  7     ecut=   110.00 Ry     beta= 0.70
     Davidson diagonalization with overlap

---- Real-time Memory Report at c_bands before calling an iterative solver
            86 MiB given to the printing process from OS
             0 MiB allocation reported by mallinfo(arena+hblkhd)
        351128 MiB available memory on the node where the printing process lives
------------------
     ethr =  4.99E-08,  avg # of iterations =  7.2

     total cpu time spent up to now is       18.7 secs

     total energy              =    -753.45471079 Ry
     estimated scf accuracy    <       0.00008080 Ry

     total magnetization       =     3.36 Bohr mag/cell
     absolute magnetization    =     3.67 Bohr mag/cell

     iteration #  8     ecut=   110.00 Ry     beta= 0.70
     Davidson diagonalization with overlap

---- Real-time Memory Report at c_bands before calling an iterative solver
            87 MiB given to the printing process from OS
             0 MiB allocation reported by mallinfo(arena+hblkhd)
        351125 MiB available memory on the node where the printing process lives
------------------
     ethr =  4.99E-08,  avg # of iterations =  1.9

     total cpu time spent up to now is       20.0 secs

     total energy              =    -753.45470596 Ry
     estimated scf accuracy    <       0.00003335 Ry

     total magnetization       =     3.36 Bohr mag/cell
     absolute magnetization    =     3.67 Bohr mag/cell

     iteration #  9     ecut=   110.00 Ry     beta= 0.70
     Davidson diagonalization with overlap

---- Real-time Memory Report at c_bands before calling an iterative solver
            87 MiB given to the printing process from OS
             0 MiB allocation reported by mallinfo(arena+hblkhd)
        351117 MiB available memory on the node where the printing process lives
------------------
     ethr =  4.99E-08,  avg # of iterations =  2.9

     total cpu time spent up to now is       21.5 secs

     total energy              =    -753.45470943 Ry
     estimated scf accuracy    <       0.00000662 Ry

     total magnetization       =     3.36 Bohr mag/cell
     absolute magnetization    =     3.67 Bohr mag/cell

     iteration # 10     ecut=   110.00 Ry     beta= 0.70
     Davidson diagonalization with overlap

---- Real-time Memory Report at c_bands before calling an iterative solver
            88 MiB given to the printing process from OS
             0 MiB allocation reported by mallinfo(arena+hblkhd)
        351115 MiB available memory on the node where the printing process lives
------------------
     ethr =  1.95E-08,  avg # of iterations =  2.1

     total cpu time spent up to now is       22.9 secs

     total energy              =    -753.45470648 Ry
     estimated scf accuracy    <       0.00000662 Ry

     total magnetization       =     3.36 Bohr mag/cell
     absolute magnetization    =     3.67 Bohr mag/cell

     iteration # 11     ecut=   110.00 Ry     beta= 0.70
     Davidson diagonalization with overlap

---- Real-time Memory Report at c_bands before calling an iterative solver
            88 MiB given to the printing process from OS
             0 MiB allocation reported by mallinfo(arena+hblkhd)
        351110 MiB available memory on the node where the printing process lives
------------------
     ethr =  1.95E-08,  avg # of iterations =  4.3

     total cpu time spent up to now is       24.8 secs

     total energy              =    -753.45471021 Ry
     estimated scf accuracy    <       0.00000400 Ry

     total magnetization       =     3.36 Bohr mag/cell
     absolute magnetization    =     3.67 Bohr mag/cell

     iteration # 12     ecut=   110.00 Ry     beta= 0.70
     Davidson diagonalization with overlap

---- Real-time Memory Report at c_bands before calling an iterative solver
            89 MiB given to the printing process from OS
             0 MiB allocation reported by mallinfo(arena+hblkhd)
        351106 MiB available memory on the node where the printing process lives
------------------
     ethr =  1.18E-08,  avg # of iterations =  1.3

     total cpu time spent up to now is       26.1 secs

     total energy              =    -753.45471001 Ry
     estimated scf accuracy    <       0.00000264 Ry

     total magnetization       =     3.36 Bohr mag/cell
     absolute magnetization    =     3.67 Bohr mag/cell

     iteration # 13     ecut=   110.00 Ry     beta= 0.70
     Davidson diagonalization with overlap

---- Real-time Memory Report at c_bands before calling an iterative solver
            89 MiB given to the printing process from OS
             0 MiB allocation reported by mallinfo(arena+hblkhd)
        351107 MiB available memory on the node where the printing process lives
------------------
     ethr =  7.76E-09,  avg # of iterations =  1.4

     total cpu time spent up to now is       27.3 secs

     total energy              =    -753.45470999 Ry
     estimated scf accuracy    <       0.00000144 Ry

     total magnetization       =     3.36 Bohr mag/cell
     absolute magnetization    =     3.67 Bohr mag/cell

     iteration # 14     ecut=   110.00 Ry     beta= 0.70
     Davidson diagonalization with overlap

---- Real-time Memory Report at c_bands before calling an iterative solver
            90 MiB given to the printing process from OS
             0 MiB allocation reported by mallinfo(arena+hblkhd)
        351103 MiB available memory on the node where the printing process lives
------------------
     ethr =  4.24E-09,  avg # of iterations =  1.6
 
     Magnetic moment per site  (integrated on atomic sphere of radius R)
     atom   1 (R=0.413)  charge= 15.5780  magn=  1.7523
     atom   2 (R=0.413)  charge= 15.5780  magn=  1.7523

     total cpu time spent up to now is       28.5 secs

     End of self-consistent calculation

 ------ SPIN UP ------------


          k = 0.0000 0.0000 0.0000 (  2815 PWs)   bands (ev):

   -77.3221 -77.2691 -40.7235 -40.4148 -40.4148 -40.4071 -40.3717 -40.3717
     9.7888  13.5761  16.0565  16.1981  16.1981  16.4912  16.4912  16.9046
    16.9046  17.9416  17.9416  18.3527  24.8698

     occupation numbers 
     1.0000   1.0000   1.0000   1.0000   1.0000   1.0000   1.0000   1.0000
     1.0000   1.0000   1.0000   1.0000   1.0000   1.0000   1.0000   1.0000
     1.0000   1.0000   1.0000   1.0000   0.0000

          k = 0.0000 0.0000 0.1009 (  2852 PWs)   bands (ev):

   -77.3186 -77.2726 -40.7026 -40.4286 -40.4119 -40.4119 -40.3746 -40.3746
    10.0591  13.4947  15.9907  16.1457  16.1457  16.4258  16.4258  17.0491
    17.0491  17.4455  17.9220  17.9220  26.3420

     occupation numbers 
     1.0000   1.0000   1.0000   1.0000   1.0000   1.0000   1.0000   1.0000
     1.0000   1.0000   1.0000   1.0000   1.0000   1.0000   1.0000   1.0000
     1.0000   1.0000   1.0000   1.0000   0.0000

          k = 0.0000 0.0000 0.2018 (  2846 PWs)   bands (ev):

   -77.3089 -77.2824 -40.6452 -40.4870 -40.4040 -40.4040 -40.3825 -40.3825
    10.8345  13.0292  15.8400  16.1003  16.1003  16.1987  16.2801  16.2801
    17.3448  17.3448  17.8319  17.8319  29.4761

     occupation numbers 
     1.0000   1.0000   1.0000   1.0000   1.0000   1.0000   1.0000   1.0000
     1.0000   1.0000   1.0000   1.0000   1.0000   1.0000   1.0000   1.0000
     1.0000   1.0000   1.0000   1.0000   0.0000

          k = 0.0000 0.0000-0.3027 (  2846 PWs)   bands (ev):

   -77.2956 -77.2956 -40.5664 -40.5664 -40.3933 -40.3933 -40.3933 -40.3933
    11.9674  11.9674  15.7719  15.7719  16.1489  16.1489  16.1489  16.1489
    17.6332  17.6332  17.6332  17.6332  33.2339

     occupation numbers 
     1.0000   1.0000   1.0000   1.0000   1.0000   1.0000   1.0000   1.0000
     1.0000   1.0000   1.0000   1.0000   1.0000   1.0000   1.0000   1.0000
     1.0000   1.0000   1.0000   1.0000   0.0000

          k = 0.0000 0.0962 0.0000 (  2825 PWs)   bands (ev):

   -77.3187 -77.2673 -40.7163 -40.4320 -40.4202 -40.4097 -40.3894 -40.3747
    10.0354  13.7295  15.9220  16.2995  16.3154  16.4365  16.5965  16.7163
    16.8334  17.0839  17.9694  19.5587  24.9097

     occupation numbers 
     1.0000   1.0000   1.0000   1.0000   1.0000   1.0000   1.0000   1.0000
     1.0000   1.0000   1.0000   1.0000   1.0000   1.0000   1.0000   1.0000
     1.0000   1.0000   1.0000   0.0000   0.0000

          k = 0.0000 0.0962 0.1009 (  2838 PWs)   bands (ev):

   -77.3153 -77.2707 -40.6965 -40.4338 -40.4284 -40.4172 -40.3892 -40.3778
    10.3015  13.6623  15.9200  16.1475  16.2490  16.2561  16.5256  16.7523
    17.0016  17.0509  17.9429  18.8408  26.4526

     occupation numbers 
     1.0000   1.0000   1.0000   1.0000   1.0000   1.0000   1.0000   1.0000
     1.0000   1.0000   1.0000   1.0000   1.0000   1.0000   1.0000   1.0000
     1.0000   1.0000   1.0000   0.0118   0.0000

          k = 0.0000 0.0962 0.2018 (  2846 PWs)   bands (ev):

   -77.3059 -77.2802 -40.6422 -40.4913 -40.4196 -40.4088 -40.3958 -40.3861
    11.0645  13.2235  15.8015  15.8317  16.0148  16.1960  16.3780  16.3904
    17.3171  17.3568  17.8368  18.1230  29.6341

     occupation numbers 
     1.0000   1.0000   1.0000   1.0000   1.0000   1.0000   1.0000   1.0000
     1.0000   1.0000   1.0000   1.0000   1.0000   1.0000   1.0000   1.0000
     1.0000   1.0000   1.0000   1.0000   0.0000

          k = 0.0000 0.0962-0.3027 (  2834 PWs)   bands (ev):

   -77.2930 -77.2930 -40.5673 -40.5673 -40.4074 -40.4074 -40.3975 -40.3975
    12.1793  12.1793  15.6501  15.6501  16.1377  16.1377  16.2452  16.2452
    17.6209  17.6209  17.7212  17.7212  33.4088

     occupation numbers 
     1.0000   1.0000   1.0000   1.0000   1.0000   1.0000   1.0000   1.0000
     1.0000   1.0000   1.0000   1.0000   1.0000   1.0000   1.0000   1.0000
     1.0000   1.0000   1.0000   1.0000   0.0000

          k = 0.0000 0.1925 0.0000 (  2833 PWs)   bands (ev):

   -77.3093 -77.2625 -40.6960 -40.4791 -40.4374 -40.4347 -40.4175 -40.3833
    10.7480  14.1098  15.6728  15.9045  16.2357  16.6010  16.6468  16.6580
    16.7858  16.8916  18.0271  21.1610  25.0513

     occupation numbers 
     1.0000   1.0000   1.0000   1.0000   1.0000   1.0000   1.0000   1.0000
     1.0000   1.0000   1.0000   1.0000   1.0000   1.0000   1.0000   1.0000
     1.0000   1.0000   1.0000   0.0000   0.0000

          k = 0.0000 0.1925 0.1009 (  2826 PWs)   bands (ev):

   -77.3061 -77.2657 -40.6798 -40.4748 -40.4591 -40.4312 -40.4166 -40.3868
    10.9982  14.0862  15.6384  15.7145  16.1160  16.4808  16.4936  16.7856
    16.9680  17.0265  17.9856  20.0638  26.8142

     occupation numbers 
     1.0000   1.0000   1.0000   1.0000   1.0000   1.0000   1.0000   1.0000
     1.0000   1.0000   1.0000   1.0000   1.0000   1.0000   1.0000   1.0000
     1.0000   1.0000   1.0000   0.0000   0.0000

          k = 0.0000 0.1925 0.2018 (  2842 PWs)   bands (ev):

   -77.2976 -77.2742 -40.6354 -40.5107 -40.4597 -40.4253 -40.4218 -40.3962
    11.7124  13.7253  15.3169  15.7709  15.8417  16.3265  16.4317  16.6485
    17.2856  17.4282  17.8469  18.7558  30.1079

     occupation numbers 
     1.0000   1.0000   1.0000   1.0000   1.0000   1.0000   1.0000   1.0000
     1.0000   1.0000   1.0000   1.0000   1.0000   1.0000   1.0000   1.0000
     1.0000   1.0000   1.0000   1.0000   0.0000

          k = 0.0000 0.1925-0.3027 (  2842 PWs)   bands (ev):

   -77.2859 -77.2859 -40.5738 -40.5738 -40.4419 -40.4419 -40.4090 -40.4090
    12.7495  12.7495  15.4381  15.4381  16.0608  16.0608  16.5018  16.5018
    17.6027  17.6027  17.9593  17.9593  33.8968

     occupation numbers 
     1.0000   1.0000   1.0000   1.0000   1.0000   1.0000   1.0000   1.0000
     1.0000   1.0000   1.0000   1.0000   1.0000   1.0000   1.0000   1.0000
     1.0000   1.0000   1.0000   1.0000   0.0000

          k = 0.0000 0.2887 0.0000 (  2819 PWs)   bands (ev):

   -77.2959 -77.2565 -40.6656 -40.5439 -40.5018 -40.4539 -40.4308 -40.3955
    11.8240  14.4120  15.1771  15.5262  16.1191  16.4470  16.5685  17.0459
    17.1279  17.3155  18.0792  22.9595  25.3341

     occupation numbers 
     1.0000   1.0000   1.0000   1.0000   1.0000   1.0000   1.0000   1.0000
     1.0000   1.0000   1.0000   1.0000   1.0000   1.0000   1.0000   1.0000
     1.0000   1.0000   1.0000   0.0000   0.0000

          k = 0.0000 0.2887 0.1009 (  2823 PWs)   bands (ev):

   -77.2933 -77.2591 -40.6577 -40.5355 -40.5152 -40.4500 -40.4338 -40.3994
    12.0311  14.4407  15.0418  15.5782  15.9756  16.4865  16.5622  17.1649
    17.1777  17.2764  18.0257  21.3385  27.4717

     occupation numbers 
     1.0000   1.0000   1.0000   1.0000   1.0000   1.0000   1.0000   1.0000
     1.0000   1.0000   1.0000   1.0000   1.0000   1.0000   1.0000   1.0000
     1.0000   1.0000   1.0000   0.0000   0.0000

          k = 0.0000 0.2887 0.2018 (  2830 PWs)   bands (ev):

   -77.2861 -77.2663 -40.6342 -40.5562 -40.5046 -40.4475 -40.4393 -40.4101
    12.6081  14.1668  14.9928  15.5792  15.8778  16.4076  16.6083  17.0263
    17.4144  17.5761  17.8728  19.5196  30.8041

     occupation numbers 
     1.0000   1.0000   1.0000   1.0000   1.0000   1.0000   1.0000   1.0000
     1.0000   1.0000   1.0000   1.0000   1.0000   1.0000   1.0000   1.0000
     1.0000   1.0000   1.0000   0.0000   0.0000

          k = 0.0000 0.2887-0.3027 (  2844 PWs)   bands (ev):

   -77.2762 -77.2762 -40.5979 -40.5979 -40.4735 -40.4735 -40.4247 -40.4247
    13.4098  13.4098  15.2814  15.2814  16.1259  16.1259  16.8030  16.8030
    17.6501  17.6501  18.2973  18.2973  33.3403

     occupation numbers 
     1.0000   1.0000   1.0000   1.0000   1.0000   1.0000   1.0000   1.0000
     1.0000   1.0000   1.0000   1.0000   1.0000   1.0000   1.0000   1.0000
     1.0000   1.0000   1.0000   1.0000   0.0000

          k = 0.0000 0.3849 0.0000 (  2830 PWs)   bands (ev):

   -77.2817 -77.2512 -40.6301 -40.6091 -40.5651 -40.4727 -40.4491 -40.4080
    12.9910  14.3361  14.6590  15.6473  16.2470  16.2565  16.3651  17.6423
    17.7671  17.7739  18.1125  24.9205  25.4927

     occupation numbers 
     1.0000   1.0000   1.0000   1.0000   1.0000   1.0000   1.0000   1.0000
     1.0000   1.0000   1.0000   1.0000   1.0000   1.0000   1.0000   1.0000
     1.0000   1.0000   1.0000   0.0000   0.0000

          k = 0.0000 0.3849 0.1009 (  2832 PWs)   bands (ev):

   -77.2797 -77.2533 -40.6486 -40.5872 -40.5678 -40.4684 -40.4500 -40.4123
    13.0828  14.3493  14.7055  15.4742  16.1978  16.3468  16.7231  17.6487
    17.6874  17.7031  18.0716  22.5854  27.8092

     occupation numbers 
     1.0000   1.0000   1.0000   1.0000   1.0000   1.0000   1.0000   1.0000
     1.0000   1.0000   1.0000   1.0000   1.0000   1.0000   1.0000   1.0000
     1.0000   1.0000   1.0000   0.0000   0.0000

          k = 0.0000 0.3849 0.2018 (  2825 PWs)   bands (ev):

   -77.2741 -77.2589 -40.6549 -40.6126 -40.5263 -40.4598 -40.4566 -40.4242
    13.3445  14.1528  14.8600  15.3502  16.3335  16.6014  17.0611  17.3614
    17.7538  17.8078  17.9776  20.4102  29.0597

     occupation numbers 
     1.0000   1.0000   1.0000   1.0000   1.0000   1.0000   1.0000   1.0000
     1.0000   1.0000   1.0000   1.0000   1.0000   1.0000   1.0000   1.0000
     1.0000   1.0000   1.0000   0.0000   0.0000

          k = 0.0000 0.3849-0.3027 (  2838 PWs)   bands (ev):

   -77.2665 -77.2665 -40.6409 -40.6409 -40.4859 -40.4859 -40.4404 -40.4404
    13.7344  13.7344  15.1359  15.1359  16.7520  16.7520  16.9691  16.9691
    17.8632  17.8632  18.7803  18.7803  30.1514

     occupation numbers 
     1.0000   1.0000   1.0000   1.0000   1.0000   1.0000   1.0000   1.0000
     1.0000   1.0000   1.0000   1.0000   1.0000   1.0000   1.0000   1.0000
     1.0000   1.0000   1.0000   1.0000   0.0000

          k = 0.0000 0.4811 0.0000 (  2832 PWs)   bands (ev):

   -77.2702 -77.2485 -40.6572 -40.6108 -40.5975 -40.4863 -40.4692 -40.4173
    13.7437  14.1415  14.3517  16.0152  16.1263  16.2198  16.4662  18.0293
    18.1289  18.1512  18.9239  23.8712  26.9488

     occupation numbers 
     1.0000   1.0000   1.0000   1.0000   1.0000   1.0000   1.0000   1.0000
     1.0000   1.0000   1.0000   1.0000   1.0000   1.0000   1.0000   1.0000
     1.0000   1.0000   0.0000   0.0000   0.0000

          k = 0.0000 0.4811 0.1009 (  2838 PWs)   bands (ev):

   -77.2687 -77.2500 -40.6732 -40.6263 -40.5686 -40.4817 -40.4665 -40.4219
    13.6283  14.1236  14.6679  15.3589  16.2356  16.4822  17.0978  17.9094
    18.0520  18.1951  18.7633  23.0175  26.4320

     occupation numbers 
     1.0000   1.0000   1.0000   1.0000   1.0000   1.0000   1.0000   1.0000
     1.0000   1.0000   1.0000   1.0000   1.0000   1.0000   1.0000   1.0000
     1.0000   1.0000   1.0000   0.0000   0.0000

          k = 0.0000 0.4811 0.2018 (  2833 PWs)   bands (ev):

   -77.2648 -77.2539 -40.6862 -40.6556 -40.5238 -40.4691 -40.4688 -40.4346
    13.5873  14.0452  14.8414  15.1395  16.5455  16.7653  17.4988  18.0680
    18.0856  18.1771  18.4423  21.2796  26.6347

     occupation numbers 
     1.0000   1.0000   1.0000   1.0000   1.0000   1.0000   1.0000   1.0000
     1.0000   1.0000   1.0000   1.0000   1.0000   1.0000   1.0000   1.0000
     1.0000   1.0000   1.0000   0.0000   0.0000

          k = 0.0000 0.4811-0.3027 (  2838 PWs)   bands (ev):

   -77.2593 -77.2593 -40.6795 -40.6795 -40.4876 -40.4876 -40.4519 -40.4519
    13.7628  13.7628  15.0045  15.0045  16.9995  16.9995  17.4820  17.4820
    18.1332  18.1332  19.6384  19.6384  27.4018

     occupation numbers 
     1.0000   1.0000   1.0000   1.0000   1.0000   1.0000   1.0000   1.0000
     1.0000   1.0000   1.0000   1.0000   1.0000   1.0000   1.0000   1.0000
     1.0000   1.0000   0.0000   0.0000   0.0000

          k = 0.0000-0.5774 0.0000 (  2854 PWs)   bands (ev):

   -77.2654 -77.2481 -40.6748 -40.6274 -40.5824 -40.4912 -40.4798 -40.4207
    13.9849  14.0078  14.2502  16.0802  16.1672  16.2782  16.5373  18.1335
    18.1696  18.3036  20.1102  22.1597  28.2690

     occupation numbers 
     1.0000   1.0000   1.0000   1.0000   1.0000   1.0000   1.0000   1.0000
     1.0000   1.0000   1.0000   1.0000   1.0000   1.0000   1.0000   1.0000
     1.0000   1.0000   0.0000   0.0000   0.0000

          k = 0.0000-0.5774 0.1009 (  2832 PWs)   bands (ev):

   -77.2642 -77.2492 -40.6874 -40.6421 -40.5596 -40.4865 -40.4751 -40.4255
    13.7215  14.0289  14.6967  15.3299  16.1950  16.5663  17.3091  17.9496
    18.1970  18.2965  19.8938  21.9690  27.4731

     occupation numbers 
     1.0000   1.0000   1.0000   1.0000   1.0000   1.0000   1.0000   1.0000
     1.0000   1.0000   1.0000   1.0000   1.0000   1.0000   1.0000   1.0000
     1.0000   1.0000   0.0000   0.0000   0.0000

          k = 0.0000-0.5774 0.2018 (  2838 PWs)   bands (ev):

   -77.2611 -77.2524 -40.7000 -40.6714 -40.5195 -40.4737 -40.4731 -40.4384
    13.6043  14.0022  14.8718  15.0391  16.5207  16.9050  17.5239  18.1900
    18.2213  18.2768  19.5543  21.3391  26.4791

     occupation numbers 
     1.0000   1.0000   1.0000   1.0000   1.0000   1.0000   1.0000   1.0000
     1.0000   1.0000   1.0000   1.0000   1.0000   1.0000   1.0000   1.0000
     1.0000   1.0000   0.0000   0.0000   0.0000

          k = 0.0000-0.5774-0.3027 (  2824 PWs)   bands (ev):

   -77.2567 -77.2567 -40.6944 -40.6944 -40.4874 -40.4874 -40.4561 -40.4561
    13.7462  13.7462  14.9542  14.9542  16.9986  16.9986  17.7178  17.7178
    18.2495  18.2495  20.3175  20.3175  26.1230

     occupation numbers 
     1.0000   1.0000   1.0000   1.0000   1.0000   1.0000   1.0000   1.0000
     1.0000   1.0000   1.0000   1.0000   1.0000   1.0000   1.0000   1.0000
     1.0000   1.0000   0.0000   0.0000   0.0000

          k = 0.0833 0.1443 0.0000 (  2815 PWs)   bands (ev):

   -77.3123 -77.2640 -40.7026 -40.4613 -40.4387 -40.4149 -40.4142 -40.3827
    10.5159  14.0027  15.7260  16.1540  16.3236  16.4394  16.5550  16.6135
    16.8257  16.9257  18.0006  20.7136  25.0024

     occupation numbers 
     1.0000   1.0000   1.0000   1.0000   1.0000   1.0000   1.0000   1.0000
     1.0000   1.0000   1.0000   1.0000   1.0000   1.0000   1.0000   1.0000
     1.0000   1.0000   1.0000   0.0000   0.0000

          k = 0.0833 0.1443 0.1009 (  2838 PWs)   bands (ev):

   -77.3090 -77.2673 -40.6851 -40.4570 -40.4511 -40.4293 -40.4063 -40.3860
    10.7721  13.9650  15.7559  15.8273  16.1649  16.4109  16.4843  16.6987
    16.9713  17.0433  17.9665  19.7319  26.6908

     occupation numbers 
     1.0000   1.0000   1.0000   1.0000   1.0000   1.0000   1.0000   1.0000
     1.0000   1.0000   1.0000   1.0000   1.0000   1.0000   1.0000   1.0000
     1.0000   1.0000   1.0000   0.0000   0.0000

          k = 0.0833 0.1443 0.2018 (  2841 PWs)   bands (ev):

   -77.3002 -77.2761 -40.6371 -40.5030 -40.4456 -40.4251 -40.4101 -40.3948
    11.5053  13.5783  15.4382  15.8070  15.8629  16.3164  16.3845  16.5665
    17.3151  17.3800  17.8452  18.5727  29.9526

     occupation numbers 
     1.0000   1.0000   1.0000   1.0000   1.0000   1.0000   1.0000   1.0000
     1.0000   1.0000   1.0000   1.0000   1.0000   1.0000   1.0000   1.0000
     1.0000   1.0000   1.0000   1.0000   0.0000

          k = 0.0833 0.1443-0.3027 (  2838 PWs)   bands (ev):

   -77.2882 -77.2882 -40.5708 -40.5708 -40.4312 -40.4312 -40.4060 -40.4060
    12.5740  12.5740  15.4939  15.4939  16.0643  16.0643  16.4339  16.4339
    17.6080  17.6080  17.8853  17.8853  33.7477

     occupation numbers 
     1.0000   1.0000   1.0000   1.0000   1.0000   1.0000   1.0000   1.0000
     1.0000   1.0000   1.0000   1.0000   1.0000   1.0000   1.0000   1.0000
     1.0000   1.0000   1.0000   1.0000   0.0000

          k = 0.0833 0.2406 0.0000 (  2822 PWs)   bands (ev):

   -77.3009 -77.2586 -40.6771 -40.5133 -40.4857 -40.4410 -40.4255 -40.3964
    11.4193  14.3937  15.4416  15.4640  16.1786  16.3760  16.7057  16.7767
    16.9920  17.2575  18.0367  22.3116  25.2352

     occupation numbers 
     1.0000   1.0000   1.0000   1.0000   1.0000   1.0000   1.0000   1.0000
     1.0000   1.0000   1.0000   1.0000   1.0000   1.0000   1.0000   1.0000
     1.0000   1.0000   1.0000   0.0000   0.0000

          k = 0.0833 0.2406 0.1009 (  2820 PWs)   bands (ev):

   -77.2980 -77.2615 -40.6653 -40.5076 -40.4961 -40.4467 -40.4237 -40.3998
    11.6481  14.4142  15.2380  15.5151  16.0702  16.3455  16.6081  16.8839
    17.1702  17.2311  17.9991  20.9005  27.2210

     occupation numbers 
     1.0000   1.0000   1.0000   1.0000   1.0000   1.0000   1.0000   1.0000
     1.0000   1.0000   1.0000   1.0000   1.0000   1.0000   1.0000   1.0000
     1.0000   1.0000   1.0000   0.0000   0.0000

          k = 0.0833 0.2406 0.2018 (  2831 PWs)   bands (ev):

   -77.2903 -77.2692 -40.6322 -40.5361 -40.4862 -40.4495 -40.4265 -40.4092
    12.2951  14.1072  15.0771  15.6243  15.7958  16.2214  16.5821  16.8960
    17.4049  17.4990  17.8809  19.2553  30.5798

     occupation numbers 
     1.0000   1.0000   1.0000   1.0000   1.0000   1.0000   1.0000   1.0000
     1.0000   1.0000   1.0000   1.0000   1.0000   1.0000   1.0000   1.0000
     1.0000   1.0000   1.0000   0.0000   0.0000

          k = 0.0833 0.2406-0.3027 (  2828 PWs)   bands (ev):

   -77.2798 -77.2798 -40.5854 -40.5854 -40.4636 -40.4636 -40.4210 -40.4210
    13.2194  13.2194  15.3461  15.3461  15.9506  15.9506  16.7238  16.7238
    17.6539  17.6539  18.1768  18.1768  34.2581

     occupation numbers 
     1.0000   1.0000   1.0000   1.0000   1.0000   1.0000   1.0000   1.0000
     1.0000   1.0000   1.0000   1.0000   1.0000   1.0000   1.0000   1.0000
     1.0000   1.0000   1.0000   1.0000   0.0000

          k = 0.0833 0.3368 0.0000 (  2827 PWs)   bands (ev):

   -77.2870 -77.2530 -40.6440 -40.5767 -40.5420 -40.4668 -40.4416 -40.4111
    12.5802  14.5148  14.8741  15.4123  16.1720  16.1793  16.5624  17.1390
    17.5100  17.8426  18.0656  24.1536  25.6114

     occupation numbers 
     1.0000   1.0000   1.0000   1.0000   1.0000   1.0000   1.0000   1.0000
     1.0000   1.0000   1.0000   1.0000   1.0000   1.0000   1.0000   1.0000
     1.0000   1.0000   1.0000   0.0000   0.0000

          k = 0.0833 0.3368 0.1009 (  2830 PWs)   bands (ev):

   -77.2848 -77.2553 -40.6461 -40.5658 -40.5473 -40.4674 -40.4410 -40.4146
    12.7373  14.5626  14.7937  15.4538  15.9814  16.4062  16.5279  17.1784
    17.5897  17.6927  18.0900  22.1644  28.0098

     occupation numbers 
     1.0000   1.0000   1.0000   1.0000   1.0000   1.0000   1.0000   1.0000
     1.0000   1.0000   1.0000   1.0000   1.0000   1.0000   1.0000   1.0000
     1.0000   1.0000   1.0000   0.0000   0.0000

          k = 0.0833 0.3368 0.2018 (  2832 PWs)   bands (ev):

   -77.2785 -77.2615 -40.6404 -40.5877 -40.5188 -40.4669 -40.4444 -40.4243
    13.1636  14.2907  14.9260  15.4931  15.9161  16.3963  16.6332  17.2181
    17.6259  17.7994  18.0695  20.1098  30.6653

     occupation numbers 
     1.0000   1.0000   1.0000   1.0000   1.0000   1.0000   1.0000   1.0000
     1.0000   1.0000   1.0000   1.0000   1.0000   1.0000   1.0000   1.0000
     1.0000   1.0000   1.0000   0.0000   0.0000

          k = 0.0833 0.3368-0.3027 (  2832 PWs)   bands (ev):

   -77.2700 -77.2700 -40.6191 -40.6191 -40.4845 -40.4845 -40.4376 -40.4376
    13.7359  13.7359  15.2522  15.2522  16.1437  16.1437  16.9080  16.9080
    17.8740  17.8740  18.6374  18.6374  31.8801

     occupation numbers 
     1.0000   1.0000   1.0000   1.0000   1.0000   1.0000   1.0000   1.0000
     1.0000   1.0000   1.0000   1.0000   1.0000   1.0000   1.0000   1.0000
     1.0000   1.0000   1.0000   1.0000   0.0000

          k = 0.0833 0.4330 0.0000 (  2837 PWs)   bands (ev):

   -77.2740 -77.2492 -40.6327 -40.6090 -40.5906 -40.4878 -40.4617 -40.4238
    13.5907  14.3294  14.4941  15.6531  16.0592  16.3411  16.3743  17.6894
    17.9490  18.0818  18.6583  25.1487  26.1571

     occupation numbers 
     1.0000   1.0000   1.0000   1.0000   1.0000   1.0000   1.0000   1.0000
     1.0000   1.0000   1.0000   1.0000   1.0000   1.0000   1.0000   1.0000
     1.0000   1.0000   1.0000   0.0000   0.0000

          k = 0.0833 0.4330 0.1009 (  2829 PWs)   bands (ev):

   -77.2723 -77.2509 -40.6549 -40.6082 -40.5704 -40.4854 -40.4595 -40.4272
    13.5748  14.3339  14.6596  15.3766  16.1375  16.4458  16.6852  17.6410
    17.9111  18.0050  18.6530  23.2793  27.0288

     occupation numbers 
     1.0000   1.0000   1.0000   1.0000   1.0000   1.0000   1.0000   1.0000
     1.0000   1.0000   1.0000   1.0000   1.0000   1.0000   1.0000   1.0000
     1.0000   1.0000   1.0000   0.0000   0.0000

          k = 0.0833 0.4330 0.2018 (  2840 PWs)   bands (ev):

   -77.2678 -77.2554 -40.6677 -40.6354 -40.5269 -40.4788 -40.4606 -40.4362
    13.6428  14.1958  14.8517  15.3026  16.2449  16.6784  17.1007  17.3919
    17.8060  18.1443  18.7117  21.1528  27.7730

     occupation numbers 
     1.0000   1.0000   1.0000   1.0000   1.0000   1.0000   1.0000   1.0000
     1.0000   1.0000   1.0000   1.0000   1.0000   1.0000   1.0000   1.0000
     1.0000   1.0000   1.0000   0.0000   0.0000

          k = 0.0833 0.4330-0.3027 (  2836 PWs)   bands (ev):

   -77.2616 -77.2616 -40.6596 -40.6596 -40.4925 -40.4925 -40.4506 -40.4506
    13.8743  13.8743  15.1202  15.1202  16.6789  16.6789  17.0739  17.0739
    18.0900  18.0900  19.5107  19.5107  28.7897

     occupation numbers 
     1.0000   1.0000   1.0000   1.0000   1.0000   1.0000   1.0000   1.0000
     1.0000   1.0000   1.0000   1.0000   1.0000   1.0000   1.0000   1.0000
     1.0000   1.0000   0.0000   0.0000   0.0000

          k = 0.0833 0.5292 0.0000 (  2826 PWs)   bands (ev):

   -77.2654 -77.2480 -40.6652 -40.6186 -40.5825 -40.4995 -40.4796 -40.4312
    14.0274  14.1641  14.3053  16.0307  16.0328  16.1774  16.5359  18.0880
    18.0919  18.1750  19.9562  22.9409  28.0752

     occupation numbers 
     1.0000   1.0000   1.0000   1.0000   1.0000   1.0000   1.0000   1.0000
     1.0000   1.0000   1.0000   1.0000   1.0000   1.0000   1.0000   1.0000
     1.0000   1.0000   0.0000   0.0000   0.0000

          k = 0.0833 0.5292 0.1009 (  2837 PWs)   bands (ev):

   -77.2643 -77.2492 -40.6780 -40.6337 -40.5605 -40.4941 -40.4756 -40.4345
    13.8067  14.1638  14.7393  15.3168  16.0745  16.6198  16.9740  17.8907
    18.0996  18.2014  19.8852  22.6526  26.9079

     occupation numbers 
     1.0000   1.0000   1.0000   1.0000   1.0000   1.0000   1.0000   1.0000
     1.0000   1.0000   1.0000   1.0000   1.0000   1.0000   1.0000   1.0000
     1.0000   1.0000   0.0000   0.0000   0.0000

          k = 0.0833 0.5292 0.2018 (  2838 PWs)   bands (ev):

   -77.2611 -77.2524 -40.6908 -40.6629 -40.5243 -40.4817 -40.4738 -40.4428
    13.7110  14.1318  14.8815  15.1532  16.2440  16.9764  17.3614  17.6554
    18.0595  18.2536  19.9150  21.7571  26.2624

     occupation numbers 
     1.0000   1.0000   1.0000   1.0000   1.0000   1.0000   1.0000   1.0000
     1.0000   1.0000   1.0000   1.0000   1.0000   1.0000   1.0000   1.0000
     1.0000   1.0000   0.0000   0.0000   0.0000

          k = 0.0833 0.5292-0.3027 (  2840 PWs)   bands (ev):

   -77.2567 -77.2567 -40.6856 -40.6856 -40.4956 -40.4956 -40.4568 -40.4568
    13.8620  13.8620  15.0309  15.0309  16.7774  16.7774  17.5141  17.5141
    18.1319  18.1319  20.6318  20.6318  26.5483

     occupation numbers 
     1.0000   1.0000   1.0000   1.0000   1.0000   1.0000   1.0000   1.0000
     1.0000   1.0000   1.0000   1.0000   1.0000   1.0000   1.0000   1.0000
     1.0000   1.0000   0.0000   0.0000   0.0000

          k = 0.1667 0.2887 0.0000 (  2822 PWs)   bands (ev):

   -77.2890 -77.2537 -40.6488 -40.5519 -40.5433 -40.4605 -40.4391 -40.4196
    12.4354  14.7130  14.9889  15.1674  16.0988  16.1819  16.6719  16.8741
    17.4957  17.8698  18.0222  23.8954  25.6396

     occupation numbers 
     1.0000   1.0000   1.0000   1.0000   1.0000   1.0000   1.0000   1.0000
     1.0000   1.0000   1.0000   1.0000   1.0000   1.0000   1.0000   1.0000
     1.0000   1.0000   1.0000   0.0000   0.0000

          k = 0.1667 0.2887 0.1009 (  2827 PWs)   bands (ev):

   -77.2866 -77.2561 -40.6464 -40.5513 -40.5388 -40.4698 -40.4336 -40.4231
    12.6148  14.8031  14.8440  15.2199  16.0453  16.1904  16.5698  16.9881
    17.6051  17.6786  18.1057  22.0275  27.9740

     occupation numbers 
     1.0000   1.0000   1.0000   1.0000   1.0000   1.0000   1.0000   1.0000
     1.0000   1.0000   1.0000   1.0000   1.0000   1.0000   1.0000   1.0000
     1.0000   1.0000   1.0000   0.0000   0.0000

          k = 0.1667 0.2887 0.2018 (  2827 PWs)   bands (ev):

   -77.2802 -77.2625 -40.6344 -40.5768 -40.5097 -40.4759 -40.4347 -40.4319
    13.1067  14.4107  15.0493  15.3688  15.8463  16.0606  16.5812  17.1537
    17.6221  17.7947  18.1461  20.0354  31.3146

     occupation numbers 
     1.0000   1.0000   1.0000   1.0000   1.0000   1.0000   1.0000   1.0000
     1.0000   1.0000   1.0000   1.0000   1.0000   1.0000   1.0000   1.0000
     1.0000   1.0000   1.0000   0.0000   0.0000

          k = 0.1667 0.2887-0.3027 (  2832 PWs)   bands (ev):

   -77.2713 -77.2713 -40.6092 -40.6092 -40.4839 -40.4839 -40.4386 -40.4386
    13.7721  13.7721  15.3580  15.3580  15.7928  15.7928  16.8542  16.8542
    17.9225  17.9225  18.6209  18.6209  33.6086

     occupation numbers 
     1.0000   1.0000   1.0000   1.0000   1.0000   1.0000   1.0000   1.0000
     1.0000   1.0000   1.0000   1.0000   1.0000   1.0000   1.0000   1.0000
     1.0000   1.0000   1.0000   1.0000   0.0000

          k = 0.1667 0.3849 0.0000 (  2833 PWs)   bands (ev):

   -77.2762 -77.2497 -40.6152 -40.6014 -40.5807 -40.4897 -40.4578 -40.4421
    13.5455  14.6415  14.6848  15.1590  15.9306  16.3235  16.4627  17.2047
    17.9412  18.0058  18.7030  25.7624  26.1178

     occupation numbers 
     1.0000   1.0000   1.0000   1.0000   1.0000   1.0000   1.0000   1.0000
     1.0000   1.0000   1.0000   1.0000   1.0000   1.0000   1.0000   1.0000
     1.0000   1.0000   1.0000   0.0000   0.0000

          k = 0.1667 0.3849 0.1009 (  2838 PWs)   bands (ev):

   -77.2744 -77.2514 -40.6370 -40.5979 -40.5594 -40.4968 -40.4533 -40.4425
    13.6146  14.5773  14.7753  15.2347  15.9666  16.3260  16.4253  17.2531
    17.8093  18.0244  18.7756  23.3385  28.4397

     occupation numbers 
     1.0000   1.0000   1.0000   1.0000   1.0000   1.0000   1.0000   1.0000
     1.0000   1.0000   1.0000   1.0000   1.0000   1.0000   1.0000   1.0000
     1.0000   1.0000   1.0000   0.0000   0.0000

          k = 0.1667 0.3849 0.2018 (  2831 PWs)   bands (ev):

   -77.2695 -77.2563 -40.6482 -40.6182 -40.5227 -40.4984 -40.4567 -40.4427
    13.8076  14.3757  15.0115  15.4437  15.8794  16.1843  16.5708  17.2544
    17.7291  18.1653  18.9464  21.1708  29.5084

     occupation numbers 
     1.0000   1.0000   1.0000   1.0000   1.0000   1.0000   1.0000   1.0000
     1.0000   1.0000   1.0000   1.0000   1.0000   1.0000   1.0000   1.0000
     1.0000   1.0000   0.0000   0.0000   0.0000

          k = 0.1667 0.3849-0.3027 (  2838 PWs)   bands (ev):

   -77.2629 -77.2629 -40.6399 -40.6399 -40.5013 -40.5013 -40.4523 -40.4523
    14.0850  14.0850  15.3363  15.3363  15.9739  15.9739  16.8497  16.8497
    18.1356  18.1356  19.6118  19.6118  30.6281

     occupation numbers 
     1.0000   1.0000   1.0000   1.0000   1.0000   1.0000   1.0000   1.0000
     1.0000   1.0000   1.0000   1.0000   1.0000   1.0000   1.0000   1.0000
     1.0000   1.0000   0.0000   0.0000   0.0000

          k = 0.1667 0.4811 0.0000 (  2842 PWs)   bands (ev):

   -77.2655 -77.2480 -40.6403 -40.6009 -40.5830 -40.5163 -40.4792 -40.4576
    14.2338  14.4304  14.4747  15.4858  15.8900  16.2278  16.5309  17.6469
    17.9938  18.1491  19.9079  24.6236  27.7892

     occupation numbers 
     1.0000   1.0000   1.0000   1.0000   1.0000   1.0000   1.0000   1.0000
     1.0000   1.0000   1.0000   1.0000   1.0000   1.0000   1.0000   1.0000
     1.0000   1.0000   0.0000   0.0000   0.0000

          k = 0.1667 0.4811 0.1009 (  2838 PWs)   bands (ev):

   -77.2643 -77.2492 -40.6538 -40.6185 -40.5595 -40.5138 -40.4769 -40.4546
    14.0575  14.5218  14.7150  15.2731  15.9411  16.3774  16.6281  17.6362
    17.8124  18.2061  19.9834  23.9916  26.7728

     occupation numbers 
     1.0000   1.0000   1.0000   1.0000   1.0000   1.0000   1.0000   1.0000
     1.0000   1.0000   1.0000   1.0000   1.0000   1.0000   1.0000   1.0000
     1.0000   1.0000   0.0000   0.0000   0.0000

          k = 0.1667 0.4811 0.2018 (  2843 PWs)   bands (ev):

   -77.2611 -77.2524 -40.6680 -40.6447 -40.5355 -40.5041 -40.4749 -40.4498
    14.0060  14.4338  14.9062  15.4232  15.8428  16.5210  16.8748  17.3302
    17.8280  18.2744  20.2787  22.4384  26.9199

     occupation numbers 
     1.0000   1.0000   1.0000   1.0000   1.0000   1.0000   1.0000   1.0000
     1.0000   1.0000   1.0000   1.0000   1.0000   1.0000   1.0000   1.0000
     1.0000   1.0000   0.0000   0.0000   0.0000

          k = 0.1667 0.4811-0.3027 (  2826 PWs)   bands (ev):

   -77.2567 -77.2567 -40.6647 -40.6647 -40.5159 -40.5159 -40.4578 -40.4578
    14.1549  14.1549  15.2271  15.2271  16.2456  16.2456  17.0357  17.0357
    18.1393  18.1393  21.0590  21.0590  27.7842

     occupation numbers 
     1.0000   1.0000   1.0000   1.0000   1.0000   1.0000   1.0000   1.0000
     1.0000   1.0000   1.0000   1.0000   1.0000   1.0000   1.0000   1.0000
     1.0000   1.0000   0.0000   0.0000   0.0000

          k = 0.1667 0.5774 0.0000 (  2830 PWs)   bands (ev):

   -77.2608 -77.2481 -40.6543 -40.6075 -40.5667 -40.5271 -40.4914 -40.4631
    14.3602  14.3711  14.4022  15.7158  15.9289  16.0883  16.6198  17.9493
    17.9892  18.1097  21.1895  22.7878  29.3281

     occupation numbers 
     1.0000   1.0000   1.0000   1.0000   1.0000   1.0000   1.0000   1.0000
     1.0000   1.0000   1.0000   1.0000   1.0000   1.0000   1.0000   1.0000
     1.0000   1.0000   0.0000   0.0000   0.0000

          k = 0.1667 0.5774 0.1009 (  2839 PWs)   bands (ev):

   -77.2600 -77.2490 -40.6648 -40.6235 -40.5590 -40.5118 -40.4915 -40.4596
    14.0738  14.4390  14.8789  15.2521  15.8609  16.5049  16.7236  17.7856
    17.9466  18.1543  21.2757  22.7269  28.0224

     occupation numbers 
     1.0000   1.0000   1.0000   1.0000   1.0000   1.0000   1.0000   1.0000
     1.0000   1.0000   1.0000   1.0000   1.0000   1.0000   1.0000   1.0000
     1.0000   1.0000   0.0000   0.0000   0.0000

          k = 0.1667 0.5774 0.2018 (  2833 PWs)   bands (ev):

   -77.2577 -77.2513 -40.6774 -40.6531 -40.5424 -40.5024 -40.4816 -40.4529
    14.0006  14.4453  14.9457  15.3732  15.7610  16.7183  17.0067  17.3993
    17.9642  18.1902  21.5566  22.4959  26.7924

     occupation numbers 
     1.0000   1.0000   1.0000   1.0000   1.0000   1.0000   1.0000   1.0000
     1.0000   1.0000   1.0000   1.0000   1.0000   1.0000   1.0000   1.0000
     1.0000   1.0000   0.0000   0.0000   0.0000

          k = 0.1667 0.5774-0.3027 (  2834 PWs)   bands (ev):

   -77.2545 -77.2545 -40.6742 -40.6742 -40.5218 -40.5218 -40.4589 -40.4589
    14.1578  14.1578  15.1861  15.1861  16.2812  16.2812  17.2477  17.2477
    18.0761  18.0761  22.0404  22.0404  26.3317

     occupation numbers 
     1.0000   1.0000   1.0000   1.0000   1.0000   1.0000   1.0000   1.0000
     1.0000   1.0000   1.0000   1.0000   1.0000   1.0000   1.0000   1.0000
     1.0000   1.0000   0.0000   0.0000   0.0000

          k = 0.2500 0.4330 0.0000 (  2852 PWs)   bands (ev):

   -77.2655 -77.2480 -40.6187 -40.5992 -40.5832 -40.5203 -40.4790 -40.4773
    14.3852  14.5036  14.9026  14.9203  15.8064  16.2575  16.5391  17.3897
    17.9449  18.1491  19.9251  26.3369  27.2420

     occupation numbers 
     1.0000   1.0000   1.0000   1.0000   1.0000   1.0000   1.0000   1.0000
     1.0000   1.0000   1.0000   1.0000   1.0000   1.0000   1.0000   1.0000
     1.0000   1.0000   0.0000   0.0000   0.0000

          k = 0.2500 0.4330 0.1009 (  2845 PWs)   bands (ev):

   -77.2643 -77.2491 -40.6295 -40.6231 -40.5478 -40.5329 -40.4795 -40.4646
    14.3782  14.4563  14.9280  15.0737  15.9575  16.1082  16.5484  17.4390
    17.7528  18.2115  20.0406  24.7073  27.5136

     occupation numbers 
     1.0000   1.0000   1.0000   1.0000   1.0000   1.0000   1.0000   1.0000
     1.0000   1.0000   1.0000   1.0000   1.0000   1.0000   1.0000   1.0000
     1.0000   1.0000   0.0000   0.0000   0.0000

          k = 0.2500 0.4330 0.2018 (  2832 PWs)   bands (ev):

   -77.2611 -77.2524 -40.6505 -40.6377 -40.5381 -40.5229 -40.4756 -40.4524
    14.3541  14.3990  15.0875  15.4411  15.7857  16.0662  16.6038  17.2330
    17.7929  18.2828  20.3995  22.7056  28.2670

     occupation numbers 
     1.0000   1.0000   1.0000   1.0000   1.0000   1.0000   1.0000   1.0000
     1.0000   1.0000   1.0000   1.0000   1.0000   1.0000   1.0000   1.0000
     1.0000   1.0000   0.0000   0.0000   0.0000

          k = 0.2500 0.4330-0.3027 (  2822 PWs)   bands (ev):

   -77.2567 -77.2567 -40.6517 -40.6517 -40.5288 -40.5288 -40.4580 -40.4580
    14.3599  14.3599  15.3957  15.3957  15.8608  15.8608  16.8185  16.8185
    18.1590  18.1590  21.2182  21.2182  29.2586

     occupation numbers 
     1.0000   1.0000   1.0000   1.0000   1.0000   1.0000   1.0000   1.0000
     1.0000   1.0000   1.0000   1.0000   1.0000   1.0000   1.0000   1.0000
     1.0000   1.0000   0.0000   0.0000   0.0000

          k = 0.2500 0.5292 0.0000 (  2844 PWs)   bands (ev):

   -77.2577 -77.2487 -40.6311 -40.5911 -40.5547 -40.5516 -40.5011 -40.5002
    14.4447  14.6686  14.7538  15.2613  15.8223  16.0401  16.7092  17.6852
    17.9093  18.0663  21.6145  24.2156  26.5808

     occupation numbers 
     1.0000   1.0000   1.0000   1.0000   1.0000   1.0000   1.0000   1.0000
     1.0000   1.0000   1.0000   1.0000   1.0000   1.0000   1.0000   1.0000
     1.0000   1.0000   0.0000   0.0000   0.0000

          k = 0.2500 0.5292 0.1009 (  2842 PWs)   bands (ev):

   -77.2571 -77.2493 -40.6375 -40.6119 -40.5697 -40.5260 -40.5051 -40.4795
    14.3909  14.7816  14.8709  15.1446  15.8454  16.0544  16.7288  17.6786
    17.7430  18.1118  21.7914  24.2136  26.5765

     occupation numbers 
     1.0000   1.0000   1.0000   1.0000   1.0000   1.0000   1.0000   1.0000
     1.0000   1.0000   1.0000   1.0000   1.0000   1.0000   1.0000   1.0000
     1.0000   1.0000   0.0000   0.0000   0.0000

          k = 0.2500 0.5292 0.2018 (  2832 PWs)   bands (ev):

   -77.2554 -77.2509 -40.6518 -40.6380 -40.5686 -40.5323 -40.4786 -40.4600
    14.4016  14.7565  15.0163  15.3286  15.6981  16.0871  16.7947  17.2483
    17.8747  18.1579  22.2678  23.8647  26.4547

     occupation numbers 
     1.0000   1.0000   1.0000   1.0000   1.0000   1.0000   1.0000   1.0000
     1.0000   1.0000   1.0000   1.0000   1.0000   1.0000   1.0000   1.0000
     1.0000   1.0000   0.0000   0.0000   0.0000

          k = 0.2500 0.5292-0.3027 (  2840 PWs)   bands (ev):

   -77.2532 -77.2532 -40.6540 -40.6540 -40.5517 -40.5517 -40.4589 -40.4589
    14.5343  14.5343  15.2985  15.2985  15.8626  15.8626  16.9268  16.9268
    18.0706  18.0706  23.0162  23.0162  26.9910

     occupation numbers 
     1.0000   1.0000   1.0000   1.0000   1.0000   1.0000   1.0000   1.0000
     1.0000   1.0000   1.0000   1.0000   1.0000   1.0000   1.0000   1.0000
     1.0000   1.0000   0.0000   0.0000   0.0000

          k = 0.3333 0.5774 0.0000 (  2844 PWs)   bands (ev):

   -77.2519 -77.2519 -40.6187 -40.5745 -40.5745 -40.5279 -40.5268 -40.5268
    14.4648  14.8723  14.8723  15.1251  15.8777  15.8777  16.8084  17.8391
    17.8391  17.8757  23.3794  24.2280  24.2280

     occupation numbers 
     1.0000   1.0000   1.0000   1.0000   1.0000   1.0000   1.0000   1.0000
     1.0000   1.0000   1.0000   1.0000   1.0000   1.0000   1.0000   1.0000
     1.0000   1.0000   0.0000   0.0000   0.0000

          k = 0.3333 0.5774 0.1009 (  2847 PWs)   bands (ev):

   -77.2519 -77.2519 -40.6126 -40.6008 -40.6008 -40.5340 -40.5003 -40.5003
    14.5566  14.8834  14.8834  15.1402  15.8576  15.8576  16.7851  17.6584
    17.8871  17.8871  23.7619  24.2917  24.2917

     occupation numbers 
     1.0000   1.0000   1.0000   1.0000   1.0000   1.0000   1.0000   1.0000
     1.0000   1.0000   1.0000   1.0000   1.0000   1.0000   1.0000   1.0000
     1.0000   1.0000   0.0000   0.0000   0.0000

          k = 0.3333 0.5774 0.2018 (  2838 PWs)   bands (ev):

   -77.2519 -77.2519 -40.6307 -40.6307 -40.5961 -40.5507 -40.4702 -40.4702
    14.7912  14.9032  14.9032  15.1451  15.8242  15.8242  16.7590  17.2078
    17.9801  17.9801  24.4491  24.4491  24.7529

     occupation numbers 
     1.0000   1.0000   1.0000   1.0000   1.0000   1.0000   1.0000   1.0000
     1.0000   1.0000   1.0000   1.0000   1.0000   1.0000   1.0000   1.0000
     1.0000   1.0000   0.0000   0.0000   0.0000

          k = 0.3333 0.5774-0.3027 (  2820 PWs)   bands (ev):

   -77.2519 -77.2519 -40.6420 -40.6420 -40.5734 -40.5734 -40.4587 -40.4587
    14.9116  14.9116  15.0365  15.0365  15.8109  15.8109  16.8615  16.8615
    18.0254  18.0254  24.5498  24.5498  26.1294

     occupation numbers 
     1.0000   1.0000   1.0000   1.0000   1.0000   1.0000   1.0000   1.0000
     1.0000   1.0000   1.0000   1.0000   1.0000   1.0000   1.0000   1.0000
     1.0000   1.0000   0.0000   0.0000   0.0000

 ------ SPIN DOWN ----------


          k = 0.0000 0.0000 0.0000 (  2815 PWs)   bands (ev):

   -75.1800 -75.1228 -38.6432 -38.3324 -38.3324 -38.2973 -38.2861 -38.2861
     9.8013  14.5300  17.7257  17.9029  17.9029  18.2486  18.2486  18.3061
    18.7937  18.7937  19.9506  19.9506  25.9590

     occupation numbers 
     1.0000   1.0000   1.0000   1.0000   1.0000   1.0000   1.0000   1.0000
     1.0000   1.0000   1.0000   1.0000   1.0000   1.0000   1.0000   1.0000
     0.9957   0.9957   0.0000   0.0000   0.0000

          k = 0.0000 0.0000 0.1009 (  2852 PWs)   bands (ev):

   -75.1762 -75.1267 -38.6204 -38.3293 -38.3293 -38.3208 -38.2892 -38.2892
    10.0731  14.2804  17.6382  17.7719  17.8516  17.8516  18.1749  18.1749
    18.9500  18.9500  19.9297  19.9297  27.2265

     occupation numbers 
     1.0000   1.0000   1.0000   1.0000   1.0000   1.0000   1.0000   1.0000
     1.0000   1.0000   1.0000   1.0000   1.0000   1.0000   1.0000   1.0000
     0.0000   0.0000   0.0000   0.0000   0.0000

          k = 0.0000 0.0000 0.2018 (  2846 PWs)   bands (ev):

   -75.1657 -75.1372 -38.5577 -38.3847 -38.3209 -38.3209 -38.2977 -38.2977
    10.8593  13.3751  17.2008  17.4162  17.8071  17.8071  18.0110  18.0110
    19.2790  19.2790  19.8294  19.8294  30.1201

     occupation numbers 
     1.0000   1.0000   1.0000   1.0000   1.0000   1.0000   1.0000   1.0000
     1.0000   1.0000   1.0000   1.0000   1.0000   1.0000   1.0000   1.0000
[...]
    20.1233  20.1258  21.3220  23.8671  28.6067

     occupation numbers 
     1.0000   1.0000   1.0000   1.0000   1.0000   1.0000   1.0000   1.0000
     1.0000   1.0000   1.0000   1.0000   1.0000   1.0000   1.0000   0.0000
     0.0000   0.0000   0.0000   0.0000   0.0000

          k = 0.0833 0.5292 0.1009 (  2837 PWs)   bands (ev):

   -75.1177 -75.1014 -38.6171 -38.5696 -38.4683 -38.4176 -38.3754 -38.3521
    14.7838  15.3749  15.9322  16.5049  17.7627  18.2172  18.2435  19.8784
    20.0358  20.1597  21.1849  23.5058  27.6581

     occupation numbers 
     1.0000   1.0000   1.0000   1.0000   1.0000   1.0000   1.0000   1.0000
     1.0000   1.0000   1.0000   1.0000   1.0000   1.0000   1.0000   0.0000
     0.0000   0.0000   0.0000   0.0000   0.0000

          k = 0.0833 0.5292 0.2018 (  2838 PWs)   bands (ev):

   -75.1142 -75.1049 -38.6288 -38.5992 -38.4342 -38.3976 -38.3839 -38.3561
    14.7518  15.2182  16.2308  16.5238  17.7961  18.5683  18.7493  19.4318
    19.9907  20.2271  20.9756  22.5442  27.1880

     occupation numbers 
     1.0000   1.0000   1.0000   1.0000   1.0000   1.0000   1.0000   1.0000
     1.0000   1.0000   1.0000   1.0000   1.0000   1.0000   1.0000   0.0000
     0.0000   0.0000   0.0000   0.0000   0.0000

          k = 0.0833 0.5292-0.3027 (  2840 PWs)   bands (ev):

   -75.1095 -75.1095 -38.6229 -38.6229 -38.4065 -38.4065 -38.3704 -38.3704
    14.9228  14.9228  16.4677  16.4677  18.3031  18.3031  19.0880  19.0880
    20.0793  20.0793  21.4928  21.4928  27.4532

     occupation numbers 
     1.0000   1.0000   1.0000   1.0000   1.0000   1.0000   1.0000   1.0000
     1.0000   1.0000   1.0000   1.0000   1.0000   1.0000   0.0000   0.0000
     0.0000   0.0000   0.0000   0.0000   0.0000

          k = 0.1667 0.2887 0.0000 (  2822 PWs)   bands (ev):

   -75.1443 -75.1063 -38.5610 -38.4821 -38.4733 -38.3823 -38.3379 -38.3318
    12.5201  15.9175  16.1755  16.5968  17.7783  17.8194  18.4030  18.6504
    19.3321  19.6845  20.0470  24.7228  26.4223

     occupation numbers 
     1.0000   1.0000   1.0000   1.0000   1.0000   1.0000   1.0000   1.0000
     1.0000   1.0000   1.0000   1.0000   1.0000   1.0000   1.0000   1.0000
     0.0000   0.0000   0.0000   0.0000   0.0000

          k = 0.1667 0.2887 0.1009 (  2827 PWs)   bands (ev):

   -75.1417 -75.1088 -38.5622 -38.4803 -38.4641 -38.3877 -38.3417 -38.3326
    12.7267  15.7919  16.1274  16.6627  17.6945  17.8015  18.3073  18.7851
    19.4557  19.5531  20.0603  23.0891  28.5965

     occupation numbers 
     1.0000   1.0000   1.0000   1.0000   1.0000   1.0000   1.0000   1.0000
     1.0000   1.0000   1.0000   1.0000   1.0000   1.0000   1.0000   0.9998
     0.0000   0.0000   0.0000   0.0000   0.0000

          k = 0.1667 0.2887 0.2018 (  2827 PWs)   bands (ev):

   -75.1348 -75.1158 -38.5549 -38.5029 -38.4269 -38.3913 -38.3510 -38.3419
    13.3132  15.0941  16.3882  16.8306  17.3954  17.6479  18.3640  18.9472
    19.5171  19.6747  20.0199  21.4044  31.8157

     occupation numbers 
     1.0000   1.0000   1.0000   1.0000   1.0000   1.0000   1.0000   1.0000
     1.0000   1.0000   1.0000   1.0000   1.0000   1.0000   1.0000   0.0000
     0.0000   0.0000   0.0000   0.0000   0.0000

          k = 0.1667 0.2887-0.3027 (  2832 PWs)   bands (ev):

   -75.1253 -75.1253 -38.5327 -38.5327 -38.3965 -38.3965 -38.3553 -38.3553
    14.1699  14.1699  16.7614  16.7614  17.3452  17.3452  18.6652  18.6652
    19.8564  19.8564  20.2384  20.2384  34.0449

     occupation numbers 
     1.0000   1.0000   1.0000   1.0000   1.0000   1.0000   1.0000   1.0000
     1.0000   1.0000   1.0000   1.0000   1.0000   1.0000   1.0000   1.0000
     0.0000   0.0000   0.0000   0.0000   0.0000

          k = 0.1667 0.3849 0.0000 (  2833 PWs)   bands (ev):

   -75.1305 -75.1019 -38.5364 -38.5241 -38.5137 -38.4141 -38.3623 -38.3522
    13.7894  15.8979  15.9872  16.4235  17.6023  17.9078  18.1485  19.0147
    19.8410  20.0281  20.4373  26.4950  26.7526

     occupation numbers 
     1.0000   1.0000   1.0000   1.0000   1.0000   1.0000   1.0000   1.0000
     1.0000   1.0000   1.0000   1.0000   1.0000   1.0000   1.0000   0.0000
     0.0000   0.0000   0.0000   0.0000   0.0000

          k = 0.1667 0.3849 0.1009 (  2838 PWs)   bands (ev):

   -75.1286 -75.1038 -38.5622 -38.5301 -38.4775 -38.4181 -38.3678 -38.3471
    13.9308  15.7583  16.0859  16.5236  17.5473  17.9010  18.1057  19.0790
    19.7773  19.9410  20.5294  24.1929  29.0638

     occupation numbers 
     1.0000   1.0000   1.0000   1.0000   1.0000   1.0000   1.0000   1.0000
     1.0000   1.0000   1.0000   1.0000   1.0000   1.0000   1.0000   0.0000
     0.0000   0.0000   0.0000   0.0000   0.0000

          k = 0.1667 0.3849 0.2018 (  2831 PWs)   bands (ev):

   -75.1233 -75.1091 -38.5767 -38.5497 -38.4366 -38.4163 -38.3752 -38.3483
    14.3189  15.3800  16.3578  16.7269  17.3846  17.6459  18.2954  19.1103
    19.6181  20.1193  20.6088  22.2383  30.1227

     occupation numbers 
     1.0000   1.0000   1.0000   1.0000   1.0000   1.0000   1.0000   1.0000
     1.0000   1.0000   1.0000   1.0000   1.0000   1.0000   1.0000   0.0000
     0.0000   0.0000   0.0000   0.0000   0.0000

          k = 0.1667 0.3849-0.3027 (  2838 PWs)   bands (ev):

   -75.1162 -75.1162 -38.5702 -38.5702 -38.4170 -38.4170 -38.3642 -38.3642
    14.8513  14.8513  16.6921  16.6921  17.3709  17.3709  18.6664  18.6664
    20.0979  20.0979  20.9443  20.9443  31.2010

     occupation numbers 
     1.0000   1.0000   1.0000   1.0000   1.0000   1.0000   1.0000   1.0000
     1.0000   1.0000   1.0000   1.0000   1.0000   1.0000   1.0000   1.0000
     0.0000   0.0000   0.0000   0.0000   0.0000

          k = 0.1667 0.4811 0.0000 (  2842 PWs)   bands (ev):

   -75.1190 -75.1001 -38.5789 -38.5356 -38.4888 -38.4430 -38.3791 -38.3755
    14.8942  15.7414  15.7535  16.4954  17.5367  17.8618  18.1468  19.5034
    20.0140  20.0878  21.3757  25.3739  28.4080

     occupation numbers 
     1.0000   1.0000   1.0000   1.0000   1.0000   1.0000   1.0000   1.0000
     1.0000   1.0000   1.0000   1.0000   1.0000   1.0000   1.0000   0.0000
     0.0000   0.0000   0.0000   0.0000   0.0000

          k = 0.1667 0.4811 0.1009 (  2838 PWs)   bands (ev):

   -75.1177 -75.1014 -38.5897 -38.5519 -38.4718 -38.4352 -38.3896 -38.3627
    14.8999  15.6910  15.9251  16.5159  17.5424  17.8253  18.2521  19.5073
    19.7863  20.1600  21.4208  24.6955  27.5587

     occupation numbers 
     1.0000   1.0000   1.0000   1.0000   1.0000   1.0000   1.0000   1.0000
     1.0000   1.0000   1.0000   1.0000   1.0000   1.0000   1.0000   0.0000
     0.0000   0.0000   0.0000   0.0000   0.0000

          k = 0.1667 0.4811 0.2018 (  2843 PWs)   bands (ev):

   -75.1143 -75.1048 -38.6026 -38.5786 -38.4543 -38.4199 -38.3897 -38.3554
    14.9860  15.4910  16.2462  16.7544  17.3637  17.8111  18.5050  19.2167
    19.7321  20.2524  21.5636  23.2346  27.7402

     occupation numbers 
     1.0000   1.0000   1.0000   1.0000   1.0000   1.0000   1.0000   1.0000
     1.0000   1.0000   1.0000   1.0000   1.0000   1.0000   1.0000   0.0000
     0.0000   0.0000   0.0000   0.0000   0.0000

          k = 0.1667 0.4811-0.3027 (  2826 PWs)   bands (ev):

   -75.1096 -75.1096 -38.5991 -38.5991 -38.4353 -38.4353 -38.3658 -38.3658
    15.2010  15.2010  16.6379  16.6379  17.5562  17.5562  18.7901  18.7901
    20.0874  20.0874  22.0773  22.0773  28.5360

     occupation numbers 
     1.0000   1.0000   1.0000   1.0000   1.0000   1.0000   1.0000   1.0000
     1.0000   1.0000   1.0000   1.0000   1.0000   1.0000   0.9987   0.9987
     0.0000   0.0000   0.0000   0.0000   0.0000

          k = 0.1667 0.5774 0.0000 (  2830 PWs)   bands (ev):

   -75.1140 -75.1003 -38.5943 -38.5428 -38.4710 -38.4547 -38.3888 -38.3851
    15.3504  15.6108  15.6921  16.5753  17.6127  17.6557  18.2531  19.8505
    20.0085  20.0480  22.3002  23.8132  29.7652

     occupation numbers 
     1.0000   1.0000   1.0000   1.0000   1.0000   1.0000   1.0000   1.0000
     1.0000   1.0000   1.0000   1.0000   1.0000   1.0000   1.0000   0.0000
     0.0000   0.0000   0.0000   0.0000   0.0000

          k = 0.1667 0.5774 0.1009 (  2839 PWs)   bands (ev):

   -75.1131 -75.1012 -38.6030 -38.5581 -38.4740 -38.4294 -38.4019 -38.3703
    15.1824  15.6521  16.0761  16.3732  17.5049  17.8562  18.3658  19.7633
    19.8513  20.1043  22.3215  23.7055  28.6484

     occupation numbers 
     1.0000   1.0000   1.0000   1.0000   1.0000   1.0000   1.0000   1.0000
     1.0000   1.0000   1.0000   1.0000   1.0000   1.0000   1.0000   0.0000
     0.0000   0.0000   0.0000   0.0000   0.0000

          k = 0.1667 0.5774 0.2018 (  2833 PWs)   bands (ev):

   -75.1105 -75.1037 -38.6140 -38.5879 -38.4629 -38.4203 -38.3920 -38.3592
    15.1304  15.5535  16.3199  16.6643  17.2782  17.9900  18.6550  19.2818
    19.8844  20.1529  22.4362  23.3558  27.6044

     occupation numbers 
     1.0000   1.0000   1.0000   1.0000   1.0000   1.0000   1.0000   1.0000
     1.0000   1.0000   1.0000   1.0000   1.0000   1.0000   1.0000   0.0000
     0.0000   0.0000   0.0000   0.0000   0.0000

          k = 0.1667 0.5774-0.3027 (  2834 PWs)   bands (ev):

   -75.1071 -75.1071 -38.6099 -38.6099 -38.4424 -38.4424 -38.3657 -38.3657
    15.2825  15.2825  16.6266  16.6266  17.6153  17.6153  18.9542  18.9542
    20.0219  20.0219  22.8278  22.8278  27.2474

     occupation numbers 
     1.0000   1.0000   1.0000   1.0000   1.0000   1.0000   1.0000   1.0000
     1.0000   1.0000   1.0000   1.0000   1.0000   1.0000   0.0000   0.0000
     0.0000   0.0000   0.0000   0.0000   0.0000

          k = 0.2500 0.4330 0.0000 (  2852 PWs)   bands (ev):

   -75.1190 -75.1001 -38.5554 -38.5337 -38.4890 -38.4475 -38.4006 -38.3752
    14.9147  15.8228  16.1069  16.1587  17.4359  17.8928  18.1540  19.2320
    19.9579  20.0840  21.4248  26.9091  27.8655

     occupation numbers 
     1.0000   1.0000   1.0000   1.0000   1.0000   1.0000   1.0000   1.0000
     1.0000   1.0000   1.0000   1.0000   1.0000   1.0000   1.0000   0.0000
     0.0000   0.0000   0.0000   0.0000   0.0000

          k = 0.2500 0.4330 0.1009 (  2845 PWs)   bands (ev):

   -75.1177 -75.1014 -38.5590 -38.5586 -38.4594 -38.4573 -38.4022 -38.3647
    14.9866  15.7388  16.1725  16.3375  17.4707  17.7028  18.1805  19.2937
    19.7223  20.1653  21.5198  25.3866  28.1425

     occupation numbers 
     1.0000   1.0000   1.0000   1.0000   1.0000   1.0000   1.0000   1.0000
     1.0000   1.0000   1.0000   1.0000   1.0000   1.0000   1.0000   0.0000
     0.0000   0.0000   0.0000   0.0000   0.0000

          k = 0.2500 0.4330 0.2018 (  2832 PWs)   bands (ev):

   -75.1143 -75.1048 -38.5812 -38.5715 -38.4623 -38.4407 -38.3898 -38.3553
    15.1710  15.5935  16.3865  16.6793  17.3109  17.4303  18.2943  19.1106
    19.6882  20.2624  21.7459  23.5459  28.8963

     occupation numbers 
     1.0000   1.0000   1.0000   1.0000   1.0000   1.0000   1.0000   1.0000
     1.0000   1.0000   1.0000   1.0000   1.0000   1.0000   1.0000   0.0000
     0.0000   0.0000   0.0000   0.0000   0.0000

          k = 0.2500 0.4330-0.3027 (  2822 PWs)   bands (ev):

   -75.1096 -75.1096 -38.5840 -38.5840 -38.4519 -38.4519 -38.3645 -38.3645
    15.3966  15.3966  16.7174  16.7174  17.2081  17.2081  18.6101  18.6101
    20.1120  20.1120  22.2955  22.2955  29.8768

     occupation numbers 
     1.0000   1.0000   1.0000   1.0000   1.0000   1.0000   1.0000   1.0000
     1.0000   1.0000   1.0000   1.0000   1.0000   1.0000   1.0000   1.0000
     0.0000   0.0000   0.0000   0.0000   0.0000

          k = 0.2500 0.5292 0.0000 (  2844 PWs)   bands (ev):

   -75.1106 -75.1008 -38.5688 -38.5249 -38.4817 -38.4579 -38.4255 -38.3994
    15.6286  15.8107  15.9526  16.2513  17.4328  17.6279  18.3564  19.5607
    19.9169  19.9939  22.7422  25.0290  27.1707

     occupation numbers 
     1.0000   1.0000   1.0000   1.0000   1.0000   1.0000   1.0000   1.0000
     1.0000   1.0000   1.0000   1.0000   1.0000   1.0000   1.0000   0.0000
     0.0000   0.0000   0.0000   0.0000   0.0000

          k = 0.2500 0.5292 0.1009 (  2842 PWs)   bands (ev):

   -75.1099 -75.1015 -38.5732 -38.5434 -38.4958 -38.4419 -38.4212 -38.3825
    15.5706  15.9385  16.0318  16.3118  17.4012  17.5249  18.3832  19.5948
    19.6785  20.0533  22.8946  24.9853  27.1996

     occupation numbers 
     1.0000   1.0000   1.0000   1.0000   1.0000   1.0000   1.0000   1.0000
     1.0000   1.0000   1.0000   1.0000   1.0000   1.0000   1.0000   0.0000
     0.0000   0.0000   0.0000   0.0000   0.0000

          k = 0.2500 0.5292 0.2018 (  2832 PWs)   bands (ev):

   -75.1081 -75.1033 -38.5849 -38.5700 -38.4964 -38.4573 -38.3857 -38.3633
    15.5922  15.8829  16.3066  16.6496  17.1276  17.3910  18.4782  19.1301
    19.7895  20.1147  23.2626  24.5784  27.2254

     occupation numbers 
     1.0000   1.0000   1.0000   1.0000   1.0000   1.0000   1.0000   1.0000
     1.0000   1.0000   1.0000   1.0000   1.0000   1.0000   1.0000   0.0000
     0.0000   0.0000   0.0000   0.0000   0.0000

          k = 0.2500 0.5292-0.3027 (  2840 PWs)   bands (ev):

   -75.1057 -75.1057 -38.5864 -38.5864 -38.4790 -38.4790 -38.3632 -38.3632
    15.7190  15.7190  16.6947  16.6947  17.1101  17.1101  18.6986  18.6986
    20.0142  20.0142  23.8416  23.8416  27.7600

     occupation numbers 
     1.0000   1.0000   1.0000   1.0000   1.0000   1.0000   1.0000   1.0000
     1.0000   1.0000   1.0000   1.0000   1.0000   1.0000   1.0000   1.0000
     0.0000   0.0000   0.0000   0.0000   0.0000

          k = 0.3333 0.5774 0.0000 (  2844 PWs)   bands (ev):

   -75.1043 -75.1043 -38.5551 -38.5068 -38.5068 -38.4557 -38.4273 -38.4273
    15.8593  15.9792  15.9792  16.1544  17.4570  17.4570  18.4667  19.7383
    19.7383  19.8784  24.2193  25.0382  25.0382

     occupation numbers 
     1.0000   1.0000   1.0000   1.0000   1.0000   1.0000   1.0000   1.0000
     1.0000   1.0000   1.0000   1.0000   1.0000   1.0000   1.0000   0.0000
     0.0000   0.0000   0.0000   0.0000   0.0000

          k = 0.3333 0.5774 0.1009 (  2847 PWs)   bands (ev):

   -75.1043 -75.1043 -38.5485 -38.5297 -38.5297 -38.4623 -38.4044 -38.4044
    15.9300  16.0463  16.0464  16.1837  17.3686  17.3686  18.4525  19.6185
    19.7985  19.7985  24.6172  25.0773  25.0773

     occupation numbers 
     1.0000   1.0000   1.0000   1.0000   1.0000   1.0000   1.0000   1.0000
     1.0000   1.0000   1.0000   1.0000   1.0000   1.0000   1.0000   0.0000
     0.0000   0.0000   0.0000   0.0000   0.0000

          k = 0.3333 0.5774 0.2018 (  2838 PWs)   bands (ev):

   -75.1043 -75.1043 -38.5597 -38.5597 -38.5303 -38.4806 -38.3741 -38.3741
    16.0940  16.2068  16.2068  16.2371  17.1743  17.1743  18.4672  19.0904
    19.9109  19.9109  25.1741  25.1741  25.5984

     occupation numbers 
     1.0000   1.0000   1.0000   1.0000   1.0000   1.0000   1.0000   1.0000
     1.0000   1.0000   1.0000   1.0000   1.0000   1.0000   1.0000   0.0000
     0.0000   0.0000   0.0000   0.0000   0.0000

          k = 0.3333 0.5774-0.3027 (  2820 PWs)   bands (ev):

   -75.1043 -75.1043 -38.5715 -38.5715 -38.5055 -38.5055 -38.3621 -38.3621
    16.2254  16.2254  16.3116  16.3116  17.0563  17.0563  18.6543  18.6543
    19.9638  19.9638  25.2351  25.2351  26.9052

     occupation numbers 
     1.0000   1.0000   1.0000   1.0000   1.0000   1.0000   1.0000   1.0000
     1.0000   1.0000   1.0000   1.0000   1.0000   1.0000   1.0000   1.0000
     0.0000   0.0000   0.0000   0.0000   0.0000

     the Fermi energy is    18.8190 ev

!    total energy              =    -753.45470934 Ry
     total all-electron energy =     -5573.811401 Ry
     estimated scf accuracy    <       0.00000081 Ry
     smearing contrib. (-TS)   =      -0.00001226 Ry
     internal energy E=F+TS    =    -753.45469708 Ry

     The total energy is F=E-TS. E is the sum of the following terms:
     one-electron contribution =    -281.52957859 Ry
     hartree contribution      =     164.57539606 Ry
     xc contribution           =     -61.41523436 Ry
     ewald contribution        =    -399.90849112 Ry
     one-center paw contrib.   =    -175.17678907 Ry
      -> PAW hartree energy AE =     222.03880074 Ry
      -> PAW hartree energy PS =    -220.98360856 Ry
      -> PAW xc energy AE      =    -117.67560053 Ry
      -> PAW xc energy PS      =      29.03201382 Ry
      -> total E_H with PAW    =     165.63058823 Ry
      -> total E_XC with PAW   =    -150.05882107 Ry

     total magnetization       =     3.36 Bohr mag/cell
     absolute magnetization    =     3.67 Bohr mag/cell

     convergence has been achieved in  14 iterations

     Writing all to output data dir ./out/Co.save/
 
     init_run     :      0.39s CPU      0.52s WALL (       1 calls)
     electrons    :     26.39s CPU     27.92s WALL (       1 calls)

     Called by init_run:
     wfcinit      :      0.26s CPU      0.36s WALL (       1 calls)
     potinit      :      0.09s CPU      0.11s WALL (       1 calls)
     hinit0       :      0.03s CPU      0.03s WALL (       1 calls)

     Called by electrons:
     c_bands      :     22.56s CPU     23.71s WALL (      14 calls)
     sum_band     :      2.58s CPU      2.73s WALL (      14 calls)
     v_of_rho     :      0.04s CPU      0.04s WALL (      15 calls)
     v_h          :      0.00s CPU      0.00s WALL (      15 calls)
     v_xc         :      0.04s CPU      0.04s WALL (      15 calls)
     newd         :      0.06s CPU      0.07s WALL (      15 calls)
     PAW_pot      :      1.22s CPU      1.44s WALL (      15 calls)
     mix_rho      :      0.01s CPU      0.01s WALL (      14 calls)

     Called by c_bands:
     init_us_2    :      0.14s CPU      0.15s WALL (    4256 calls)
     init_us_2:cp :      0.14s CPU      0.15s WALL (    4256 calls)
     cegterg      :     21.64s CPU     22.63s WALL (    2128 calls)

     Called by sum_band:
     sum_band:wei :      0.02s CPU      0.02s WALL (      14 calls)
     sum_band:loo :      2.44s CPU      2.59s WALL (      14 calls)
     sum_band:buf :      0.01s CPU      0.01s WALL (    2128 calls)
     sum_band:ini :      0.09s CPU      0.07s WALL (    2128 calls)
     sum_band:cal :      0.21s CPU      0.21s WALL (    2128 calls)
     sum_band:bec :      0.00s CPU      0.02s WALL (    2128 calls)
     addusdens    :      0.10s CPU      0.10s WALL (      14 calls)
                                        0.00s GPU  (      14 calls)
     addusd:skk   :      0.00s CPU      0.00s WALL (      14 calls)
                                        0.00s GPU  (      14 calls)

     Called by *egterg:
     cdiaghg      :      4.91s CPU      5.04s WALL (   10586 calls)
     cegterg:over :      0.70s CPU      0.67s WALL (    8610 calls)
     cegterg:upda :      0.08s CPU      0.16s WALL (    8610 calls)
     cegterg:last :      0.27s CPU      0.31s WALL (    6570 calls)
     h_psi        :     14.78s CPU     15.56s WALL (   10738 calls)
     s_psi        :      0.30s CPU      0.24s WALL (   10738 calls)
     g_psi        :      0.04s CPU      0.05s WALL (    8610 calls)

     Called by h_psi:
     h_psi:calbec :      0.78s CPU      0.75s WALL (   10738 calls)
     vloc_psi     :     13.81s CPU     14.49s WALL (   10738 calls)
     add_vuspsi   :      0.14s CPU      0.25s WALL (   10738 calls)

     General routines
     calbec       :      0.99s CPU      0.94s WALL (   12866 calls)
     fft          :      0.03s CPU      0.03s WALL (     369 calls)
     ffts         :      0.00s CPU      0.00s WALL (      58 calls)
     fftw         :     15.07s CPU     15.58s WALL (  348986 calls)
     interpolate  :      0.00s CPU      0.01s WALL (      30 calls)
 
     Parallel routines

     PAW routines
     PAW_pot      :      1.22s CPU      1.44s WALL (      15 calls)
     PAW_symme    :      0.01s CPU      0.01s WALL (      28 calls)
 
     PWSCF        :     27.11s CPU     29.22s WALL

 
   This run was terminated on:   7:35: 3  22Mar2024            

=------------------------------------------------------------------------------=
   JOB DONE.
=------------------------------------------------------------------------------=
