
     Program PWSCF v.7.2 starts on 22Mar2024 at  8:37:31 

     This program is part of the open-source Quantum ESPRESSO suite
     for quantum simulation of materials; please cite
         "P. Giannozzi et al., J. Phys.:Condens. Matter 21 395502 (2009);
         "P. Giannozzi et al., J. Phys.:Condens. Matter 29 465901 (2017);
         "P. Giannozzi et al., J. Chem. Phys. 152 154105 (2020);
          URL http://www.quantum-espresso.org", 
     in publications or presentations arising from this work. More details at
     http://www.quantum-espresso.org/quote

     Parallel version (MPI), running on    20 processors

     MPI processes distributed on     1 nodes
     241735 MiB available memory on the printing compute node when the environment starts
 
     Waiting for input...
     Reading input from standard input

     Current dimensions of program PWSCF are:
     Max number of different atomic species (ntypx) = 10
     Max number of k-points (npk) = 120000
     Max angular momentum in pseudopotentials (lmaxx) =  4
     file Co.pbe-spn-kjpaw_psl.0.3.1.UPF: wavefunction(s)  3P 3D renormalized
 
     R & G space division:  proc/nbgrp/npool/nimage =      20
     Subspace diagonalization in iterative solution of the eigenvalue problem:
     a serial algorithm will be used

 
     Parallelization info
     --------------------
     sticks:   dense  smooth     PW     G-vecs:    dense   smooth      PW
     Min          32      32      9                 1124     1088     178
     Max          35      33     11                 1135     1095     183
     Sum         661     649    199                22551    21807    3597
 
     Using Slab Decomposition
 


     bravais-lattice index     =            4
     lattice parameter (alat)  =       4.6109  a.u.
     unit-cell volume          =     140.0467 (a.u.)^3
     number of atoms/cell      =            2
     number of atomic types    =            1
     number of electrons       =        34.00
     number of Kohn-Sham states=           21
     kinetic-energy cutoff     =     110.0000  Ry
     charge density cutoff     =     450.0000  Ry
     scf convergence threshold =      1.0E-06
     mixing beta               =       0.7000
     number of iterations used =            8  plain     mixing
     Exchange-correlation= SLA  PW   PBX  PBC
                           (   1   4   3   4   0   0   0)

     celldm(1)=   4.610932  celldm(2)=   0.000000  celldm(3)=   1.649590
     celldm(4)=   0.000000  celldm(5)=   0.000000  celldm(6)=   0.000000

     crystal axes: (cart. coord. in units of alat)
               a(1) = (   1.000000   0.000000   0.000000 )  
               a(2) = (  -0.500000   0.866025   0.000000 )  
               a(3) = (   0.000000   0.000000   1.649590 )  

     reciprocal axes: (cart. coord. in units 2 pi/alat)
               b(1) = (  1.000000  0.577350  0.000000 )  
               b(2) = (  0.000000  1.154701  0.000000 )  
               b(3) = (  0.000000  0.000000  0.606211 )  


     PseudoPot. # 1 for Co read from file:
     /truba/home/amuhaymin/ZnS/pseudo/QE/Co.pbe-spn-kjpaw_psl.0.3.1.UPF
     MD5 check sum: b0a1ad65bf214e88c1f3d33b20c7d919
     Pseudo is Projector augmented-wave + core cor, Zval = 17.0
     Generated using &quot;atomic&quot; code by A. Dal Corso  v.6.2.2
     Shape of augmentation charge: PSQ
     Using radial grid of 1193 points,  6 beta functions with: 
                l(1) =   0
                l(2) =   0
                l(3) =   1
                l(4) =   1
                l(5) =   2
                l(6) =   2
     Q(r) pseudized with 0 coefficients 


     atomic species   valence    mass     pseudopotential
        Co            17.00    58.93300     Co( 1.00)

     Starting magnetic structure 
     atomic species   magnetization
        Co           0.294

     24 Sym. Ops., with inversion, found (12 have fractional translation)


                                    s                        frac. trans.

      isym =  1     identity                                     

 cryst.   s( 1) = (     1          0          0      )
                  (     0          1          0      )
                  (     0          0          1      )

 cart.    s( 1) = (  1.0000000  0.0000000  0.0000000 )
                  (  0.0000000  1.0000000  0.0000000 )
                  (  0.0000000  0.0000000  1.0000000 )


      isym =  2     180 deg rotation - cart. axis [0,0,1]        

 cryst.   s( 2) = (    -1          0          0      )    f =(  0.0000000 )
                  (     0         -1          0      )       (  0.0000000 )
                  (     0          0          1      )       ( -0.5000000 )

 cart.    s( 2) = ( -1.0000000  0.0000000  0.0000000 )    f =(  0.0000000 )
                  (  0.0000000 -1.0000000  0.0000000 )       (  0.0000000 )
                  (  0.0000000  0.0000000  1.0000000 )       ( -0.8247951 )


      isym =  3     180 deg rotation - cart. axis [0,1,0]        

 cryst.   s( 3) = (    -1          0          0      )    f =(  0.0000000 )
                  (     1          1          0      )       (  0.0000000 )
                  (     0          0         -1      )       (  0.5000000 )

 cart.    s( 3) = ( -1.0000000  0.0000000  0.0000000 )    f =(  0.0000000 )
                  (  0.0000000  1.0000000  0.0000000 )       (  0.0000000 )
                  (  0.0000000  0.0000000 -1.0000000 )       (  0.8247951 )


      isym =  4     180 deg rotation - cart. axis [1,0,0]        

 cryst.   s( 4) = (     1          0          0      )
                  (    -1         -1          0      )
                  (     0          0         -1      )

 cart.    s( 4) = (  1.0000000  0.0000000  0.0000000 )
                  (  0.0000000 -1.0000000  0.0000000 )
                  (  0.0000000  0.0000000 -1.0000000 )


      isym =  5      60 deg rotation - cryst. axis [0,0,1]       

 cryst.   s( 5) = (     1          1          0      )    f =(  0.0000000 )
                  (    -1          0          0      )       ( -0.0000000 )
                  (     0          0          1      )       ( -0.5000000 )

 cart.    s( 5) = (  0.5000000 -0.8660254  0.0000000 )    f =(  0.0000000 )
                  (  0.8660254  0.5000000  0.0000000 )       ( -0.0000000 )
                  (  0.0000000  0.0000000  1.0000000 )       ( -0.8247951 )


      isym =  6      60 deg rotation - cryst. axis [0,0,-1]      

 cryst.   s( 6) = (     0         -1          0      )    f =(  0.0000000 )
                  (     1          1          0      )       ( -0.0000000 )
                  (     0          0          1      )       ( -0.5000000 )

 cart.    s( 6) = (  0.5000000  0.8660254  0.0000000 )    f =(  0.0000000 )
                  ( -0.8660254  0.5000000  0.0000000 )       ( -0.0000000 )
                  (  0.0000000  0.0000000  1.0000000 )       ( -0.8247951 )


      isym =  7     120 deg rotation - cryst. axis [0,0,1]       

 cryst.   s( 7) = (     0          1          0      )
                  (    -1         -1          0      )
                  (     0          0          1      )

 cart.    s( 7) = ( -0.5000000 -0.8660254  0.0000000 )
                  (  0.8660254 -0.5000000  0.0000000 )
                  (  0.0000000  0.0000000  1.0000000 )


      isym =  8     120 deg rotation - cryst. axis [0,0,-1]      

 cryst.   s( 8) = (    -1         -1          0      )
                  (     1          0          0      )
                  (     0          0          1      )

 cart.    s( 8) = ( -0.5000000  0.8660254  0.0000000 )
                  ( -0.8660254 -0.5000000  0.0000000 )
                  (  0.0000000  0.0000000  1.0000000 )


      isym =  9     180 deg rotation - cryst. axis [1,-1,0]      

 cryst.   s( 9) = (     0         -1          0      )    f =(  0.0000000 )
                  (    -1          0          0      )       (  0.0000000 )
                  (     0          0         -1      )       (  0.5000000 )

 cart.    s( 9) = (  0.5000000 -0.8660254  0.0000000 )    f =(  0.0000000 )
                  ( -0.8660254 -0.5000000  0.0000000 )       (  0.0000000 )
                  (  0.0000000  0.0000000 -1.0000000 )       (  0.8247951 )


      isym = 10     180 deg rotation - cryst. axis [2,1,0]       

 cryst.   s(10) = (     1          1          0      )    f =(  0.0000000 )
                  (     0         -1          0      )       ( -0.0000000 )
                  (     0          0         -1      )       (  0.5000000 )

 cart.    s(10) = (  0.5000000  0.8660254  0.0000000 )    f =(  0.0000000 )
                  (  0.8660254 -0.5000000  0.0000000 )       ( -0.0000000 )
                  (  0.0000000  0.0000000 -1.0000000 )       (  0.8247951 )


      isym = 11     180 deg rotation - cryst. axis [0,1,0]       

 cryst.   s(11) = (    -1         -1          0      )
                  (     0          1          0      )
                  (     0          0         -1      )

 cart.    s(11) = ( -0.5000000 -0.8660254  0.0000000 )
                  ( -0.8660254  0.5000000  0.0000000 )
                  (  0.0000000  0.0000000 -1.0000000 )


      isym = 12     180 deg rotation - cryst. axis [1,1,0]       

 cryst.   s(12) = (     0          1          0      )
                  (     1          0          0      )
                  (     0          0         -1      )

 cart.    s(12) = ( -0.5000000  0.8660254  0.0000000 )
                  (  0.8660254  0.5000000  0.0000000 )
                  (  0.0000000  0.0000000 -1.0000000 )


      isym = 13     inversion                                    

 cryst.   s(13) = (    -1          0          0      )
                  (     0         -1          0      )
                  (     0          0         -1      )

 cart.    s(13) = ( -1.0000000  0.0000000  0.0000000 )
                  (  0.0000000 -1.0000000  0.0000000 )
                  (  0.0000000  0.0000000 -1.0000000 )


      isym = 14     inv. 180 deg rotation - cart. axis [0,0,1]   

 cryst.   s(14) = (     1          0          0      )    f =(  0.0000000 )
                  (     0          1          0      )       (  0.0000000 )
                  (     0          0         -1      )       (  0.5000000 )

 cart.    s(14) = (  1.0000000  0.0000000  0.0000000 )    f =(  0.0000000 )
                  (  0.0000000  1.0000000  0.0000000 )       (  0.0000000 )
                  (  0.0000000  0.0000000 -1.0000000 )       (  0.8247951 )


      isym = 15     inv. 180 deg rotation - cart. axis [0,1,0]   

 cryst.   s(15) = (     1          0          0      )    f =(  0.0000000 )
                  (    -1         -1          0      )       (  0.0000000 )
                  (     0          0          1      )       ( -0.5000000 )

 cart.    s(15) = (  1.0000000  0.0000000  0.0000000 )    f =(  0.0000000 )
                  (  0.0000000 -1.0000000  0.0000000 )       (  0.0000000 )
                  (  0.0000000  0.0000000  1.0000000 )       ( -0.8247951 )


      isym = 16     inv. 180 deg rotation - cart. axis [1,0,0]   

 cryst.   s(16) = (    -1          0          0      )
                  (     1          1          0      )
                  (     0          0          1      )

 cart.    s(16) = ( -1.0000000  0.0000000  0.0000000 )
                  (  0.0000000  1.0000000  0.0000000 )
                  (  0.0000000  0.0000000  1.0000000 )


      isym = 17     inv.  60 deg rotation - cryst. axis [0,0,1]  

 cryst.   s(17) = (    -1         -1          0      )    f =(  0.0000000 )
                  (     1          0          0      )       (  0.0000000 )
                  (     0          0         -1      )       (  0.5000000 )

 cart.    s(17) = ( -0.5000000  0.8660254  0.0000000 )    f =(  0.0000000 )
                  ( -0.8660254 -0.5000000  0.0000000 )       (  0.0000000 )
                  (  0.0000000  0.0000000 -1.0000000 )       (  0.8247951 )


      isym = 18     inv.  60 deg rotation - cryst. axis [0,0,-1] 

 cryst.   s(18) = (     0          1          0      )    f =(  0.0000000 )
                  (    -1         -1          0      )       ( -0.0000000 )
                  (     0          0         -1      )       (  0.5000000 )

 cart.    s(18) = ( -0.5000000 -0.8660254  0.0000000 )    f =(  0.0000000 )
                  (  0.8660254 -0.5000000  0.0000000 )       ( -0.0000000 )
                  (  0.0000000  0.0000000 -1.0000000 )       (  0.8247951 )


      isym = 19     inv. 120 deg rotation - cryst. axis [0,0,1]  

 cryst.   s(19) = (     0         -1          0      )
                  (     1          1          0      )
                  (     0          0         -1      )

 cart.    s(19) = (  0.5000000  0.8660254  0.0000000 )
                  ( -0.8660254  0.5000000  0.0000000 )
                  (  0.0000000  0.0000000 -1.0000000 )


      isym = 20     inv. 120 deg rotation - cryst. axis [0,0,-1] 

 cryst.   s(20) = (     1          1          0      )
                  (    -1          0          0      )
                  (     0          0         -1      )

 cart.    s(20) = (  0.5000000 -0.8660254  0.0000000 )
                  (  0.8660254  0.5000000  0.0000000 )
                  (  0.0000000  0.0000000 -1.0000000 )


      isym = 21     inv. 180 deg rotation - cryst. axis [1,-1,0] 

 cryst.   s(21) = (     0          1          0      )    f =(  0.0000000 )
                  (     1          0          0      )       ( -0.0000000 )
                  (     0          0          1      )       ( -0.5000000 )

 cart.    s(21) = ( -0.5000000  0.8660254  0.0000000 )    f =(  0.0000000 )
                  (  0.8660254  0.5000000  0.0000000 )       ( -0.0000000 )
                  (  0.0000000  0.0000000  1.0000000 )       ( -0.8247951 )


      isym = 22     inv. 180 deg rotation - cryst. axis [2,1,0]  

 cryst.   s(22) = (    -1         -1          0      )    f =(  0.0000000 )
                  (     0          1          0      )       ( -0.0000000 )
                  (     0          0          1      )       ( -0.5000000 )

 cart.    s(22) = ( -0.5000000 -0.8660254  0.0000000 )    f =(  0.0000000 )
                  ( -0.8660254  0.5000000  0.0000000 )       ( -0.0000000 )
                  (  0.0000000  0.0000000  1.0000000 )       ( -0.8247951 )


      isym = 23     inv. 180 deg rotation - cryst. axis [0,1,0]  

 cryst.   s(23) = (     1          1          0      )
                  (     0         -1          0      )
                  (     0          0          1      )

 cart.    s(23) = (  0.5000000  0.8660254  0.0000000 )
                  (  0.8660254 -0.5000000  0.0000000 )
                  (  0.0000000  0.0000000  1.0000000 )


      isym = 24     inv. 180 deg rotation - cryst. axis [1,1,0]  

 cryst.   s(24) = (     0         -1          0      )
                  (    -1          0          0      )
                  (     0          0          1      )

 cart.    s(24) = (  0.5000000 -0.8660254  0.0000000 )
                  ( -0.8660254 -0.5000000  0.0000000 )
                  (  0.0000000  0.0000000  1.0000000 )


     point group D_6h(6/mmm)
     there are 12 classes
     the character table:

       E     2C6   2C3   C2    3C2'  3C2'' i     2S3   2S6   s_h   3s_d  3s_v 
A_1g   1.00  1.00  1.00  1.00  1.00  1.00  1.00  1.00  1.00  1.00  1.00  1.00
A_2g   1.00  1.00  1.00  1.00 -1.00 -1.00  1.00  1.00  1.00  1.00 -1.00 -1.00
B_1g   1.00 -1.00  1.00 -1.00  1.00 -1.00  1.00 -1.00  1.00 -1.00  1.00 -1.00
B_2g   1.00 -1.00  1.00 -1.00 -1.00  1.00  1.00 -1.00  1.00 -1.00 -1.00  1.00
E_1g   2.00  1.00 -1.00 -2.00  0.00  0.00  2.00  1.00 -1.00 -2.00  0.00  0.00
E_2g   2.00 -1.00 -1.00  2.00  0.00  0.00  2.00 -1.00 -1.00  2.00  0.00  0.00
A_1u   1.00  1.00  1.00  1.00  1.00  1.00 -1.00 -1.00 -1.00 -1.00 -1.00 -1.00
A_2u   1.00  1.00  1.00  1.00 -1.00 -1.00 -1.00 -1.00 -1.00 -1.00  1.00  1.00
B_1u   1.00 -1.00  1.00 -1.00  1.00 -1.00 -1.00  1.00 -1.00  1.00 -1.00  1.00
B_2u   1.00 -1.00  1.00 -1.00 -1.00  1.00 -1.00  1.00 -1.00  1.00  1.00 -1.00
E_1u   2.00  1.00 -1.00 -2.00  0.00  0.00 -2.00 -1.00  1.00  2.00  0.00  0.00
E_2u   2.00 -1.00 -1.00  2.00  0.00  0.00 -2.00  1.00  1.00 -2.00  0.00  0.00

     the symmetry operations in each class and the name of the first element:

     E        1
          identity                                               
     2C6      5    6
           60 deg rotation - cryst. axis [0,0,1]                 
     2C3      7    8
          120 deg rotation - cryst. axis [0,0,1]                 
     C2       2
          180 deg rotation - cart. axis [0,0,1]                  
     3C2'     4   12   11
          180 deg rotation - cart. axis [1,0,0]                  
     3C2''    3    9   10
          180 deg rotation - cart. axis [0,1,0]                  
     i       13
          inversion                                              
     2S3     17   18
          inv.  60 deg rotation - cryst. axis [0,0,1]            
     2S6     19   20
          inv. 120 deg rotation - cryst. axis [0,0,1]            
     s_h     14
          inv. 180 deg rotation - cart. axis [0,0,1]             
     3s_d    16   24   23
          inv. 180 deg rotation - cart. axis [1,0,0]             
     3s_v    15   21   22
          inv. 180 deg rotation - cart. axis [0,1,0]             

   Cartesian axes

     site n.     atom                  positions (alat units)
         1           Co  tau(   1) = (  -0.0000000   0.5773503   0.4123975  )
         2           Co  tau(   2) = (   0.5000000   0.2886751   1.2371926  )

   Crystallographic axes

     site n.     atom                  positions (cryst. coord.)
         1           Co  tau(   1) = (  0.3333333  0.6666667  0.2500000  )
         2           Co  tau(   2) = (  0.6666667  0.3333333  0.7500000  )

     number of k points=    76  Gaussian smearing, width (Ry)=  0.0010
                       cart. coord. in units 2pi/alat
        k(    1) = (   0.0000000   0.0000000   0.0000000), wk =   0.0011574
        k(    2) = (   0.0000000   0.0000000   0.1010352), wk =   0.0023148
        k(    3) = (   0.0000000   0.0000000   0.2020704), wk =   0.0023148
        k(    4) = (   0.0000000   0.0000000  -0.3031056), wk =   0.0011574
        k(    5) = (   0.0000000   0.0962250   0.0000000), wk =   0.0069444
        k(    6) = (   0.0000000   0.0962250   0.1010352), wk =   0.0138889
        k(    7) = (   0.0000000   0.0962250   0.2020704), wk =   0.0138889
        k(    8) = (   0.0000000   0.0962250  -0.3031056), wk =   0.0069444
        k(    9) = (   0.0000000   0.1924501   0.0000000), wk =   0.0069444
        k(   10) = (   0.0000000   0.1924501   0.1010352), wk =   0.0138889
        k(   11) = (   0.0000000   0.1924501   0.2020704), wk =   0.0138889
        k(   12) = (   0.0000000   0.1924501  -0.3031056), wk =   0.0069444
        k(   13) = (   0.0000000   0.2886751   0.0000000), wk =   0.0069444
        k(   14) = (   0.0000000   0.2886751   0.1010352), wk =   0.0138889
        k(   15) = (   0.0000000   0.2886751   0.2020704), wk =   0.0138889
        k(   16) = (   0.0000000   0.2886751  -0.3031056), wk =   0.0069444
        k(   17) = (   0.0000000   0.3849002   0.0000000), wk =   0.0069444
        k(   18) = (   0.0000000   0.3849002   0.1010352), wk =   0.0138889
        k(   19) = (   0.0000000   0.3849002   0.2020704), wk =   0.0138889
        k(   20) = (   0.0000000   0.3849002  -0.3031056), wk =   0.0069444
        k(   21) = (   0.0000000   0.4811252   0.0000000), wk =   0.0069444
        k(   22) = (   0.0000000   0.4811252   0.1010352), wk =   0.0138889
        k(   23) = (   0.0000000   0.4811252   0.2020704), wk =   0.0138889
        k(   24) = (   0.0000000   0.4811252  -0.3031056), wk =   0.0069444
        k(   25) = (   0.0000000  -0.5773503   0.0000000), wk =   0.0034722
        k(   26) = (   0.0000000  -0.5773503   0.1010352), wk =   0.0069444
        k(   27) = (   0.0000000  -0.5773503   0.2020704), wk =   0.0069444
        k(   28) = (   0.0000000  -0.5773503  -0.3031056), wk =   0.0034722
        k(   29) = (   0.0833333   0.1443376   0.0000000), wk =   0.0069444
        k(   30) = (   0.0833333   0.1443376   0.1010352), wk =   0.0138889
        k(   31) = (   0.0833333   0.1443376   0.2020704), wk =   0.0138889
        k(   32) = (   0.0833333   0.1443376  -0.3031056), wk =   0.0069444
        k(   33) = (   0.0833333   0.2405626   0.0000000), wk =   0.0138889
        k(   34) = (   0.0833333   0.2405626   0.1010352), wk =   0.0277778
        k(   35) = (   0.0833333   0.2405626   0.2020704), wk =   0.0277778
        k(   36) = (   0.0833333   0.2405626  -0.3031056), wk =   0.0138889
        k(   37) = (   0.0833333   0.3367877   0.0000000), wk =   0.0138889
        k(   38) = (   0.0833333   0.3367877   0.1010352), wk =   0.0277778
        k(   39) = (   0.0833333   0.3367877   0.2020704), wk =   0.0277778
        k(   40) = (   0.0833333   0.3367877  -0.3031056), wk =   0.0138889
        k(   41) = (   0.0833333   0.4330127   0.0000000), wk =   0.0138889
        k(   42) = (   0.0833333   0.4330127   0.1010352), wk =   0.0277778
        k(   43) = (   0.0833333   0.4330127   0.2020704), wk =   0.0277778
        k(   44) = (   0.0833333   0.4330127  -0.3031056), wk =   0.0138889
        k(   45) = (   0.0833333   0.5292377   0.0000000), wk =   0.0138889
        k(   46) = (   0.0833333   0.5292377   0.1010352), wk =   0.0277778
        k(   47) = (   0.0833333   0.5292377   0.2020704), wk =   0.0277778
        k(   48) = (   0.0833333   0.5292377  -0.3031056), wk =   0.0138889
        k(   49) = (   0.1666667   0.2886751   0.0000000), wk =   0.0069444
        k(   50) = (   0.1666667   0.2886751   0.1010352), wk =   0.0138889
        k(   51) = (   0.1666667   0.2886751   0.2020704), wk =   0.0138889
        k(   52) = (   0.1666667   0.2886751  -0.3031056), wk =   0.0069444
        k(   53) = (   0.1666667   0.3849002   0.0000000), wk =   0.0138889
        k(   54) = (   0.1666667   0.3849002   0.1010352), wk =   0.0277778
        k(   55) = (   0.1666667   0.3849002   0.2020704), wk =   0.0277778
        k(   56) = (   0.1666667   0.3849002  -0.3031056), wk =   0.0138889
        k(   57) = (   0.1666667   0.4811252   0.0000000), wk =   0.0138889
        k(   58) = (   0.1666667   0.4811252   0.1010352), wk =   0.0277778
        k(   59) = (   0.1666667   0.4811252   0.2020704), wk =   0.0277778
        k(   60) = (   0.1666667   0.4811252  -0.3031056), wk =   0.0138889
        k(   61) = (   0.1666667   0.5773503   0.0000000), wk =   0.0069444
        k(   62) = (   0.1666667   0.5773503   0.1010352), wk =   0.0138889
        k(   63) = (   0.1666667   0.5773503   0.2020704), wk =   0.0138889
        k(   64) = (   0.1666667   0.5773503  -0.3031056), wk =   0.0069444
        k(   65) = (   0.2500000   0.4330127   0.0000000), wk =   0.0069444
        k(   66) = (   0.2500000   0.4330127   0.1010352), wk =   0.0138889
        k(   67) = (   0.2500000   0.4330127   0.2020704), wk =   0.0138889
        k(   68) = (   0.2500000   0.4330127  -0.3031056), wk =   0.0069444
        k(   69) = (   0.2500000   0.5292377   0.0000000), wk =   0.0138889
        k(   70) = (   0.2500000   0.5292377   0.1010352), wk =   0.0277778
        k(   71) = (   0.2500000   0.5292377   0.2020704), wk =   0.0277778
        k(   72) = (   0.2500000   0.5292377  -0.3031056), wk =   0.0138889
        k(   73) = (   0.3333333   0.5773503   0.0000000), wk =   0.0023148
        k(   74) = (   0.3333333   0.5773503   0.1010352), wk =   0.0046296
        k(   75) = (   0.3333333   0.5773503   0.2020704), wk =   0.0046296
        k(   76) = (   0.3333333   0.5773503  -0.3031056), wk =   0.0023148

                       cryst. coord.
        k(    1) = (   0.0000000   0.0000000   0.0000000), wk =   0.0011574
        k(    2) = (   0.0000000   0.0000000   0.1666667), wk =   0.0023148
        k(    3) = (   0.0000000   0.0000000   0.3333333), wk =   0.0023148
        k(    4) = (   0.0000000   0.0000000  -0.5000000), wk =   0.0011574
        k(    5) = (   0.0000000   0.0833333   0.0000000), wk =   0.0069444
        k(    6) = (   0.0000000   0.0833333   0.1666667), wk =   0.0138889
        k(    7) = (   0.0000000   0.0833333   0.3333333), wk =   0.0138889
        k(    8) = (   0.0000000   0.0833333  -0.5000000), wk =   0.0069444
        k(    9) = (   0.0000000   0.1666667   0.0000000), wk =   0.0069444
        k(   10) = (   0.0000000   0.1666667   0.1666667), wk =   0.0138889
        k(   11) = (   0.0000000   0.1666667   0.3333333), wk =   0.0138889
        k(   12) = (   0.0000000   0.1666667  -0.5000000), wk =   0.0069444
        k(   13) = (   0.0000000   0.2500000   0.0000000), wk =   0.0069444
        k(   14) = (   0.0000000   0.2500000   0.1666667), wk =   0.0138889
        k(   15) = (   0.0000000   0.2500000   0.3333333), wk =   0.0138889
        k(   16) = (   0.0000000   0.2500000  -0.5000000), wk =   0.0069444
        k(   17) = (   0.0000000   0.3333333   0.0000000), wk =   0.0069444
        k(   18) = (   0.0000000   0.3333333   0.1666667), wk =   0.0138889
        k(   19) = (   0.0000000   0.3333333   0.3333333), wk =   0.0138889
        k(   20) = (   0.0000000   0.3333333  -0.5000000), wk =   0.0069444
        k(   21) = (   0.0000000   0.4166667   0.0000000), wk =   0.0069444
        k(   22) = (   0.0000000   0.4166667   0.1666667), wk =   0.0138889
        k(   23) = (   0.0000000   0.4166667   0.3333333), wk =   0.0138889
        k(   24) = (   0.0000000   0.4166667  -0.5000000), wk =   0.0069444
        k(   25) = (   0.0000000  -0.5000000   0.0000000), wk =   0.0034722
        k(   26) = (   0.0000000  -0.5000000   0.1666667), wk =   0.0069444
        k(   27) = (   0.0000000  -0.5000000   0.3333333), wk =   0.0069444
        k(   28) = (   0.0000000  -0.5000000  -0.5000000), wk =   0.0034722
        k(   29) = (   0.0833333   0.0833333   0.0000000), wk =   0.0069444
        k(   30) = (   0.0833333   0.0833333   0.1666667), wk =   0.0138889
        k(   31) = (   0.0833333   0.0833333   0.3333333), wk =   0.0138889
        k(   32) = (   0.0833333   0.0833333  -0.5000000), wk =   0.0069444
        k(   33) = (   0.0833333   0.1666667   0.0000000), wk =   0.0138889
        k(   34) = (   0.0833333   0.1666667   0.1666667), wk =   0.0277778
        k(   35) = (   0.0833333   0.1666667   0.3333333), wk =   0.0277778
        k(   36) = (   0.0833333   0.1666667  -0.5000000), wk =   0.0138889
        k(   37) = (   0.0833333   0.2500000   0.0000000), wk =   0.0138889
        k(   38) = (   0.0833333   0.2500000   0.1666667), wk =   0.0277778
        k(   39) = (   0.0833333   0.2500000   0.3333333), wk =   0.0277778
        k(   40) = (   0.0833333   0.2500000  -0.5000000), wk =   0.0138889
        k(   41) = (   0.0833333   0.3333333   0.0000000), wk =   0.0138889
        k(   42) = (   0.0833333   0.3333333   0.1666667), wk =   0.0277778
        k(   43) = (   0.0833333   0.3333333   0.3333333), wk =   0.0277778
        k(   44) = (   0.0833333   0.3333333  -0.5000000), wk =   0.0138889
        k(   45) = (   0.0833333   0.4166667   0.0000000), wk =   0.0138889
        k(   46) = (   0.0833333   0.4166667   0.1666667), wk =   0.0277778
        k(   47) = (   0.0833333   0.4166667   0.3333333), wk =   0.0277778
        k(   48) = (   0.0833333   0.4166667  -0.5000000), wk =   0.0138889
        k(   49) = (   0.1666667   0.1666667   0.0000000), wk =   0.0069444
        k(   50) = (   0.1666667   0.1666667   0.1666667), wk =   0.0138889
        k(   51) = (   0.1666667   0.1666667   0.3333333), wk =   0.0138889
        k(   52) = (   0.1666667   0.1666667  -0.5000000), wk =   0.0069444
        k(   53) = (   0.1666667   0.2500000   0.0000000), wk =   0.0138889
        k(   54) = (   0.1666667   0.2500000   0.1666667), wk =   0.0277778
        k(   55) = (   0.1666667   0.2500000   0.3333333), wk =   0.0277778
        k(   56) = (   0.1666667   0.2500000  -0.5000000), wk =   0.0138889
        k(   57) = (   0.1666667   0.3333333   0.0000000), wk =   0.0138889
        k(   58) = (   0.1666667   0.3333333   0.1666667), wk =   0.0277778
        k(   59) = (   0.1666667   0.3333333   0.3333333), wk =   0.0277778
        k(   60) = (   0.1666667   0.3333333  -0.5000000), wk =   0.0138889
        k(   61) = (   0.1666667   0.4166667   0.0000000), wk =   0.0069444
        k(   62) = (   0.1666667   0.4166667   0.1666667), wk =   0.0138889
        k(   63) = (   0.1666667   0.4166667   0.3333333), wk =   0.0138889
        k(   64) = (   0.1666667   0.4166667  -0.5000000), wk =   0.0069444
        k(   65) = (   0.2500000   0.2500000   0.0000000), wk =   0.0069444
        k(   66) = (   0.2500000   0.2500000   0.1666667), wk =   0.0138889
        k(   67) = (   0.2500000   0.2500000   0.3333333), wk =   0.0138889
        k(   68) = (   0.2500000   0.2500000  -0.5000000), wk =   0.0069444
        k(   69) = (   0.2500000   0.3333333   0.0000000), wk =   0.0138889
        k(   70) = (   0.2500000   0.3333333   0.1666667), wk =   0.0277778
        k(   71) = (   0.2500000   0.3333333   0.3333333), wk =   0.0277778
        k(   72) = (   0.2500000   0.3333333  -0.5000000), wk =   0.0138889
        k(   73) = (   0.3333333   0.3333333   0.0000000), wk =   0.0023148
        k(   74) = (   0.3333333   0.3333333   0.1666667), wk =   0.0046296
        k(   75) = (   0.3333333   0.3333333   0.3333333), wk =   0.0046296
        k(   76) = (   0.3333333   0.3333333  -0.5000000), wk =   0.0023148

     Dense  grid:    22551 G-vectors     FFT dimensions: (  32,  32,  54)

     Smooth grid:    21807 G-vectors     FFT dimensions: (  32,  32,  54)

     Dynamical RAM for                 wfc:       0.04 MB

     Dynamical RAM for     wfc (w. buffer):       6.67 MB

     Dynamical RAM for           str. fact:       0.02 MB

     Dynamical RAM for           local pot:       0.00 MB

     Dynamical RAM for          nlocal pot:       0.07 MB

     Dynamical RAM for                qrad:       1.70 MB

     Dynamical RAM for          rho,v,vnew:       0.24 MB

     Dynamical RAM for               rhoin:       0.08 MB

     Dynamical RAM for            rho*nmix:       0.55 MB

     Dynamical RAM for           G-vectors:       0.07 MB

     Dynamical RAM for          h,s,v(r/c):       0.08 MB

     Dynamical RAM for          <psi|beta>:       0.01 MB

     Dynamical RAM for                 psi:       0.09 MB

     Dynamical RAM for                hpsi:       0.09 MB

     Dynamical RAM for                spsi:       0.09 MB

     Dynamical RAM for      wfcinit/wfcrot:       0.10 MB

     Dynamical RAM for           addusdens:       3.26 MB

     Estimated static dynamical RAM per process >       9.04 MB

     Estimated max dynamical RAM per process >      12.85 MB

     Estimated total dynamical RAM >     256.99 MB

     Check: negative core charge=   -0.000045
     Generating pointlists ...
     new r_m :   0.4125 (alat units)  1.9020 (a.u.) for type    1

     The initial density is read from file :
     ./out/Co.save/charge-density


     starting charge      32.4369, renormalised to      34.0000

     negative rho (up, down):  1.826E+00 1.465E+00
     Starting wfcs from file
     Checking if some PAW data can be deallocated... 

     total cpu time spent up to now is        2.4 secs

     Self-consistent Calculation

     iteration #  1     ecut=   110.00 Ry     beta= 0.70
     Davidson diagonalization with overlap

---- Real-time Memory Report at c_bands before calling an iterative solver
            56 MiB given to the printing process from OS
             0 MiB allocation reported by mallinfo(arena+hblkhd)
        240966 MiB available memory on the node where the printing process lives
------------------
     c_bands:  4 eigenvalues not converged
     c_bands:  5 eigenvalues not converged
     c_bands:  3 eigenvalues not converged
     c_bands:  4 eigenvalues not converged
     c_bands:  3 eigenvalues not converged
     c_bands:  5 eigenvalues not converged
     c_bands:  3 eigenvalues not converged
     c_bands:  5 eigenvalues not converged
     c_bands:  1 eigenvalues not converged
     c_bands:  1 eigenvalues not converged
     c_bands:  1 eigenvalues not converged
     c_bands:  3 eigenvalues not converged
     c_bands:  5 eigenvalues not converged
     c_bands:  5 eigenvalues not converged
     c_bands:  1 eigenvalues not converged
     c_bands:  1 eigenvalues not converged
     c_bands:  1 eigenvalues not converged
     c_bands:  1 eigenvalues not converged
     c_bands:  1 eigenvalues not converged
     c_bands:  4 eigenvalues not converged
     c_bands:  4 eigenvalues not converged
     c_bands:  3 eigenvalues not converged
     c_bands:  3 eigenvalues not converged
     c_bands:  2 eigenvalues not converged
     c_bands:  4 eigenvalues not converged
     c_bands:  1 eigenvalues not converged
     c_bands:  1 eigenvalues not converged
     c_bands:  1 eigenvalues not converged
     c_bands:  2 eigenvalues not converged
     c_bands:  1 eigenvalues not converged
     c_bands:  3 eigenvalues not converged
     c_bands:  4 eigenvalues not converged
     c_bands:  4 eigenvalues not converged
     c_bands:  5 eigenvalues not converged
     c_bands:  1 eigenvalues not converged
     c_bands:  1 eigenvalues not converged
     c_bands:  1 eigenvalues not converged
     c_bands:  1 eigenvalues not converged
     c_bands:  1 eigenvalues not converged
     ethr =  1.00E-05,  avg # of iterations = 29.9

     negative rho (up, down):  7.685E-02 3.525E-02

     total cpu time spent up to now is       15.7 secs

     total energy              =    -751.65439857 Ry
     estimated scf accuracy    <       3.70499081 Ry

     total magnetization       =     2.68 Bohr mag/cell
     absolute magnetization    =     2.91 Bohr mag/cell

     iteration #  2     ecut=   110.00 Ry     beta= 0.70
     Davidson diagonalization with overlap

---- Real-time Memory Report at c_bands before calling an iterative solver
            76 MiB given to the printing process from OS
             0 MiB allocation reported by mallinfo(arena+hblkhd)
        240774 MiB available memory on the node where the printing process lives
------------------
     ethr =  1.00E-02,  avg # of iterations =  4.9

     negative rho (up, down):  4.372E-02 1.772E-02

     total cpu time spent up to now is       18.1 secs

     total energy              =    -751.72590584 Ry
     estimated scf accuracy    <       9.23120733 Ry

     total magnetization       =     2.16 Bohr mag/cell
     absolute magnetization    =     2.30 Bohr mag/cell

     iteration #  3     ecut=   110.00 Ry     beta= 0.70
     Davidson diagonalization with overlap

---- Real-time Memory Report at c_bands before calling an iterative solver
            77 MiB given to the printing process from OS
             0 MiB allocation reported by mallinfo(arena+hblkhd)
        240763 MiB available memory on the node where the printing process lives
------------------
     ethr =  1.00E-02,  avg # of iterations =  3.6

     total cpu time spent up to now is       19.9 secs

     total energy              =    -753.25232897 Ry
     estimated scf accuracy    <       0.18115215 Ry

     total magnetization       =     2.97 Bohr mag/cell
     absolute magnetization    =     3.23 Bohr mag/cell

     iteration #  4     ecut=   110.00 Ry     beta= 0.70
     Davidson diagonalization with overlap

---- Real-time Memory Report at c_bands before calling an iterative solver
            77 MiB given to the printing process from OS
             0 MiB allocation reported by mallinfo(arena+hblkhd)
        240754 MiB available memory on the node where the printing process lives
------------------
     ethr =  5.33E-04,  avg # of iterations =  5.8

     total cpu time spent up to now is       22.5 secs

     total energy              =    -753.38921306 Ry
     estimated scf accuracy    <       0.40759421 Ry

     total magnetization       =     3.07 Bohr mag/cell
     absolute magnetization    =     3.35 Bohr mag/cell

     iteration #  5     ecut=   110.00 Ry     beta= 0.70
     Davidson diagonalization with overlap

---- Real-time Memory Report at c_bands before calling an iterative solver
            78 MiB given to the printing process from OS
             0 MiB allocation reported by mallinfo(arena+hblkhd)
        240744 MiB available memory on the node where the printing process lives
------------------
     ethr =  5.33E-04,  avg # of iterations =  3.6

     total cpu time spent up to now is       24.2 secs

     total energy              =    -753.44227514 Ry
     estimated scf accuracy    <       0.00811384 Ry

     total magnetization       =     3.06 Bohr mag/cell
     absolute magnetization    =     3.31 Bohr mag/cell

     iteration #  6     ecut=   110.00 Ry     beta= 0.70
     Davidson diagonalization with overlap

---- Real-time Memory Report at c_bands before calling an iterative solver
            79 MiB given to the printing process from OS
             0 MiB allocation reported by mallinfo(arena+hblkhd)
        240738 MiB available memory on the node where the printing process lives
------------------
     ethr =  2.39E-05,  avg # of iterations =  6.1

     total cpu time spent up to now is       26.9 secs

     total energy              =    -753.45141153 Ry
     estimated scf accuracy    <       0.01079499 Ry

     total magnetization       =     3.06 Bohr mag/cell
     absolute magnetization    =     3.35 Bohr mag/cell

     iteration #  7     ecut=   110.00 Ry     beta= 0.70
     Davidson diagonalization with overlap

---- Real-time Memory Report at c_bands before calling an iterative solver
            79 MiB given to the printing process from OS
             0 MiB allocation reported by mallinfo(arena+hblkhd)
        240729 MiB available memory on the node where the printing process lives
------------------
     ethr =  2.39E-05,  avg # of iterations =  1.9

     total cpu time spent up to now is       28.3 secs

     total energy              =    -753.45200774 Ry
     estimated scf accuracy    <       0.00107709 Ry

     total magnetization       =     3.09 Bohr mag/cell
     absolute magnetization    =     3.38 Bohr mag/cell

     iteration #  8     ecut=   110.00 Ry     beta= 0.70
     Davidson diagonalization with overlap

---- Real-time Memory Report at c_bands before calling an iterative solver
            80 MiB given to the printing process from OS
             0 MiB allocation reported by mallinfo(arena+hblkhd)
        240722 MiB available memory on the node where the printing process lives
------------------
     ethr =  3.17E-06,  avg # of iterations =  5.9

     total cpu time spent up to now is       30.8 secs

     total energy              =    -753.45306180 Ry
     estimated scf accuracy    <       0.00127842 Ry

     total magnetization       =     3.14 Bohr mag/cell
     absolute magnetization    =     3.44 Bohr mag/cell

     iteration #  9     ecut=   110.00 Ry     beta= 0.70
     Davidson diagonalization with overlap

---- Real-time Memory Report at c_bands before calling an iterative solver
            81 MiB given to the printing process from OS
             0 MiB allocation reported by mallinfo(arena+hblkhd)
        240714 MiB available memory on the node where the printing process lives
------------------
     ethr =  3.17E-06,  avg # of iterations =  1.3

     total cpu time spent up to now is       32.2 secs

     total energy              =    -753.45279695 Ry
     estimated scf accuracy    <       0.00107413 Ry

     total magnetization       =     3.14 Bohr mag/cell
     absolute magnetization    =     3.44 Bohr mag/cell

     iteration # 10     ecut=   110.00 Ry     beta= 0.70
     Davidson diagonalization with overlap

---- Real-time Memory Report at c_bands before calling an iterative solver
            82 MiB given to the printing process from OS
             0 MiB allocation reported by mallinfo(arena+hblkhd)
        240710 MiB available memory on the node where the printing process lives
------------------
     ethr =  3.16E-06,  avg # of iterations =  1.4

     total cpu time spent up to now is       33.5 secs

     total energy              =    -753.45278282 Ry
     estimated scf accuracy    <       0.00020980 Ry

     total magnetization       =     3.14 Bohr mag/cell
     absolute magnetization    =     3.44 Bohr mag/cell

     iteration # 11     ecut=   110.00 Ry     beta= 0.70
     Davidson diagonalization with overlap

---- Real-time Memory Report at c_bands before calling an iterative solver
            82 MiB given to the printing process from OS
             0 MiB allocation reported by mallinfo(arena+hblkhd)
        240706 MiB available memory on the node where the printing process lives
------------------
     ethr =  6.17E-07,  avg # of iterations =  4.6

     total cpu time spent up to now is       35.6 secs

     total energy              =    -753.45289044 Ry
     estimated scf accuracy    <       0.00003814 Ry

     total magnetization       =     3.14 Bohr mag/cell
     absolute magnetization    =     3.44 Bohr mag/cell

     iteration # 12     ecut=   110.00 Ry     beta= 0.70
     Davidson diagonalization with overlap

---- Real-time Memory Report at c_bands before calling an iterative solver
            83 MiB given to the printing process from OS
             0 MiB allocation reported by mallinfo(arena+hblkhd)
        240703 MiB available memory on the node where the printing process lives
------------------
     ethr =  1.12E-07,  avg # of iterations =  4.3

     total cpu time spent up to now is       37.4 secs

     total energy              =    -753.45289004 Ry
     estimated scf accuracy    <       0.00003026 Ry

     total magnetization       =     3.14 Bohr mag/cell
     absolute magnetization    =     3.45 Bohr mag/cell

     iteration # 13     ecut=   110.00 Ry     beta= 0.70
     Davidson diagonalization with overlap

---- Real-time Memory Report at c_bands before calling an iterative solver
            83 MiB given to the printing process from OS
             0 MiB allocation reported by mallinfo(arena+hblkhd)
        240703 MiB available memory on the node where the printing process lives
------------------
     ethr =  8.90E-08,  avg # of iterations =  2.5

     total cpu time spent up to now is       38.9 secs

     total energy              =    -753.45289304 Ry
     estimated scf accuracy    <       0.00000415 Ry

     total magnetization       =     3.14 Bohr mag/cell
     absolute magnetization    =     3.45 Bohr mag/cell

     iteration # 14     ecut=   110.00 Ry     beta= 0.70
     Davidson diagonalization with overlap

---- Real-time Memory Report at c_bands before calling an iterative solver
            83 MiB given to the printing process from OS
             0 MiB allocation reported by mallinfo(arena+hblkhd)
        240700 MiB available memory on the node where the printing process lives
------------------
     ethr =  1.22E-08,  avg # of iterations =  6.5
 
     Magnetic moment per site  (integrated on atomic sphere of radius R)
     atom   1 (R=0.413)  charge= 15.5546  magn=  1.6417
     atom   2 (R=0.413)  charge= 15.5546  magn=  1.6417

     total cpu time spent up to now is       41.3 secs

     End of self-consistent calculation

 ------ SPIN UP ------------


          k = 0.0000 0.0000 0.0000 (  2743 PWs)   bands (ev):

   -76.4033 -76.3401 -39.8163 -39.4837 -39.4837 -39.4512 -39.4343 -39.4343
    10.4494  14.3019  16.9240  17.0609  17.0609  17.3763  17.3763  17.8357
    17.8357  18.9439  18.9439  19.2241  26.1387

     occupation numbers 
     1.0000   1.0000   1.0000   1.0000   1.0000   1.0000   1.0000   1.0000
     1.0000   1.0000   1.0000   1.0000   1.0000   1.0000   1.0000   1.0000
     1.0000   1.0000   1.0000   1.0000   0.0000

          k = 0.0000 0.0000 0.1010 (  2755 PWs)   bands (ev):

   -76.3991 -76.3443 -39.7921 -39.4804 -39.4804 -39.4761 -39.4377 -39.4377
    10.7282  14.2231  16.8529  17.0066  17.0066  17.3066  17.3066  17.9889
    17.9889  18.3170  18.9230  18.9230  27.6161

     occupation numbers 
     1.0000   1.0000   1.0000   1.0000   1.0000   1.0000   1.0000   1.0000
     1.0000   1.0000   1.0000   1.0000   1.0000   1.0000   1.0000   1.0000
     1.0000   1.0000   1.0000   1.0000   0.0000

          k = 0.0000 0.0000 0.2021 (  2738 PWs)   bands (ev):

   -76.3876 -76.3559 -39.7260 -39.5435 -39.4714 -39.4714 -39.4467 -39.4467
    11.5265  13.7615  16.6893  16.9594  16.9594  17.0489  17.1513  17.1513
    18.3044  18.3044  18.8264  18.8264  30.7896

     occupation numbers 
     1.0000   1.0000   1.0000   1.0000   1.0000   1.0000   1.0000   1.0000
     1.0000   1.0000   1.0000   1.0000   1.0000   1.0000   1.0000   1.0000
     1.0000   1.0000   1.0000   1.0000   0.0000

          k = 0.0000 0.0000-0.3031 (  2750 PWs)   bands (ev):

   -76.3718 -76.3718 -39.6351 -39.6351 -39.4590 -39.4590 -39.4590 -39.4590
    12.6870  12.6870  16.6113  16.6113  17.0114  17.0114  17.0114  17.0114
    18.6133  18.6133  18.6133  18.6133  34.5975

     occupation numbers 
     1.0000   1.0000   1.0000   1.0000   1.0000   1.0000   1.0000   1.0000
     1.0000   1.0000   1.0000   1.0000   1.0000   1.0000   1.0000   1.0000
     1.0000   1.0000   1.0000   1.0000   0.0000

          k = 0.0000 0.0962 0.0000 (  2743 PWs)   bands (ev):

   -76.3993 -76.3380 -39.8080 -39.5034 -39.4899 -39.4546 -39.4542 -39.4378
    10.7031  14.4615  16.7717  17.1765  17.1853  17.3180  17.4877  17.6246
    17.7594  17.9989  18.9741  20.5397  26.1752

     occupation numbers 
     1.0000   1.0000   1.0000   1.0000   1.0000   1.0000   1.0000   1.0000
     1.0000   1.0000   1.0000   1.0000   1.0000   1.0000   1.0000   1.0000
     1.0000   1.0000   1.0000   0.0000   0.0000

          k = 0.0000 0.0962 0.1010 (  2733 PWs)   bands (ev):

   -76.3952 -76.3421 -39.7852 -39.4996 -39.4864 -39.4846 -39.4514 -39.4412
    10.9774  14.3972  16.7705  17.0147  17.1166  17.1219  17.4125  17.6418
    17.9370  17.9845  18.9456  19.8418  27.7241

     occupation numbers 
     1.0000   1.0000   1.0000   1.0000   1.0000   1.0000   1.0000   1.0000
     1.0000   1.0000   1.0000   1.0000   1.0000   1.0000   1.0000   1.0000
     1.0000   1.0000   1.0000   0.0000   0.0000

          k = 0.0000 0.0962 0.2021 (  2740 PWs)   bands (ev):

   -76.3840 -76.3534 -39.7227 -39.5499 -39.4889 -39.4769 -39.4606 -39.4508
    11.7625  13.9620  16.6381  16.6802  16.8673  17.0614  17.2552  17.2646
    18.2738  18.3160  18.8315  19.1258  30.9475

     occupation numbers 
     1.0000   1.0000   1.0000   1.0000   1.0000   1.0000   1.0000   1.0000
     1.0000   1.0000   1.0000   1.0000   1.0000   1.0000   1.0000   1.0000
     1.0000   1.0000   1.0000   1.0000   0.0000

          k = 0.0000 0.0962-0.3031 (  2762 PWs)   bands (ev):

   -76.3687 -76.3687 -39.6367 -39.6367 -39.4746 -39.4746 -39.4639 -39.4639
    12.9043  12.9043  16.4828  16.4828  16.9986  16.9986  17.1138  17.1138
    18.5996  18.5996  18.7048  18.7048  34.7743

     occupation numbers 
     1.0000   1.0000   1.0000   1.0000   1.0000   1.0000   1.0000   1.0000
     1.0000   1.0000   1.0000   1.0000   1.0000   1.0000   1.0000   1.0000
     1.0000   1.0000   1.0000   1.0000   0.0000

          k = 0.0000 0.1925 0.0000 (  2743 PWs)   bands (ev):

   -76.3882 -76.3324 -39.7845 -39.5572 -39.5093 -39.5064 -39.4633 -39.4474
    11.4349  14.8566  16.5007  16.7518  17.1054  17.4981  17.5367  17.5715
    17.7025  17.8005  19.0368  22.2012  26.3065

     occupation numbers 
     1.0000   1.0000   1.0000   1.0000   1.0000   1.0000   1.0000   1.0000
     1.0000   1.0000   1.0000   1.0000   1.0000   1.0000   1.0000   1.0000
     1.0000   1.0000   1.0000   0.0000   0.0000

          k = 0.0000 0.1925 0.1010 (  2731 PWs)   bands (ev):

   -76.3844 -76.3362 -39.7661 -39.5517 -39.5267 -39.5025 -39.4702 -39.4514
    11.6922  14.8369  16.4671  16.5457  16.9838  17.3684  17.3786  17.6895
    17.8923  17.9602  18.9917  21.1083  28.0780

     occupation numbers 
     1.0000   1.0000   1.0000   1.0000   1.0000   1.0000   1.0000   1.0000
     1.0000   1.0000   1.0000   1.0000   1.0000   1.0000   1.0000   1.0000
     1.0000   1.0000   1.0000   0.0000   0.0000

          k = 0.0000 0.1925 0.2021 (  2728 PWs)   bands (ev):

   -76.3743 -76.3464 -39.7159 -39.5784 -39.5335 -39.4917 -39.4879 -39.4622
    12.4255  14.4793  16.1268  16.6127  16.6844  17.1991  17.3144  17.5427
    18.2358  18.3893  18.8414  19.7798  31.4208

     occupation numbers 
     1.0000   1.0000   1.0000   1.0000   1.0000   1.0000   1.0000   1.0000
     1.0000   1.0000   1.0000   1.0000   1.0000   1.0000   1.0000   1.0000
     1.0000   1.0000   1.0000   0.0000   0.0000

          k = 0.0000 0.1925-0.3031 (  2742 PWs)   bands (ev):

   -76.3603 -76.3603 -39.6471 -39.6471 -39.5110 -39.5110 -39.4769 -39.4769
    13.4871  13.4871  16.2579  16.2579  16.9159  16.9159  17.3875  17.3875
    18.5778  18.5778  18.9522  18.9522  35.2662

     occupation numbers 
     1.0000   1.0000   1.0000   1.0000   1.0000   1.0000   1.0000   1.0000
     1.0000   1.0000   1.0000   1.0000   1.0000   1.0000   1.0000   1.0000
     1.0000   1.0000   1.0000   1.0000   0.0000

          k = 0.0000 0.2887 0.0000 (  2729 PWs)   bands (ev):

   -76.3724 -76.3253 -39.7493 -39.6314 -39.5829 -39.5284 -39.4786 -39.4611
    12.5362  15.1681  15.9840  16.3392  16.9829  17.3458  17.4736  17.9695
    18.0475  18.2503  19.0934  24.0548  26.5680

     occupation numbers 
     1.0000   1.0000   1.0000   1.0000   1.0000   1.0000   1.0000   1.0000
     1.0000   1.0000   1.0000   1.0000   1.0000   1.0000   1.0000   1.0000
     1.0000   1.0000   1.0000   0.0000   0.0000

          k = 0.0000 0.2887 0.1010 (  2730 PWs)   bands (ev):

   -76.3692 -76.3285 -39.7419 -39.6200 -39.5957 -39.5239 -39.4848 -39.4656
    12.7475  15.2019  15.8388  16.3968  16.8332  17.3858  17.4560  18.0895
    18.1160  18.2102  19.0343  22.4229  28.7231

     occupation numbers 
     1.0000   1.0000   1.0000   1.0000   1.0000   1.0000   1.0000   1.0000
     1.0000   1.0000   1.0000   1.0000   1.0000   1.0000   1.0000   1.0000
     1.0000   1.0000   1.0000   0.0000   0.0000

          k = 0.0000 0.2887 0.2021 (  2720 PWs)   bands (ev):

   -76.3606 -76.3371 -39.7187 -39.6381 -39.5805 -39.5116 -39.5055 -39.4780
    13.3361  14.9290  15.7832  16.4073  16.7205  17.2837  17.5107  17.9461
    18.3627  18.5430  18.8657  20.5642  32.1088

     occupation numbers 
     1.0000   1.0000   1.0000   1.0000   1.0000   1.0000   1.0000   1.0000
     1.0000   1.0000   1.0000   1.0000   1.0000   1.0000   1.0000   1.0000
     1.0000   1.0000   1.0000   0.0000   0.0000

          k = 0.0000 0.2887-0.3031 (  2716 PWs)   bands (ev):

   -76.3489 -76.3489 -39.6813 -39.6813 -39.5403 -39.5403 -39.4948 -39.4948
    14.1542  14.1542  16.0914  16.0914  16.9816  16.9816  17.7128  17.7128
    18.6212  18.6212  19.3008  19.3008  34.6645

     occupation numbers 
     1.0000   1.0000   1.0000   1.0000   1.0000   1.0000   1.0000   1.0000
     1.0000   1.0000   1.0000   1.0000   1.0000   1.0000   1.0000   1.0000
     1.0000   1.0000   1.0000   1.0000   0.0000

          k = 0.0000 0.3849 0.0000 (  2719 PWs)   bands (ev):

   -76.3556 -76.3193 -39.7084 -39.7061 -39.6551 -39.5499 -39.4997 -39.4752
    13.7226  15.0838  15.4362  16.4612  17.1189  17.1426  17.2584  18.5950
    18.7278  18.7371  19.1297  26.0661  26.6699

     occupation numbers 
     1.0000   1.0000   1.0000   1.0000   1.0000   1.0000   1.0000   1.0000
     1.0000   1.0000   1.0000   1.0000   1.0000   1.0000   1.0000   1.0000
     1.0000   1.0000   1.0000   0.0000   0.0000

          k = 0.0000 0.3849 0.1010 (  2721 PWs)   bands (ev):

   -76.3531 -76.3217 -39.7402 -39.6765 -39.6503 -39.5449 -39.5022 -39.4803
    13.8127  15.1007  15.4844  16.2910  17.0615  17.2384  17.6229  18.6059
    18.6474  18.6638  19.0790  23.6883  29.0245

     occupation numbers 
     1.0000   1.0000   1.0000   1.0000   1.0000   1.0000   1.0000   1.0000
     1.0000   1.0000   1.0000   1.0000   1.0000   1.0000   1.0000   1.0000
     1.0000   1.0000   1.0000   0.0000   0.0000

          k = 0.0000 0.3849 0.2021 (  2720 PWs)   bands (ev):

   -76.3465 -76.3283 -39.7499 -39.7054 -39.5976 -39.5313 -39.5163 -39.4940
    14.0743  14.9030  15.6440  16.1663  17.1972  17.5086  17.9566  18.3117
    18.7171  18.7851  18.9672  21.4598  30.3222

     occupation numbers 
     1.0000   1.0000   1.0000   1.0000   1.0000   1.0000   1.0000   1.0000
     1.0000   1.0000   1.0000   1.0000   1.0000   1.0000   1.0000   1.0000
     1.0000   1.0000   1.0000   0.0000   0.0000

          k = 0.0000 0.3849-0.3031 (  2728 PWs)   bands (ev):

   -76.3374 -76.3374 -39.7358 -39.7358 -39.5488 -39.5488 -39.5126 -39.5126
    14.4719  14.4719  15.9376  15.9376  17.6334  17.6334  17.8983  17.8983
    18.8378  18.8378  19.7858  19.7858  31.4350

     occupation numbers 
     1.0000   1.0000   1.0000   1.0000   1.0000   1.0000   1.0000   1.0000
     1.0000   1.0000   1.0000   1.0000   1.0000   1.0000   1.0000   1.0000
     1.0000   1.0000   0.0000   0.0000   0.0000

          k = 0.0000 0.4811 0.0000 (  2720 PWs)   bands (ev):

   -76.3419 -76.3161 -39.7610 -39.7071 -39.6707 -39.5653 -39.5228 -39.4858
    14.4796  14.8790  15.1105  16.8418  17.0037  17.1049  17.3502  19.0077
    19.1386  19.1477  19.9255  24.9877  28.1374

     occupation numbers 
     1.0000   1.0000   1.0000   1.0000   1.0000   1.0000   1.0000   1.0000
     1.0000   1.0000   1.0000   1.0000   1.0000   1.0000   1.0000   1.0000
     1.0000   1.0000   0.0000   0.0000   0.0000

          k = 0.0000 0.4811 0.1010 (  2727 PWs)   bands (ev):

   -76.3402 -76.3178 -39.7761 -39.7235 -39.6410 -39.5600 -39.5210 -39.4912
    14.3568  14.8584  15.4468  16.1731  17.1202  17.3645  18.0049  18.9035
    19.0334  19.1928  19.7512  24.0965  27.6693

     occupation numbers 
     1.0000   1.0000   1.0000   1.0000   1.0000   1.0000   1.0000   1.0000
     1.0000   1.0000   1.0000   1.0000   1.0000   1.0000   1.0000   1.0000
     1.0000   1.0000   0.0000   0.0000   0.0000

          k = 0.0000 0.4811 0.2021 (  2733 PWs)   bands (ev):

   -76.3355 -76.3226 -39.7896 -39.7555 -39.5906 -39.5455 -39.5255 -39.5058
    14.3102  14.7826  15.6274  15.9438  17.4504  17.6550  18.4677  19.0616
    19.0686  19.1693  19.3573  22.3094  27.8885

     occupation numbers 
     1.0000   1.0000   1.0000   1.0000   1.0000   1.0000   1.0000   1.0000
     1.0000   1.0000   1.0000   1.0000   1.0000   1.0000   1.0000   1.0000
     1.0000   1.0000   1.0000   0.0000   0.0000

          k = 0.0000 0.4811-0.3031 (  2724 PWs)   bands (ev):

   -76.3290 -76.3290 -39.7820 -39.7820 -39.5485 -39.5485 -39.5257 -39.5257
    14.4915  14.4915  15.7991  15.7991  17.9348  17.9348  18.4102  18.4102
    19.1205  19.1205  20.6200  20.6200  28.6619

     occupation numbers 
     1.0000   1.0000   1.0000   1.0000   1.0000   1.0000   1.0000   1.0000
     1.0000   1.0000   1.0000   1.0000   1.0000   1.0000   1.0000   1.0000
     1.0000   1.0000   0.0000   0.0000   0.0000

          k = 0.0000-0.5774 0.0000 (  2714 PWs)   bands (ev):

   -76.3363 -76.3156 -39.7812 -39.7260 -39.6532 -39.5710 -39.5350 -39.4897
    14.7078  14.7544  15.0027  16.9546  17.0494  17.1130  17.4273  19.1528
    19.1574  19.3012  21.1274  23.2607  29.4792

     occupation numbers 
     1.0000   1.0000   1.0000   1.0000   1.0000   1.0000   1.0000   1.0000
     1.0000   1.0000   1.0000   1.0000   1.0000   1.0000   1.0000   1.0000
     1.0000   1.0000   0.0000   0.0000   0.0000

          k = 0.0000-0.5774 0.1010 (  2734 PWs)   bands (ev):

   -76.3349 -76.3170 -39.7934 -39.7417 -39.6293 -39.5656 -39.5309 -39.4952
    14.4493  14.7556  15.4765  16.1447  17.0769  17.4543  18.2258  18.9521
    19.1895  19.2936  20.8839  23.0504  28.7048

     occupation numbers 
     1.0000   1.0000   1.0000   1.0000   1.0000   1.0000   1.0000   1.0000
     1.0000   1.0000   1.0000   1.0000   1.0000   1.0000   1.0000   1.0000
     1.0000   1.0000   0.0000   0.0000   0.0000

          k = 0.0000-0.5774 0.2021 (  2734 PWs)   bands (ev):

   -76.3311 -76.3208 -39.8062 -39.7739 -39.5846 -39.5507 -39.5302 -39.5101
    14.3242  14.7343  15.6601  15.8382  17.4243  17.8042  18.4968  19.1905
    19.2136  19.2725  20.4643  22.3671  27.7620

     occupation numbers 
     1.0000   1.0000   1.0000   1.0000   1.0000   1.0000   1.0000   1.0000
     1.0000   1.0000   1.0000   1.0000   1.0000   1.0000   1.0000   1.0000
     1.0000   1.0000   0.0000   0.0000   0.0000

          k = 0.0000-0.5774-0.3031 (  2724 PWs)   bands (ev):

   -76.3259 -76.3259 -39.7996 -39.7996 -39.5477 -39.5477 -39.5304 -39.5304
    14.4714  14.4714  15.7462  15.7462  17.9346  17.9346  18.6680  18.6680
    19.2434  19.2434  21.2762  21.2762  27.3842

     occupation numbers 
     1.0000   1.0000   1.0000   1.0000   1.0000   1.0000   1.0000   1.0000
     1.0000   1.0000   1.0000   1.0000   1.0000   1.0000   1.0000   1.0000
     1.0000   1.0000   0.0000   0.0000   0.0000

          k = 0.0833 0.1443 0.0000 (  2731 PWs)   bands (ev):

   -76.3917 -76.3342 -39.7921 -39.5369 -39.5112 -39.4829 -39.4602 -39.4468
    11.1968  14.7456  16.5587  17.0147  17.1974  17.3276  17.4393  17.5241
    17.7309  17.8513  19.0081  21.7388  26.2612

     occupation numbers 
     1.0000   1.0000   1.0000   1.0000   1.0000   1.0000   1.0000   1.0000
     1.0000   1.0000   1.0000   1.0000   1.0000   1.0000   1.0000   1.0000
     1.0000   1.0000   1.0000   0.0000   0.0000

          k = 0.0833 0.1443 0.1010 (  2728 PWs)   bands (ev):

   -76.3879 -76.3380 -39.7722 -39.5318 -39.5171 -39.4950 -39.4641 -39.4506
    11.4605  14.7114  16.5907  16.6661  17.0373  17.2911  17.3659  17.5983
    17.9003  17.9766  18.9711  20.7646  27.9572

     occupation numbers 
     1.0000   1.0000   1.0000   1.0000   1.0000   1.0000   1.0000   1.0000
     1.0000   1.0000   1.0000   1.0000   1.0000   1.0000   1.0000   1.0000
     1.0000   1.0000   1.0000   0.0000   0.0000

          k = 0.0833 0.1443 0.2021 (  2733 PWs)   bands (ev):

   -76.3774 -76.3486 -39.7175 -39.5673 -39.5180 -39.4931 -39.4750 -39.4607
    12.2140  14.3282  16.2548  16.6538  16.7051  17.1886  17.2624  17.4557
    18.2686  18.3388  18.8399  19.5906  31.2658

     occupation numbers 
     1.0000   1.0000   1.0000   1.0000   1.0000   1.0000   1.0000   1.0000
     1.0000   1.0000   1.0000   1.0000   1.0000   1.0000   1.0000   1.0000
     1.0000   1.0000   1.0000   1.0000   0.0000

          k = 0.0833 0.1443-0.3031 (  2746 PWs)   bands (ev):

   -76.3630 -76.3630 -39.6425 -39.6425 -39.5002 -39.5002 -39.4735 -39.4735
    13.3083  13.3083  16.3171  16.3171  16.9201  16.9201  17.3148  17.3148
    18.5841  18.5841  18.8755  18.8755  35.1165

     occupation numbers 
     1.0000   1.0000   1.0000   1.0000   1.0000   1.0000   1.0000   1.0000
     1.0000   1.0000   1.0000   1.0000   1.0000   1.0000   1.0000   1.0000
     1.0000   1.0000   1.0000   1.0000   0.0000

          k = 0.0833 0.2406 0.0000 (  2727 PWs)   bands (ev):

   -76.3783 -76.3279 -39.7627 -39.5963 -39.5648 -39.5135 -39.4725 -39.4622
    12.1231  15.1513  16.2630  16.2760  17.0441  17.2701  17.6100  17.6954
    17.9031  18.1887  19.0477  23.3887  26.4799

     occupation numbers 
     1.0000   1.0000   1.0000   1.0000   1.0000   1.0000   1.0000   1.0000
     1.0000   1.0000   1.0000   1.0000   1.0000   1.0000   1.0000   1.0000
     1.0000   1.0000   1.0000   0.0000   0.0000

          k = 0.0833 0.2406 0.1010 (  2732 PWs)   bands (ev):

   -76.3749 -76.3312 -39.7498 -39.5887 -39.5739 -39.5163 -39.4775 -39.4660
    12.3575  15.1770  16.0455  16.3310  16.9359  17.2250  17.5098  17.8008
    18.1012  18.1650  19.0056  21.9732  28.4790

     occupation numbers 
     1.0000   1.0000   1.0000   1.0000   1.0000   1.0000   1.0000   1.0000
     1.0000   1.0000   1.0000   1.0000   1.0000   1.0000   1.0000   1.0000
     1.0000   1.0000   1.0000   0.0000   0.0000

          k = 0.0833 0.2406 0.2021 (  2733 PWs)   bands (ev):

   -76.3657 -76.3405 -39.7141 -39.6129 -39.5618 -39.5162 -39.4911 -39.4768
    13.0198  14.8724  15.8722  16.4496  16.6415  17.0885  17.4793  17.8075
    18.3560  18.4615  18.8747  20.2944  31.8925

     occupation numbers 
     1.0000   1.0000   1.0000   1.0000   1.0000   1.0000   1.0000   1.0000
     1.0000   1.0000   1.0000   1.0000   1.0000   1.0000   1.0000   1.0000
     1.0000   1.0000   1.0000   0.0000   0.0000

          k = 0.0833 0.2406-0.3031 (  2726 PWs)   bands (ev):

   -76.3531 -76.3531 -39.6641 -39.6641 -39.5324 -39.5324 -39.4902 -39.4902
    13.9650  13.9650  16.1596  16.1596  16.7990  16.7990  17.6265  17.6265
    18.6268  18.6268  19.1772  19.1772  35.6270

     occupation numbers 
     1.0000   1.0000   1.0000   1.0000   1.0000   1.0000   1.0000   1.0000
     1.0000   1.0000   1.0000   1.0000   1.0000   1.0000   1.0000   1.0000
     1.0000   1.0000   1.0000   1.0000   0.0000

          k = 0.0833 0.3368 0.0000 (  2733 PWs)   bands (ev):

   -76.3619 -76.3213 -39.7244 -39.6690 -39.6288 -39.5430 -39.4910 -39.4790
    13.3081  15.2732  15.6637  16.2160  17.0387  17.0602  17.4680  18.0677
    18.4539  18.8074  19.0795  25.2818  26.8259

     occupation numbers 
     1.0000   1.0000   1.0000   1.0000   1.0000   1.0000   1.0000   1.0000
     1.0000   1.0000   1.0000   1.0000   1.0000   1.0000   1.0000   1.0000
     1.0000   1.0000   1.0000   0.0000   0.0000

          k = 0.0833 0.3368 0.1010 (  2724 PWs)   bands (ev):

   -76.3592 -76.3240 -39.7316 -39.6533 -39.6315 -39.5419 -39.4951 -39.4818
    13.4669  15.3270  15.5761  16.2646  16.8389  17.2947  17.4251  18.1124
    18.5414  18.6581  19.0941  23.2673  29.2508

     occupation numbers 
     1.0000   1.0000   1.0000   1.0000   1.0000   1.0000   1.0000   1.0000
     1.0000   1.0000   1.0000   1.0000   1.0000   1.0000   1.0000   1.0000
     1.0000   1.0000   1.0000   0.0000   0.0000

          k = 0.0833 0.3368 0.2021 (  2724 PWs)   bands (ev):

   -76.3518 -76.3315 -39.7298 -39.6762 -39.5927 -39.5362 -39.5083 -39.4922
    13.8985  15.0524  15.7115  16.3147  16.7602  17.2725  17.5377  18.1565
    18.5923  18.7705  19.0612  21.1629  31.9391

     occupation numbers 
     1.0000   1.0000   1.0000   1.0000   1.0000   1.0000   1.0000   1.0000
     1.0000   1.0000   1.0000   1.0000   1.0000   1.0000   1.0000   1.0000
     1.0000   1.0000   1.0000   0.0000   0.0000

          k = 0.0833 0.3368-0.3031 (  2724 PWs)   bands (ev):

   -76.3416 -76.3416 -39.7089 -39.7089 -39.5508 -39.5508 -39.5081 -39.5081
    14.4816  14.4816  16.0596  16.0596  16.9990  16.9990  17.8303  17.8303
    18.8527  18.8527  19.6448  19.6448  33.1814

     occupation numbers 
     1.0000   1.0000   1.0000   1.0000   1.0000   1.0000   1.0000   1.0000
     1.0000   1.0000   1.0000   1.0000   1.0000   1.0000   1.0000   1.0000
     1.0000   1.0000   1.0000   1.0000   0.0000

          k = 0.0833 0.4330 0.0000 (  2729 PWs)   bands (ev):

   -76.3465 -76.3169 -39.7330 -39.6841 -39.6840 -39.5670 -39.5142 -39.4933
    14.3316  15.0757  15.2611  16.4651  16.9324  17.2331  17.2532  18.6490
    18.9219  19.0974  19.6584  26.2902  27.3321

     occupation numbers 
     1.0000   1.0000   1.0000   1.0000   1.0000   1.0000   1.0000   1.0000
     1.0000   1.0000   1.0000   1.0000   1.0000   1.0000   1.0000   1.0000
     1.0000   1.0000   0.9993   0.0000   0.0000

          k = 0.0833 0.4330 0.1010 (  2725 PWs)   bands (ev):

   -76.3445 -76.3189 -39.7528 -39.7020 -39.6465 -39.5631 -39.5155 -39.4957
    14.3101  15.0822  15.4365  16.1885  17.0065  17.3326  17.5794  18.6009
    18.9088  18.9832  19.6547  24.3805  28.2558

     occupation numbers 
     1.0000   1.0000   1.0000   1.0000   1.0000   1.0000   1.0000   1.0000
     1.0000   1.0000   1.0000   1.0000   1.0000   1.0000   1.0000   1.0000
     1.0000   1.0000   0.9998   0.0000   0.0000

          k = 0.0833 0.4330 0.2021 (  2731 PWs)   bands (ev):

   -76.3391 -76.3243 -39.7669 -39.7321 -39.5968 -39.5509 -39.5255 -39.5034
    14.3741  14.9446  15.6357  16.1156  17.1138  17.5767  18.0050  18.3490
    18.7824  19.1376  19.7049  22.2027  29.0256

     occupation numbers 
     1.0000   1.0000   1.0000   1.0000   1.0000   1.0000   1.0000   1.0000
     1.0000   1.0000   1.0000   1.0000   1.0000   1.0000   1.0000   1.0000
     1.0000   1.0000   0.0492   0.0000   0.0000

          k = 0.0833 0.4330-0.3031 (  2726 PWs)   bands (ev):

   -76.3317 -76.3317 -39.7584 -39.7584 -39.5588 -39.5588 -39.5205 -39.5205
    14.6119  14.6119  15.9207  15.9207  17.5694  17.5694  17.9983  17.9983
    19.0814  19.0814  20.5171  20.5171  30.0574

     occupation numbers 
     1.0000   1.0000   1.0000   1.0000   1.0000   1.0000   1.0000   1.0000
     1.0000   1.0000   1.0000   1.0000   1.0000   1.0000   1.0000   1.0000
     1.0000   1.0000   0.0000   0.0000   0.0000

          k = 0.0833 0.5292 0.0000 (  2729 PWs)   bands (ev):

   -76.3363 -76.3156 -39.7702 -39.7159 -39.6535 -39.5805 -39.5348 -39.5017
    14.7660  14.9064  15.0606  16.8582  16.9019  17.0595  17.4250  19.0766
    19.1043  19.1641  20.9797  24.0509  29.2863

     occupation numbers 
     1.0000   1.0000   1.0000   1.0000   1.0000   1.0000   1.0000   1.0000
     1.0000   1.0000   1.0000   1.0000   1.0000   1.0000   1.0000   1.0000
     1.0000   1.0000   0.0000   0.0000   0.0000

          k = 0.0833 0.5292 0.1010 (  2728 PWs)   bands (ev):

   -76.3349 -76.3170 -39.7825 -39.7320 -39.6313 -39.5733 -39.5331 -39.5043
    14.5390  14.8984  15.5213  16.1292  16.9454  17.5136  17.8736  18.8886
    19.0879  19.1941  20.8947  23.7380  28.1467

     occupation numbers 
     1.0000   1.0000   1.0000   1.0000   1.0000   1.0000   1.0000   1.0000
     1.0000   1.0000   1.0000   1.0000   1.0000   1.0000   1.0000   1.0000
     1.0000   1.0000   0.0000   0.0000   0.0000

          k = 0.0833 0.5292 0.2021 (  2724 PWs)   bands (ev):

   -76.3311 -76.3208 -39.7954 -39.7639 -39.5938 -39.5532 -39.5398 -39.5100
    14.4367  14.8714  15.6698  15.9582  17.1203  17.8883  18.3096  18.6033
    19.0465  19.2562  20.8948  22.7931  27.5171

     occupation numbers 
     1.0000   1.0000   1.0000   1.0000   1.0000   1.0000   1.0000   1.0000
     1.0000   1.0000   1.0000   1.0000   1.0000   1.0000   1.0000   1.0000
     1.0000   1.0000   0.0000   0.0000   0.0000

          k = 0.0833 0.5292-0.3031 (  2730 PWs)   bands (ev):

   -76.3259 -76.3259 -39.7893 -39.7893 -39.5636 -39.5636 -39.5251 -39.5251
    14.5937  14.5937  15.8268  15.8268  17.6896  17.6896  18.4506  18.4506
    19.1254  19.1254  21.6258  21.6258  27.8053

     occupation numbers 
     1.0000   1.0000   1.0000   1.0000   1.0000   1.0000   1.0000   1.0000
     1.0000   1.0000   1.0000   1.0000   1.0000   1.0000   1.0000   1.0000
     1.0000   1.0000   0.0000   0.0000   0.0000

          k = 0.1667 0.2887 0.0000 (  2722 PWs)   bands (ev):

   -76.3642 -76.3221 -39.7299 -39.6403 -39.6308 -39.5358 -39.4886 -39.4881
    13.1626  15.4831  15.7848  15.9587  16.9747  17.0469  17.5845  17.7895
    18.4386  18.8355  19.0331  25.0182  26.8673

     occupation numbers 
     1.0000   1.0000   1.0000   1.0000   1.0000   1.0000   1.0000   1.0000
     1.0000   1.0000   1.0000   1.0000   1.0000   1.0000   1.0000   1.0000
     1.0000   1.0000   1.0000   0.0000   0.0000

          k = 0.1667 0.2887 0.1010 (  2723 PWs)   bands (ev):

   -76.3614 -76.3249 -39.7301 -39.6384 -39.6223 -39.5422 -39.4928 -39.4877
    13.3450  15.5787  15.6323  16.0153  16.9136  17.0566  17.4736  17.9127
    18.5580  18.6460  19.1071  23.1302  29.2265

     occupation numbers 
     1.0000   1.0000   1.0000   1.0000   1.0000   1.0000   1.0000   1.0000
     1.0000   1.0000   1.0000   1.0000   1.0000   1.0000   1.0000   1.0000
     1.0000   1.0000   1.0000   0.0000   0.0000

          k = 0.1667 0.2887 0.2021 (  2727 PWs)   bands (ev):

   -76.3537 -76.3326 -39.7210 -39.6634 -39.5843 -39.5467 -39.5027 -39.4958
    13.8452  15.1807  15.8410  16.1758  16.6953  16.9185  17.4835  18.0887
    18.5917  18.7640  19.1406  21.0899  32.6253

     occupation numbers 
     1.0000   1.0000   1.0000   1.0000   1.0000   1.0000   1.0000   1.0000
     1.0000   1.0000   1.0000   1.0000   1.0000   1.0000   1.0000   1.0000
     1.0000   1.0000   1.0000   0.0000   0.0000

          k = 0.1667 0.2887-0.3031 (  2730 PWs)   bands (ev):

   -76.3432 -76.3432 -39.6963 -39.6963 -39.5527 -39.5527 -39.5080 -39.5080
    14.5240  14.5240  16.1692  16.1692  16.6326  16.6326  17.7728  17.7728
    18.9056  18.9056  19.6284  19.6284  34.9100

     occupation numbers 
     1.0000   1.0000   1.0000   1.0000   1.0000   1.0000   1.0000   1.0000
     1.0000   1.0000   1.0000   1.0000   1.0000   1.0000   1.0000   1.0000
     1.0000   1.0000   1.0000   1.0000   0.0000

          k = 0.1667 0.3849 0.0000 (  2722 PWs)   bands (ev):

   -76.3490 -76.3174 -39.6971 -39.6911 -39.6731 -39.5691 -39.5143 -39.5097
    14.2944  15.4167  15.4496  15.9472  16.7955  17.1974  17.3619  18.1392
    18.9142  19.0165  19.7070  26.9321  27.3055

     occupation numbers 
     1.0000   1.0000   1.0000   1.0000   1.0000   1.0000   1.0000   1.0000
     1.0000   1.0000   1.0000   1.0000   1.0000   1.0000   1.0000   1.0000
     1.0000   1.0000   0.0307   0.0000   0.0000

          k = 0.1667 0.3849 0.1010 (  2728 PWs)   bands (ev):

   -76.3469 -76.3195 -39.7273 -39.6910 -39.6386 -39.5741 -39.5206 -39.5029
    14.3620  15.3481  15.5460  16.0316  16.8262  17.2047  17.3159  18.1928
    18.8014  19.0053  19.7866  24.4595  29.6654

     occupation numbers 
     1.0000   1.0000   1.0000   1.0000   1.0000   1.0000   1.0000   1.0000
     1.0000   1.0000   1.0000   1.0000   1.0000   1.0000   1.0000   1.0000
     1.0000   1.0000   0.0000   0.0000   0.0000

          k = 0.1667 0.3849 0.2021 (  2723 PWs)   bands (ev):

   -76.3411 -76.3253 -39.7421 -39.7122 -39.5954 -39.5730 -39.5285 -39.5031
    14.5541  15.1369  15.7987  16.2573  16.7253  17.0490  17.4685  18.2026
    18.7042  19.1602  19.9593  22.2367  30.7660

     occupation numbers 
     1.0000   1.0000   1.0000   1.0000   1.0000   1.0000   1.0000   1.0000
     1.0000   1.0000   1.0000   1.0000   1.0000   1.0000   1.0000   1.0000
     1.0000   1.0000   0.0000   0.0000   0.0000

          k = 0.1667 0.3849-0.3031 (  2734 PWs)   bands (ev):

   -76.3332 -76.3332 -39.7347 -39.7347 -39.5739 -39.5739 -39.5186 -39.5186
    14.8364  14.8364  16.1461  16.1461  16.8198  16.8198  17.7701  17.7701
    19.1337  19.1337  20.6343  20.6343  31.9045

     occupation numbers 
     1.0000   1.0000   1.0000   1.0000   1.0000   1.0000   1.0000   1.0000
     1.0000   1.0000   1.0000   1.0000   1.0000   1.0000   1.0000   1.0000
     1.0000   1.0000   0.0000   0.0000   0.0000

          k = 0.1667 0.4811 0.0000 (  2722 PWs)   bands (ev):

   -76.3364 -76.3155 -39.7416 -39.6959 -39.6539 -39.5996 -39.5343 -39.5319
    14.9913  15.1922  15.2275  16.2880  16.7522  17.1121  17.4179  18.6064
    19.0042  19.1382  20.9438  25.7580  29.0023

     occupation numbers 
     1.0000   1.0000   1.0000   1.0000   1.0000   1.0000   1.0000   1.0000
     1.0000   1.0000   1.0000   1.0000   1.0000   1.0000   1.0000   1.0000
     1.0000   1.0000   0.0000   0.0000   0.0000

          k = 0.1667 0.4811 0.1010 (  2729 PWs)   bands (ev):

   -76.3350 -76.3169 -39.7539 -39.7138 -39.6338 -39.5926 -39.5445 -39.5186
    14.8036  15.2766  15.4950  16.0770  16.8000  17.2550  17.5219  18.5985
    18.8052  19.2014  21.0194  25.0964  28.0065

     occupation numbers 
     1.0000   1.0000   1.0000   1.0000   1.0000   1.0000   1.0000   1.0000
     1.0000   1.0000   1.0000   1.0000   1.0000   1.0000   1.0000   1.0000
     1.0000   1.0000   0.0000   0.0000   0.0000

          k = 0.1667 0.4811 0.2021 (  2726 PWs)   bands (ev):

   -76.3312 -76.3207 -39.7683 -39.7426 -39.6132 -39.5770 -39.5452 -39.5106
    14.7480  15.1927  15.6918  16.2409  16.6896  17.3972  17.7811  18.2840
    18.8061  19.2790  21.3122  23.5050  28.1618

     occupation numbers 
     1.0000   1.0000   1.0000   1.0000   1.0000   1.0000   1.0000   1.0000
     1.0000   1.0000   1.0000   1.0000   1.0000   1.0000   1.0000   1.0000
     1.0000   1.0000   0.0000   0.0000   0.0000

          k = 0.1667 0.4811-0.3031 (  2728 PWs)   bands (ev):

   -76.3259 -76.3259 -39.7646 -39.7646 -39.5926 -39.5926 -39.5211 -39.5211
    14.9030  14.9030  16.0323  16.0323  17.1096  17.1096  17.9580  17.9580
    19.1376  19.1376  22.0989  22.0989  29.0345

     occupation numbers 
     1.0000   1.0000   1.0000   1.0000   1.0000   1.0000   1.0000   1.0000
     1.0000   1.0000   1.0000   1.0000   1.0000   1.0000   1.0000   1.0000
     1.0000   1.0000   0.0000   0.0000   0.0000

          k = 0.1667 0.5774 0.0000 (  2728 PWs)   bands (ev):

   -76.3309 -76.3157 -39.7578 -39.7034 -39.6352 -39.6120 -39.5485 -39.5382
    15.1152  15.1175  15.1649  16.5274  16.7931  16.9642  17.5127  18.9261
    18.9995  19.0983  22.2292  23.9141  30.5356

     occupation numbers 
     1.0000   1.0000   1.0000   1.0000   1.0000   1.0000   1.0000   1.0000
     1.0000   1.0000   1.0000   1.0000   1.0000   1.0000   1.0000   1.0000
     1.0000   1.0000   0.0000   0.0000   0.0000

          k = 0.1667 0.5774 0.1010 (  2738 PWs)   bands (ev):

   -76.3299 -76.3167 -39.7676 -39.7201 -39.6353 -39.5876 -39.5583 -39.5259
    14.8172  15.1873  15.6659  16.0583  16.7173  17.3825  17.6234  18.7785
    18.9241  19.1489  22.3109  23.8403  29.2529

     occupation numbers 
     1.0000   1.0000   1.0000   1.0000   1.0000   1.0000   1.0000   1.0000
     1.0000   1.0000   1.0000   1.0000   1.0000   1.0000   1.0000   1.0000
     1.0000   1.0000   0.0000   0.0000   0.0000

          k = 0.1667 0.5774 0.2021 (  2721 PWs)   bands (ev):

   -76.3271 -76.3195 -39.7799 -39.7522 -39.6222 -39.5767 -39.5488 -39.5145
    14.7399  15.2005  15.7366  16.1889  16.6043  17.6045  17.9215  18.3552
    18.9465  19.1920  22.5829  23.5724  28.0547

     occupation numbers 
     1.0000   1.0000   1.0000   1.0000   1.0000   1.0000   1.0000   1.0000
     1.0000   1.0000   1.0000   1.0000   1.0000   1.0000   1.0000   1.0000
     1.0000   1.0000   0.0000   0.0000   0.0000

          k = 0.1667 0.5774-0.3031 (  2728 PWs)   bands (ev):

   -76.3233 -76.3233 -39.7758 -39.7758 -39.6001 -39.6001 -39.5212 -39.5212
    14.9043  14.9043  15.9896  15.9896  17.1513  17.1513  18.1761  18.1761
    19.0708  19.0708  23.0776  23.0776  27.5805

     occupation numbers 
     1.0000   1.0000   1.0000   1.0000   1.0000   1.0000   1.0000   1.0000
     1.0000   1.0000   1.0000   1.0000   1.0000   1.0000   1.0000   1.0000
     1.0000   1.0000   0.0000   0.0000   0.0000

          k = 0.2500 0.4330 0.0000 (  2728 PWs)   bands (ev):

   -76.3364 -76.3155 -39.7170 -39.6941 -39.6542 -39.6040 -39.5544 -39.5341
    15.1538  15.2691  15.6805  15.6904  16.6634  17.1434  17.4246  18.3365
    18.9523  19.1387  20.9665  27.4977  28.4206

     occupation numbers 
     1.0000   1.0000   1.0000   1.0000   1.0000   1.0000   1.0000   1.0000
     1.0000   1.0000   1.0000   1.0000   1.0000   1.0000   1.0000   1.0000
     1.0000   1.0000   0.0000   0.0000   0.0000

          k = 0.2500 0.4330 0.1010 (  2727 PWs)   bands (ev):

   -76.3350 -76.3169 -39.7224 -39.7210 -39.6207 -39.6153 -39.5563 -39.5219
    15.1465  15.2180  15.7013  15.8634  16.8153  16.9802  17.4365  18.3911
    18.7429  19.2076  21.0862  25.8374  28.7001

     occupation numbers 
     1.0000   1.0000   1.0000   1.0000   1.0000   1.0000   1.0000   1.0000
     1.0000   1.0000   1.0000   1.0000   1.0000   1.0000   1.0000   1.0000
     1.0000   1.0000   0.0000   0.0000   0.0000

          k = 0.2500 0.4330 0.2021 (  2731 PWs)   bands (ev):

   -76.3312 -76.3207 -39.7464 -39.7351 -39.6207 -39.5986 -39.5455 -39.5109
    15.1180  15.1582  15.8755  16.2529  16.6308  16.9192  17.4991  18.1819
    18.7706  19.2880  21.4490  23.7929  29.4711

     occupation numbers 
     1.0000   1.0000   1.0000   1.0000   1.0000   1.0000   1.0000   1.0000
     1.0000   1.0000   1.0000   1.0000   1.0000   1.0000   1.0000   1.0000
     1.0000   1.0000   0.0000   0.0000   0.0000

          k = 0.2500 0.4330-0.3031 (  2730 PWs)   bands (ev):

   -76.3260 -76.3260 -39.7490 -39.7490 -39.6096 -39.6096 -39.5199 -39.5199
    15.1199  15.1199  16.2080  16.2080  16.6988  16.6988  17.7343  17.7343
    19.1592  19.1592  22.2760  22.2760  30.4836

     occupation numbers 
     1.0000   1.0000   1.0000   1.0000   1.0000   1.0000   1.0000   1.0000
     1.0000   1.0000   1.0000   1.0000   1.0000   1.0000   1.0000   1.0000
     1.0000   1.0000   0.0000   0.0000   0.0000

          k = 0.2500 0.5292 0.0000 (  2741 PWs)   bands (ev):

   -76.3271 -76.3164 -39.7312 -39.6848 -39.6399 -39.6214 -39.5804 -39.5596
    15.2055  15.4401  15.5218  16.0510  16.6802  16.9121  17.6050  18.6492
    18.9148  19.0531  22.6824  25.3524  27.7470

     occupation numbers 
     1.0000   1.0000   1.0000   1.0000   1.0000   1.0000   1.0000   1.0000
     1.0000   1.0000   1.0000   1.0000   1.0000   1.0000   1.0000   1.0000
     1.0000   1.0000   0.0000   0.0000   0.0000

          k = 0.2500 0.5292 0.1010 (  2731 PWs)   bands (ev):

   -76.3264 -76.3171 -39.7364 -39.7053 -39.6560 -39.6001 -39.5790 -39.5404
    15.1492  15.5567  15.6494  15.9372  16.6990  16.9158  17.6264  18.6570
    18.7202  19.1039  22.8648  25.3400  27.7397

     occupation numbers 
     1.0000   1.0000   1.0000   1.0000   1.0000   1.0000   1.0000   1.0000
     1.0000   1.0000   1.0000   1.0000   1.0000   1.0000   1.0000   1.0000
     1.0000   1.0000   0.0000   0.0000   0.0000

          k = 0.2500 0.5292 0.2021 (  2727 PWs)   bands (ev):

   -76.3244 -76.3191 -39.7497 -39.7340 -39.6563 -39.6147 -39.5426 -39.5194
    15.1616  15.5355  15.8016  16.1412  16.5323  16.9382  17.6977  18.1979
    18.8559  19.1566  23.3478  24.9620  27.6494

     occupation numbers 
     1.0000   1.0000   1.0000   1.0000   1.0000   1.0000   1.0000   1.0000
     1.0000   1.0000   1.0000   1.0000   1.0000   1.0000   1.0000   1.0000
     1.0000   1.0000   0.0000   0.0000   0.0000

          k = 0.2500 0.5292-0.3031 (  2710 PWs)   bands (ev):

   -76.3217 -76.3217 -39.7516 -39.7516 -39.6376 -39.6376 -39.5190 -39.5190
    15.3020  15.3020  16.1068  16.1068  16.6999  16.6999  17.8444  17.8444
    19.0654  19.0654  24.1003  24.1003  28.2029

     occupation numbers 
     1.0000   1.0000   1.0000   1.0000   1.0000   1.0000   1.0000   1.0000
     1.0000   1.0000   1.0000   1.0000   1.0000   1.0000   1.0000   1.0000
     1.0000   1.0000   0.0000   0.0000   0.0000

          k = 0.3333 0.5774 0.0000 (  2748 PWs)   bands (ev):

   -76.3202 -76.3202 -39.7172 -39.6659 -39.6659 -39.6119 -39.5892 -39.5892
    15.2258  15.6518  15.6518  15.9032  16.7393  16.7393  17.7090  18.8133
    18.8133  18.8791  24.4490  25.3768  25.3768

     occupation numbers 
     1.0000   1.0000   1.0000   1.0000   1.0000   1.0000   1.0000   1.0000
     1.0000   1.0000   1.0000   1.0000   1.0000   1.0000   1.0000   1.0000
     1.0000   1.0000   0.0000   0.0000   0.0000

          k = 0.3333 0.5774 0.1010 (  2712 PWs)   bands (ev):

   -76.3202 -76.3202 -39.7101 -39.6914 -39.6914 -39.6190 -39.5635 -39.5635
    15.3225  15.6671  15.6671  15.9201  16.7114  16.7114  17.6848  18.6434
    18.8662  18.8662  24.8483  25.4344  25.4344

     occupation numbers 
     1.0000   1.0000   1.0000   1.0000   1.0000   1.0000   1.0000   1.0000
     1.0000   1.0000   1.0000   1.0000   1.0000   1.0000   1.0000   1.0000
     1.0000   1.0000   0.0000   0.0000   0.0000

          k = 0.3333 0.5774 0.2021 (  2718 PWs)   bands (ev):

   -76.3202 -76.3202 -39.7238 -39.7238 -39.6910 -39.6383 -39.5308 -39.5308
    15.5681  15.6959  15.6959  15.9290  16.6627  16.6627  17.6601  18.1553
    18.9681  18.9681  25.5756  25.5756  25.8740

     occupation numbers 
     1.0000   1.0000   1.0000   1.0000   1.0000   1.0000   1.0000   1.0000
     1.0000   1.0000   1.0000   1.0000   1.0000   1.0000   1.0000   1.0000
     1.0000   1.0000   0.0000   0.0000   0.0000

          k = 0.3333 0.5774-0.3031 (  2712 PWs)   bands (ev):

   -76.3202 -76.3202 -39.7365 -39.7365 -39.6647 -39.6647 -39.5180 -39.5180
    15.7091  15.7091  15.8212  15.8212  16.6418  16.6418  17.7770  17.7770
[...]
    21.0062  21.0097  22.2795  24.9306  29.7917

     occupation numbers 
     1.0000   1.0000   1.0000   1.0000   1.0000   1.0000   1.0000   1.0000
     1.0000   1.0000   1.0000   1.0000   1.0000   1.0000   1.0000   0.0000
     0.0000   0.0000   0.0000   0.0000   0.0000

          k = 0.0833 0.5292 0.1010 (  2728 PWs)   bands (ev):

   -74.3146 -74.2954 -37.8477 -37.7935 -37.6609 -37.6207 -37.5591 -37.5404
    15.4530  16.0274  16.6213  17.2333  18.5222  19.0198  19.0474  20.7485
    20.9182  21.0448  22.1325  24.5501  28.8565

     occupation numbers 
     1.0000   1.0000   1.0000   1.0000   1.0000   1.0000   1.0000   1.0000
     1.0000   1.0000   1.0000   1.0000   1.0000   1.0000   1.0000   0.0000
     0.0000   0.0000   0.0000   0.0000   0.0000

          k = 0.0833 0.5292 0.2021 (  2724 PWs)   bands (ev):

   -74.3106 -74.2994 -37.8594 -37.8260 -37.6293 -37.5917 -37.5758 -37.5398
    15.4031  15.8789  16.9300  17.2357  18.5705  19.3803  19.5814  20.2766
    20.8738  21.1259  21.9036  23.5461  28.3907

     occupation numbers 
     1.0000   1.0000   1.0000   1.0000   1.0000   1.0000   1.0000   1.0000
     1.0000   1.0000   1.0000   1.0000   1.0000   1.0000   1.0000   0.0000
     0.0000   0.0000   0.0000   0.0000   0.0000

          k = 0.0833 0.5292-0.3031 (  2730 PWs)   bands (ev):

   -74.3050 -74.3050 -37.8524 -37.8524 -37.6019 -37.6019 -37.5566 -37.5566
    15.5752  15.5752  17.1719  17.1719  19.1082  19.1082  19.9233  19.9233
    20.9681  20.9681  22.4479  22.4479  28.6607

     occupation numbers 
     1.0000   1.0000   1.0000   1.0000   1.0000   1.0000   1.0000   1.0000
     1.0000   1.0000   1.0000   1.0000   1.0000   1.0000   0.0000   0.0000
     0.0000   0.0000   0.0000   0.0000   0.0000

          k = 0.1667 0.2887 0.0000 (  2722 PWs)   bands (ev):

   -74.3460 -74.3009 -37.7640 -37.6955 -37.6860 -37.5821 -37.5313 -37.5013
    13.2345  16.6179  16.8791  17.2947  18.5448  18.5745  19.1945  19.4776
    20.1687  20.5458  20.9282  25.8023  27.6145

     occupation numbers 
     1.0000   1.0000   1.0000   1.0000   1.0000   1.0000   1.0000   1.0000
     1.0000   1.0000   1.0000   1.0000   1.0000   1.0000   1.0000   1.0000
     0.0000   0.0000   0.0000   0.0000   0.0000

          k = 0.1667 0.2887 0.1010 (  2723 PWs)   bands (ev):

   -74.3430 -74.3039 -37.7698 -37.6928 -37.6705 -37.5863 -37.5358 -37.5052
    13.4434  16.5109  16.8199  17.3635  18.4533  18.5687  19.0916  19.6105
    20.2999  20.4077  20.9427  24.1331  29.8211

     occupation numbers 
     1.0000   1.0000   1.0000   1.0000   1.0000   1.0000   1.0000   1.0000
     1.0000   1.0000   1.0000   1.0000   1.0000   1.0000   1.0000   1.0000
     0.0000   0.0000   0.0000   0.0000   0.0000

          k = 0.1667 0.2887 0.2021 (  2727 PWs)   bands (ev):

   -74.3347 -74.3122 -37.7666 -37.7153 -37.6230 -37.5882 -37.5461 -37.5215
    14.0347  15.8174  17.0934  17.5395  18.1512  18.4087  19.1467  19.7646
    20.3790  20.5327  20.9003  22.3769  33.1040

     occupation numbers 
     1.0000   1.0000   1.0000   1.0000   1.0000   1.0000   1.0000   1.0000
     1.0000   1.0000   1.0000   1.0000   1.0000   1.0000   1.0000   0.0000
     0.0000   0.0000   0.0000   0.0000   0.0000

          k = 0.1667 0.2887-0.3031 (  2730 PWs)   bands (ev):

   -74.3235 -74.3235 -37.7454 -37.7454 -37.5887 -37.5887 -37.5463 -37.5463
    14.8947  14.8947  17.4787  17.4787  18.0936  18.0936  19.4635  19.4635
    20.7264  20.7264  21.1459  21.1459  35.3216

     occupation numbers 
     1.0000   1.0000   1.0000   1.0000   1.0000   1.0000   1.0000   1.0000
     1.0000   1.0000   1.0000   1.0000   1.0000   1.0000   1.0000   1.0000
     0.0000   0.0000   0.0000   0.0000   0.0000

          k = 0.1667 0.3849 0.0000 (  2722 PWs)   bands (ev):

   -74.3297 -74.2959 -37.7576 -37.7313 -37.7216 -37.6182 -37.5590 -37.5246
    14.5199  16.5749  16.6704  17.1272  18.3486  18.6875  18.9284  19.8588
    20.7087  20.9092  21.3421  27.6275  27.9129

     occupation numbers 
     1.0000   1.0000   1.0000   1.0000   1.0000   1.0000   1.0000   1.0000
     1.0000   1.0000   1.0000   1.0000   1.0000   1.0000   1.0000   0.0000
     0.0000   0.0000   0.0000   0.0000   0.0000

          k = 0.1667 0.3849 0.1010 (  2728 PWs)   bands (ev):

   -74.3275 -74.2981 -37.7798 -37.7484 -37.6766 -37.6211 -37.5644 -37.5222
    14.6574  16.4380  16.7732  17.2334  18.3007  18.6773  18.8823  19.9226
    20.6446  20.8149  21.4394  25.2691  30.2609

     occupation numbers 
     1.0000   1.0000   1.0000   1.0000   1.0000   1.0000   1.0000   1.0000
     1.0000   1.0000   1.0000   1.0000   1.0000   1.0000   1.0000   0.0000
     0.0000   0.0000   0.0000   0.0000   0.0000

          k = 0.1667 0.3849 0.2021 (  2723 PWs)   bands (ev):

   -74.3213 -74.3043 -37.7966 -37.7694 -37.6333 -37.6146 -37.5711 -37.5273
    15.0345  16.0676  17.0580  17.4496  18.1394  18.4121  19.0790  19.9375
    20.4889  21.0057  21.5230  23.2419  31.3496

     occupation numbers 
     1.0000   1.0000   1.0000   1.0000   1.0000   1.0000   1.0000   1.0000
     1.0000   1.0000   1.0000   1.0000   1.0000   1.0000   1.0000   0.0000
     0.0000   0.0000   0.0000   0.0000   0.0000

          k = 0.1667 0.3849-0.3031 (  2734 PWs)   bands (ev):

   -74.3128 -74.3128 -37.7907 -37.7907 -37.6153 -37.6153 -37.5502 -37.5502
    15.5519  15.5519  17.4103  17.4103  18.1284  18.1284  19.4668  19.4668
    20.9899  20.9899  21.8829  21.8829  32.4483

     occupation numbers 
     1.0000   1.0000   1.0000   1.0000   1.0000   1.0000   1.0000   1.0000
     1.0000   1.0000   1.0000   1.0000   1.0000   1.0000   1.0000   1.0000
     0.0000   0.0000   0.0000   0.0000   0.0000

          k = 0.1667 0.4811 0.0000 (  2722 PWs)   bands (ev):

   -74.3162 -74.2938 -37.8060 -37.7560 -37.6811 -37.6512 -37.5779 -37.5513
    15.6143  16.4001  16.4202  17.2256  18.2825  18.6286  18.9424  20.3670
    20.8949  20.9734  22.3309  26.4737  29.5918

     occupation numbers 
     1.0000   1.0000   1.0000   1.0000   1.0000   1.0000   1.0000   1.0000
     1.0000   1.0000   1.0000   1.0000   1.0000   1.0000   1.0000   0.0000
     0.0000   0.0000   0.0000   0.0000   0.0000

          k = 0.1667 0.4811 0.1010 (  2729 PWs)   bands (ev):

   -74.3147 -74.2953 -37.8160 -37.7728 -37.6708 -37.6353 -37.5867 -37.5416
    15.6008  16.3630  16.6062  17.2338  18.2937  18.5990  19.0473  20.3696
    20.6550  21.0514  22.3775  25.7686  28.7494

     occupation numbers 
     1.0000   1.0000   1.0000   1.0000   1.0000   1.0000   1.0000   1.0000
     1.0000   1.0000   1.0000   1.0000   1.0000   1.0000   1.0000   0.0000
     0.0000   0.0000   0.0000   0.0000   0.0000

          k = 0.1667 0.4811 0.2021 (  2726 PWs)   bands (ev):

   -74.3106 -74.2994 -37.8289 -37.8022 -37.6581 -37.6179 -37.5808 -37.5351
    15.6641  16.1676  16.9430  17.4800  18.1110  18.5951  19.3071  20.0494
    20.6098  21.1531  22.5245  24.2603  28.9388

     occupation numbers 
     1.0000   1.0000   1.0000   1.0000   1.0000   1.0000   1.0000   1.0000
     1.0000   1.0000   1.0000   1.0000   1.0000   1.0000   1.0000   0.0000
     0.0000   0.0000   0.0000   0.0000   0.0000

          k = 0.1667 0.4811-0.3031 (  2728 PWs)   bands (ev):

   -74.3050 -74.3050 -37.8248 -37.8248 -37.6378 -37.6378 -37.5488 -37.5488
    15.8726  15.8726  17.3526  17.3526  18.3270  18.3270  19.6015  19.6015
    20.9831  20.9831  23.0597  23.0597  29.7478

     occupation numbers 
     1.0000   1.0000   1.0000   1.0000   1.0000   1.0000   1.0000   1.0000
     1.0000   1.0000   1.0000   1.0000   1.0000   1.0000   1.0000   1.0000
     0.0000   0.0000   0.0000   0.0000   0.0000

          k = 0.1667 0.5774 0.0000 (  2728 PWs)   bands (ev):

   -74.3103 -74.2940 -37.8235 -37.7640 -37.6646 -37.6606 -37.5847 -37.5666
    16.0523  16.2713  16.3442  17.3277  18.3577  18.4185  19.0555  20.7250
    20.8894  20.9368  23.2874  24.8842  30.9462

     occupation numbers 
     1.0000   1.0000   1.0000   1.0000   1.0000   1.0000   1.0000   1.0000
     1.0000   1.0000   1.0000   1.0000   1.0000   1.0000   1.0000   0.0000
     0.0000   0.0000   0.0000   0.0000   0.0000

          k = 0.1667 0.5774 0.1010 (  2738 PWs)   bands (ev):

   -74.3092 -74.2951 -37.8318 -37.7803 -37.6779 -37.6233 -37.5985 -37.5521
    15.8501  16.3182  16.7710  17.1009  18.2496  18.6369  19.1690  20.6284
    20.7267  20.9993  23.3072  24.7666  29.8494

     occupation numbers 
     1.0000   1.0000   1.0000   1.0000   1.0000   1.0000   1.0000   1.0000
     1.0000   1.0000   1.0000   1.0000   1.0000   1.0000   1.0000   0.0000
     0.0000   0.0000   0.0000   0.0000   0.0000

          k = 0.1667 0.5774 0.2021 (  2721 PWs)   bands (ev):

   -74.3062 -74.2981 -37.8425 -37.8127 -37.6687 -37.6209 -37.5788 -37.5397
    15.7868  16.2269  17.0218  17.3902  18.0190  18.7820  19.4668  20.1180
    20.7651  21.0554  23.4207  24.3890  28.8202

     occupation numbers 
     1.0000   1.0000   1.0000   1.0000   1.0000   1.0000   1.0000   1.0000
     1.0000   1.0000   1.0000   1.0000   1.0000   1.0000   1.0000   0.0000
     0.0000   0.0000   0.0000   0.0000   0.0000

          k = 0.1667 0.5774-0.3031 (  2728 PWs)   bands (ev):

   -74.3021 -74.3021 -37.8373 -37.8373 -37.6464 -37.6464 -37.5478 -37.5478
    15.9441  15.9441  17.3385  17.3385  18.3873  18.3873  19.7755  19.7755
    20.9160  20.9160  23.8287  23.8287  28.4449

     occupation numbers 
     1.0000   1.0000   1.0000   1.0000   1.0000   1.0000   1.0000   1.0000
     1.0000   1.0000   1.0000   1.0000   1.0000   1.0000   0.0000   0.0000
     0.0000   0.0000   0.0000   0.0000   0.0000

          k = 0.2500 0.4330 0.0000 (  2728 PWs)   bands (ev):

   -74.3162 -74.2938 -37.7792 -37.7539 -37.6814 -37.6561 -37.6023 -37.5510
    15.6510  16.4850  16.7913  16.8584  18.1761  18.6617  18.9429  20.0884
    20.8360  20.9719  22.3815  28.0442  29.0130

     occupation numbers 
     1.0000   1.0000   1.0000   1.0000   1.0000   1.0000   1.0000   1.0000
     1.0000   1.0000   1.0000   1.0000   1.0000   1.0000   1.0000   0.0000
     0.0000   0.0000   0.0000   0.0000   0.0000

          k = 0.2500 0.4330 0.1010 (  2727 PWs)   bands (ev):

   -74.3147 -74.2953 -37.7825 -37.7780 -37.6654 -37.6533 -37.6028 -37.5418
    15.7153  16.4025  16.8594  17.0461  18.2198  18.4639  18.9680  20.1507
    20.5873  21.0585  22.4819  26.4822  29.2977

     occupation numbers 
     1.0000   1.0000   1.0000   1.0000   1.0000   1.0000   1.0000   1.0000
     1.0000   1.0000   1.0000   1.0000   1.0000   1.0000   1.0000   0.0000
     0.0000   0.0000   0.0000   0.0000   0.0000

          k = 0.2500 0.4330 0.2021 (  2731 PWs)   bands (ev):

   -74.3106 -74.2994 -37.8030 -37.7947 -37.6702 -37.6420 -37.5795 -37.5340
    15.8796  16.2635  17.0857  17.4095  18.0536  18.1891  19.0824  19.9378
    20.5662  21.1636  22.7182  24.5857  30.0706

     occupation numbers 
     1.0000   1.0000   1.0000   1.0000   1.0000   1.0000   1.0000   1.0000
     1.0000   1.0000   1.0000   1.0000   1.0000   1.0000   1.0000   0.0000
     0.0000   0.0000   0.0000   0.0000   0.0000

          k = 0.2500 0.4330-0.3031 (  2730 PWs)   bands (ev):

   -74.3050 -74.3050 -37.8070 -37.8070 -37.6580 -37.6580 -37.5466 -37.5466
    16.0824  16.0824  17.4401  17.4401  17.9569  17.9569  19.4101  19.4101
    21.0099  21.0099  23.2900  23.2900  31.0716

     occupation numbers 
     1.0000   1.0000   1.0000   1.0000   1.0000   1.0000   1.0000   1.0000
     1.0000   1.0000   1.0000   1.0000   1.0000   1.0000   1.0000   1.0000
     0.0000   0.0000   0.0000   0.0000   0.0000

          k = 0.2500 0.5292 0.0000 (  2741 PWs)   bands (ev):

   -74.3063 -74.2947 -37.7945 -37.7438 -37.6951 -37.6457 -37.6305 -37.5787
    16.3454  16.4643  16.6353  16.9714  18.1750  18.3852  19.1541  20.4312
    20.7932  20.8834  23.7500  26.1256  28.3062

     occupation numbers 
     1.0000   1.0000   1.0000   1.0000   1.0000   1.0000   1.0000   1.0000
     1.0000   1.0000   1.0000   1.0000   1.0000   1.0000   1.0000   0.0000
     0.0000   0.0000   0.0000   0.0000   0.0000

          k = 0.2500 0.5292 0.1010 (  2731 PWs)   bands (ev):

   -74.3055 -74.2955 -37.7981 -37.7627 -37.7081 -37.6444 -37.6121 -37.5627
    16.2551  16.6319  16.7176  17.0234  18.1449  18.2817  19.1802  20.4624
    20.5446  20.9471  23.9097  26.0737  28.3314

     occupation numbers 
     1.0000   1.0000   1.0000   1.0000   1.0000   1.0000   1.0000   1.0000
     1.0000   1.0000   1.0000   1.0000   1.0000   1.0000   1.0000   0.0000
     0.0000   0.0000   0.0000   0.0000   0.0000

          k = 0.2500 0.5292 0.2021 (  2727 PWs)   bands (ev):

   -74.3034 -74.2976 -37.8088 -37.7917 -37.7093 -37.6649 -37.5699 -37.5429
    16.2675  16.5735  17.0080  17.3703  17.8642  18.1495  19.2759  19.9581
    20.6731  21.0138  24.2902  25.6415  28.3774

     occupation numbers 
     1.0000   1.0000   1.0000   1.0000   1.0000   1.0000   1.0000   1.0000
     1.0000   1.0000   1.0000   1.0000   1.0000   1.0000   1.0000   0.0000
     0.0000   0.0000   0.0000   0.0000   0.0000

          k = 0.2500 0.5292-0.3031 (  2710 PWs)   bands (ev):

   -74.3005 -74.3005 -37.8098 -37.8098 -37.6900 -37.6900 -37.5438 -37.5438
    16.3979  16.3979  17.4105  17.4105  17.8590  17.8590  19.5039  19.5039
    20.9096  20.9096  24.8833  24.8833  28.9315

     occupation numbers 
     1.0000   1.0000   1.0000   1.0000   1.0000   1.0000   1.0000   1.0000
     1.0000   1.0000   1.0000   1.0000   1.0000   1.0000   1.0000   1.0000
     0.0000   0.0000   0.0000   0.0000   0.0000

          k = 0.3333 0.5774 0.0000 (  2748 PWs)   bands (ev):

   -74.2989 -74.2989 -37.7791 -37.7235 -37.7235 -37.6645 -37.6107 -37.6107
    16.5109  16.6890  16.6890  16.8557  18.2043  18.2043  19.2650  20.6194
    20.6194  20.7529  25.2473  26.1449  26.1449

     occupation numbers 
     1.0000   1.0000   1.0000   1.0000   1.0000   1.0000   1.0000   1.0000
     1.0000   1.0000   1.0000   1.0000   1.0000   1.0000   1.0000   0.0000
     0.0000   0.0000   0.0000   0.0000   0.0000

          k = 0.3333 0.5774 0.1010 (  2712 PWs)   bands (ev):

   -74.2989 -74.2989 -37.7714 -37.7462 -37.7462 -37.6722 -37.5878 -37.5878
    16.5880  16.7555  16.7555  16.8852  18.1146  18.1146  19.2490  20.4764
    20.6829  20.6829  25.6620  26.1795  26.1795

     occupation numbers 
     1.0000   1.0000   1.0000   1.0000   1.0000   1.0000   1.0000   1.0000
     1.0000   1.0000   1.0000   1.0000   1.0000   1.0000   1.0000   0.0000
     0.0000   0.0000   0.0000   0.0000   0.0000

          k = 0.3333 0.5774 0.2021 (  2718 PWs)   bands (ev):

   -74.2988 -74.2988 -37.7784 -37.7784 -37.7506 -37.6933 -37.5552 -37.5552
    16.7685  16.9133  16.9133  16.9373  17.9191  17.9191  19.2617  19.9161
    20.8019  20.8019  26.2646  26.2646  26.6788

     occupation numbers 
     1.0000   1.0000   1.0000   1.0000   1.0000   1.0000   1.0000   1.0000
     1.0000   1.0000   1.0000   1.0000   1.0000   1.0000   1.0000   0.0000
     0.0000   0.0000   0.0000   0.0000   0.0000

          k = 0.3333 0.5774-0.3031 (  2712 PWs)   bands (ev):

   -74.2988 -74.2988 -37.7914 -37.7914 -37.7220 -37.7220 -37.5420 -37.5420
    16.9170  16.9170  17.0148  17.0148  17.8025  17.8025  19.4560  19.4560
    20.8579  20.8579  26.3179  26.3179  28.0242

     occupation numbers 
     1.0000   1.0000   1.0000   1.0000   1.0000   1.0000   1.0000   1.0000
     1.0000   1.0000   1.0000   1.0000   1.0000   1.0000   1.0000   1.0000
     0.0000   0.0000   0.0000   0.0000   0.0000

     the Fermi energy is    19.6890 ev

!    total energy              =    -753.45289574 Ry
     total all-electron energy =     -5573.809587 Ry
     estimated scf accuracy    <       0.00000002 Ry
     smearing contrib. (-TS)   =      -0.00000926 Ry
     internal energy E=F+TS    =    -753.45288648 Ry

     The total energy is F=E-TS. E is the sum of the following terms:
     one-electron contribution =    -273.37005402 Ry
     hartree contribution      =     161.56015912 Ry
     xc contribution           =     -61.45722980 Ry
     ewald contribution        =    -405.00931666 Ry
     one-center paw contrib.   =    -175.17644511 Ry
      -> PAW hartree energy AE =     222.36799103 Ry
      -> PAW hartree energy PS =    -221.31095699 Ry
      -> PAW xc energy AE      =    -117.68665538 Ry
      -> PAW xc energy PS      =      29.04139878 Ry
      -> total E_H with PAW    =     162.61719316 Ry
      -> total E_XC with PAW   =    -150.10248640 Ry

     total magnetization       =     3.14 Bohr mag/cell
     absolute magnetization    =     3.45 Bohr mag/cell

     convergence has been achieved in  14 iterations

     Writing all to output data dir ./out/Co.save/
 
     init_run     :      0.40s CPU      1.16s WALL (       1 calls)
     electrons    :     36.77s CPU     38.88s WALL (       1 calls)

     Called by init_run:
     wfcinit      :      0.23s CPU      0.92s WALL (       1 calls)
     potinit      :      0.11s CPU      0.16s WALL (       1 calls)
     hinit0       :      0.03s CPU      0.04s WALL (       1 calls)

     Called by electrons:
     c_bands      :     32.59s CPU     34.17s WALL (      14 calls)
     sum_band     :      2.73s CPU      2.89s WALL (      14 calls)
     v_of_rho     :      0.05s CPU      0.05s WALL (      15 calls)
     v_h          :      0.00s CPU      0.00s WALL (      15 calls)
     v_xc         :      0.04s CPU      0.05s WALL (      15 calls)
     newd         :      0.05s CPU      0.07s WALL (      15 calls)
     PAW_pot      :      1.42s CPU      1.79s WALL (      15 calls)
     mix_rho      :      0.01s CPU      0.02s WALL (      14 calls)

     Called by c_bands:
     init_us_2    :      0.15s CPU      0.17s WALL (    4256 calls)
     init_us_2:cp :      0.15s CPU      0.16s WALL (    4256 calls)
     cegterg      :     31.56s CPU     32.94s WALL (    2257 calls)

     Called by sum_band:
     sum_band:wei :      0.02s CPU      0.02s WALL (      14 calls)
     sum_band:loo :      2.57s CPU      2.73s WALL (      14 calls)
     sum_band:buf :      0.01s CPU      0.02s WALL (    2128 calls)
     sum_band:ini :      0.09s CPU      0.08s WALL (    2128 calls)
     sum_band:cal :      0.20s CPU      0.19s WALL (    2128 calls)
     sum_band:bec :      0.00s CPU      0.02s WALL (    2128 calls)
     addusdens    :      0.11s CPU      0.12s WALL (      14 calls)
                                        0.00s GPU  (      14 calls)
     addusd:skk   :      0.00s CPU      0.00s WALL (      14 calls)
                                        0.00s GPU  (      14 calls)

     Called by *egterg:
     cdiaghg      :      8.56s CPU      8.73s WALL (   14498 calls)
     cegterg:over :      1.10s CPU      1.04s WALL (   12522 calls)
     cegterg:upda :      0.14s CPU      0.26s WALL (   12522 calls)
     cegterg:last :      0.41s CPU      0.49s WALL (    8553 calls)
     h_psi        :     19.93s CPU     21.01s WALL (   14779 calls)
     s_psi        :      0.42s CPU      0.36s WALL (   14779 calls)
     g_psi        :      0.06s CPU      0.08s WALL (   12522 calls)

     Called by h_psi:
     h_psi:calbec :      0.98s CPU      0.92s WALL (   14779 calls)
     vloc_psi     :     18.62s CPU     19.57s WALL (   14779 calls)
     add_vuspsi   :      0.26s CPU      0.41s WALL (   14779 calls)

     General routines
     calbec       :      1.16s CPU      1.08s WALL (   16907 calls)
     fft          :      0.03s CPU      0.03s WALL (     369 calls)
     ffts         :      0.00s CPU      0.00s WALL (      58 calls)
     fftw         :     19.55s CPU     20.33s WALL (  439548 calls)
     interpolate  :      0.00s CPU      0.01s WALL (      30 calls)
 
     Parallel routines

     PAW routines
     PAW_pot      :      1.42s CPU      1.79s WALL (      15 calls)
     PAW_symme    :      0.02s CPU      0.02s WALL (      28 calls)
 
     PWSCF        :     37.51s CPU     42.22s WALL

 
   This run was terminated on:   8:38:13  22Mar2024            

=------------------------------------------------------------------------------=
   JOB DONE.
=------------------------------------------------------------------------------=
