
     Program PWSCF v.7.2 starts on 22Mar2024 at  9:39:54 

     This program is part of the open-source Quantum ESPRESSO suite
     for quantum simulation of materials; please cite
         "P. Giannozzi et al., J. Phys.:Condens. Matter 21 395502 (2009);
         "P. Giannozzi et al., J. Phys.:Condens. Matter 29 465901 (2017);
         "P. Giannozzi et al., J. Chem. Phys. 152 154105 (2020);
          URL http://www.quantum-espresso.org", 
     in publications or presentations arising from this work. More details at
     http://www.quantum-espresso.org/quote

     Parallel version (MPI), running on    20 processors

     MPI processes distributed on     1 nodes
     336806 MiB available memory on the printing compute node when the environment starts
 
     Waiting for input...
     Reading input from standard input

     Current dimensions of program PWSCF are:
     Max number of different atomic species (ntypx) = 10
     Max number of k-points (npk) = 120000
     Max angular momentum in pseudopotentials (lmaxx) =  4
     file Co.pbe-spn-kjpaw_psl.0.3.1.UPF: wavefunction(s)  3P 3D renormalized
 
     R & G space division:  proc/nbgrp/npool/nimage =      20
     Subspace diagonalization in iterative solution of the eigenvalue problem:
     a serial algorithm will be used

 
     Parallelization info
     --------------------
     sticks:   dense  smooth     PW     G-vecs:    dense   smooth      PW
     Min          33      32      9                 1149     1108     181
     Max          35      33     10                 1153     1117     186
     Sum         673     649    199                23007    22251    3693
 
     Using Slab Decomposition
 


     bravais-lattice index     =            4
     lattice parameter (alat)  =       4.6393  a.u.
     unit-cell volume          =     142.4783 (a.u.)^3
     number of atoms/cell      =            2
     number of atomic types    =            1
     number of electrons       =        34.00
     number of Kohn-Sham states=           21
     kinetic-energy cutoff     =     110.0000  Ry
     charge density cutoff     =     450.0000  Ry
     scf convergence threshold =      1.0E-06
     mixing beta               =       0.7000
     number of iterations used =            8  plain     mixing
     Exchange-correlation= SLA  PW   PBX  PBC
                           (   1   4   3   4   0   0   0)

     celldm(1)=   4.639278  celldm(2)=   0.000000  celldm(3)=   1.647658
     celldm(4)=   0.000000  celldm(5)=   0.000000  celldm(6)=   0.000000

     crystal axes: (cart. coord. in units of alat)
               a(1) = (   1.000000   0.000000   0.000000 )  
               a(2) = (  -0.500000   0.866025   0.000000 )  
               a(3) = (   0.000000   0.000000   1.647658 )  

     reciprocal axes: (cart. coord. in units 2 pi/alat)
               b(1) = (  1.000000  0.577350  0.000000 )  
               b(2) = (  0.000000  1.154701  0.000000 )  
               b(3) = (  0.000000  0.000000  0.606922 )  


     PseudoPot. # 1 for Co read from file:
     /truba/home/amuhaymin/ZnS/pseudo/QE/Co.pbe-spn-kjpaw_psl.0.3.1.UPF
     MD5 check sum: b0a1ad65bf214e88c1f3d33b20c7d919
     Pseudo is Projector augmented-wave + core cor, Zval = 17.0
     Generated using &quot;atomic&quot; code by A. Dal Corso  v.6.2.2
     Shape of augmentation charge: PSQ
     Using radial grid of 1193 points,  6 beta functions with: 
                l(1) =   0
                l(2) =   0
                l(3) =   1
                l(4) =   1
                l(5) =   2
                l(6) =   2
     Q(r) pseudized with 0 coefficients 


     atomic species   valence    mass     pseudopotential
        Co            17.00    58.93300     Co( 1.00)

     Starting magnetic structure 
     atomic species   magnetization
        Co           0.294

     24 Sym. Ops., with inversion, found (12 have fractional translation)


                                    s                        frac. trans.

      isym =  1     identity                                     

 cryst.   s( 1) = (     1          0          0      )
                  (     0          1          0      )
                  (     0          0          1      )

 cart.    s( 1) = (  1.0000000  0.0000000  0.0000000 )
                  (  0.0000000  1.0000000  0.0000000 )
                  (  0.0000000  0.0000000  1.0000000 )


      isym =  2     180 deg rotation - cart. axis [0,0,1]        

 cryst.   s( 2) = (    -1          0          0      )    f =(  0.0000000 )
                  (     0         -1          0      )       (  0.0000000 )
                  (     0          0          1      )       ( -0.5000000 )

 cart.    s( 2) = ( -1.0000000  0.0000000  0.0000000 )    f =(  0.0000000 )
                  (  0.0000000 -1.0000000  0.0000000 )       (  0.0000000 )
                  (  0.0000000  0.0000000  1.0000000 )       ( -0.8238289 )


      isym =  3     180 deg rotation - cart. axis [0,1,0]        

 cryst.   s( 3) = (    -1          0          0      )    f =(  0.0000000 )
                  (     1          1          0      )       (  0.0000000 )
                  (     0          0         -1      )       (  0.5000000 )

 cart.    s( 3) = ( -1.0000000  0.0000000  0.0000000 )    f =(  0.0000000 )
                  (  0.0000000  1.0000000  0.0000000 )       (  0.0000000 )
                  (  0.0000000  0.0000000 -1.0000000 )       (  0.8238289 )


      isym =  4     180 deg rotation - cart. axis [1,0,0]        

 cryst.   s( 4) = (     1          0          0      )
                  (    -1         -1          0      )
                  (     0          0         -1      )

 cart.    s( 4) = (  1.0000000  0.0000000  0.0000000 )
                  (  0.0000000 -1.0000000  0.0000000 )
                  (  0.0000000  0.0000000 -1.0000000 )


      isym =  5      60 deg rotation - cryst. axis [0,0,1]       

 cryst.   s( 5) = (     1          1          0      )    f =(  0.0000000 )
                  (    -1          0          0      )       ( -0.0000000 )
                  (     0          0          1      )       ( -0.5000000 )

 cart.    s( 5) = (  0.5000000 -0.8660254  0.0000000 )    f =(  0.0000000 )
                  (  0.8660254  0.5000000  0.0000000 )       ( -0.0000000 )
                  (  0.0000000  0.0000000  1.0000000 )       ( -0.8238289 )


      isym =  6      60 deg rotation - cryst. axis [0,0,-1]      

 cryst.   s( 6) = (     0         -1          0      )    f =(  0.0000000 )
                  (     1          1          0      )       ( -0.0000000 )
                  (     0          0          1      )       ( -0.5000000 )

 cart.    s( 6) = (  0.5000000  0.8660254  0.0000000 )    f =(  0.0000000 )
                  ( -0.8660254  0.5000000  0.0000000 )       ( -0.0000000 )
                  (  0.0000000  0.0000000  1.0000000 )       ( -0.8238289 )


      isym =  7     120 deg rotation - cryst. axis [0,0,1]       

 cryst.   s( 7) = (     0          1          0      )
                  (    -1         -1          0      )
                  (     0          0          1      )

 cart.    s( 7) = ( -0.5000000 -0.8660254  0.0000000 )
                  (  0.8660254 -0.5000000  0.0000000 )
                  (  0.0000000  0.0000000  1.0000000 )


      isym =  8     120 deg rotation - cryst. axis [0,0,-1]      

 cryst.   s( 8) = (    -1         -1          0      )
                  (     1          0          0      )
                  (     0          0          1      )

 cart.    s( 8) = ( -0.5000000  0.8660254  0.0000000 )
                  ( -0.8660254 -0.5000000  0.0000000 )
                  (  0.0000000  0.0000000  1.0000000 )


      isym =  9     180 deg rotation - cryst. axis [1,-1,0]      

 cryst.   s( 9) = (     0         -1          0      )    f =(  0.0000000 )
                  (    -1          0          0      )       (  0.0000000 )
                  (     0          0         -1      )       (  0.5000000 )

 cart.    s( 9) = (  0.5000000 -0.8660254  0.0000000 )    f =(  0.0000000 )
                  ( -0.8660254 -0.5000000  0.0000000 )       (  0.0000000 )
                  (  0.0000000  0.0000000 -1.0000000 )       (  0.8238289 )


      isym = 10     180 deg rotation - cryst. axis [2,1,0]       

 cryst.   s(10) = (     1          1          0      )    f =(  0.0000000 )
                  (     0         -1          0      )       ( -0.0000000 )
                  (     0          0         -1      )       (  0.5000000 )

 cart.    s(10) = (  0.5000000  0.8660254  0.0000000 )    f =(  0.0000000 )
                  (  0.8660254 -0.5000000  0.0000000 )       ( -0.0000000 )
                  (  0.0000000  0.0000000 -1.0000000 )       (  0.8238289 )


      isym = 11     180 deg rotation - cryst. axis [0,1,0]       

 cryst.   s(11) = (    -1         -1          0      )
                  (     0          1          0      )
                  (     0          0         -1      )

 cart.    s(11) = ( -0.5000000 -0.8660254  0.0000000 )
                  ( -0.8660254  0.5000000  0.0000000 )
                  (  0.0000000  0.0000000 -1.0000000 )


      isym = 12     180 deg rotation - cryst. axis [1,1,0]       

 cryst.   s(12) = (     0          1          0      )
                  (     1          0          0      )
                  (     0          0         -1      )

 cart.    s(12) = ( -0.5000000  0.8660254  0.0000000 )
                  (  0.8660254  0.5000000  0.0000000 )
                  (  0.0000000  0.0000000 -1.0000000 )


      isym = 13     inversion                                    

 cryst.   s(13) = (    -1          0          0      )
                  (     0         -1          0      )
                  (     0          0         -1      )

 cart.    s(13) = ( -1.0000000  0.0000000  0.0000000 )
                  (  0.0000000 -1.0000000  0.0000000 )
                  (  0.0000000  0.0000000 -1.0000000 )


      isym = 14     inv. 180 deg rotation - cart. axis [0,0,1]   

 cryst.   s(14) = (     1          0          0      )    f =(  0.0000000 )
                  (     0          1          0      )       (  0.0000000 )
                  (     0          0         -1      )       (  0.5000000 )

 cart.    s(14) = (  1.0000000  0.0000000  0.0000000 )    f =(  0.0000000 )
                  (  0.0000000  1.0000000  0.0000000 )       (  0.0000000 )
                  (  0.0000000  0.0000000 -1.0000000 )       (  0.8238289 )


      isym = 15     inv. 180 deg rotation - cart. axis [0,1,0]   

 cryst.   s(15) = (     1          0          0      )    f =(  0.0000000 )
                  (    -1         -1          0      )       (  0.0000000 )
                  (     0          0          1      )       ( -0.5000000 )

 cart.    s(15) = (  1.0000000  0.0000000  0.0000000 )    f =(  0.0000000 )
                  (  0.0000000 -1.0000000  0.0000000 )       (  0.0000000 )
                  (  0.0000000  0.0000000  1.0000000 )       ( -0.8238289 )


      isym = 16     inv. 180 deg rotation - cart. axis [1,0,0]   

 cryst.   s(16) = (    -1          0          0      )
                  (     1          1          0      )
                  (     0          0          1      )

 cart.    s(16) = ( -1.0000000  0.0000000  0.0000000 )
                  (  0.0000000  1.0000000  0.0000000 )
                  (  0.0000000  0.0000000  1.0000000 )


      isym = 17     inv.  60 deg rotation - cryst. axis [0,0,1]  

 cryst.   s(17) = (    -1         -1          0      )    f =(  0.0000000 )
                  (     1          0          0      )       (  0.0000000 )
                  (     0          0         -1      )       (  0.5000000 )

 cart.    s(17) = ( -0.5000000  0.8660254  0.0000000 )    f =(  0.0000000 )
                  ( -0.8660254 -0.5000000  0.0000000 )       (  0.0000000 )
                  (  0.0000000  0.0000000 -1.0000000 )       (  0.8238289 )


      isym = 18     inv.  60 deg rotation - cryst. axis [0,0,-1] 

 cryst.   s(18) = (     0          1          0      )    f =(  0.0000000 )
                  (    -1         -1          0      )       ( -0.0000000 )
                  (     0          0         -1      )       (  0.5000000 )

 cart.    s(18) = ( -0.5000000 -0.8660254  0.0000000 )    f =(  0.0000000 )
                  (  0.8660254 -0.5000000  0.0000000 )       ( -0.0000000 )
                  (  0.0000000  0.0000000 -1.0000000 )       (  0.8238289 )


      isym = 19     inv. 120 deg rotation - cryst. axis [0,0,1]  

 cryst.   s(19) = (     0         -1          0      )
                  (     1          1          0      )
                  (     0          0         -1      )

 cart.    s(19) = (  0.5000000  0.8660254  0.0000000 )
                  ( -0.8660254  0.5000000  0.0000000 )
                  (  0.0000000  0.0000000 -1.0000000 )


      isym = 20     inv. 120 deg rotation - cryst. axis [0,0,-1] 

 cryst.   s(20) = (     1          1          0      )
                  (    -1          0          0      )
                  (     0          0         -1      )

 cart.    s(20) = (  0.5000000 -0.8660254  0.0000000 )
                  (  0.8660254  0.5000000  0.0000000 )
                  (  0.0000000  0.0000000 -1.0000000 )


      isym = 21     inv. 180 deg rotation - cryst. axis [1,-1,0] 

 cryst.   s(21) = (     0          1          0      )    f =(  0.0000000 )
                  (     1          0          0      )       ( -0.0000000 )
                  (     0          0          1      )       ( -0.5000000 )

 cart.    s(21) = ( -0.5000000  0.8660254  0.0000000 )    f =(  0.0000000 )
                  (  0.8660254  0.5000000  0.0000000 )       ( -0.0000000 )
                  (  0.0000000  0.0000000  1.0000000 )       ( -0.8238289 )


      isym = 22     inv. 180 deg rotation - cryst. axis [2,1,0]  

 cryst.   s(22) = (    -1         -1          0      )    f =(  0.0000000 )
                  (     0          1          0      )       ( -0.0000000 )
                  (     0          0          1      )       ( -0.5000000 )

 cart.    s(22) = ( -0.5000000 -0.8660254  0.0000000 )    f =(  0.0000000 )
                  ( -0.8660254  0.5000000  0.0000000 )       ( -0.0000000 )
                  (  0.0000000  0.0000000  1.0000000 )       ( -0.8238289 )


      isym = 23     inv. 180 deg rotation - cryst. axis [0,1,0]  

 cryst.   s(23) = (     1          1          0      )
                  (     0         -1          0      )
                  (     0          0          1      )

 cart.    s(23) = (  0.5000000  0.8660254  0.0000000 )
                  (  0.8660254 -0.5000000  0.0000000 )
                  (  0.0000000  0.0000000  1.0000000 )


      isym = 24     inv. 180 deg rotation - cryst. axis [1,1,0]  

 cryst.   s(24) = (     0         -1          0      )
                  (    -1          0          0      )
                  (     0          0          1      )

 cart.    s(24) = (  0.5000000 -0.8660254  0.0000000 )
                  ( -0.8660254 -0.5000000  0.0000000 )
                  (  0.0000000  0.0000000  1.0000000 )


     point group D_6h(6/mmm)
     there are 12 classes
     the character table:

       E     2C6   2C3   C2    3C2'  3C2'' i     2S3   2S6   s_h   3s_d  3s_v 
A_1g   1.00  1.00  1.00  1.00  1.00  1.00  1.00  1.00  1.00  1.00  1.00  1.00
A_2g   1.00  1.00  1.00  1.00 -1.00 -1.00  1.00  1.00  1.00  1.00 -1.00 -1.00
B_1g   1.00 -1.00  1.00 -1.00  1.00 -1.00  1.00 -1.00  1.00 -1.00  1.00 -1.00
B_2g   1.00 -1.00  1.00 -1.00 -1.00  1.00  1.00 -1.00  1.00 -1.00 -1.00  1.00
E_1g   2.00  1.00 -1.00 -2.00  0.00  0.00  2.00  1.00 -1.00 -2.00  0.00  0.00
E_2g   2.00 -1.00 -1.00  2.00  0.00  0.00  2.00 -1.00 -1.00  2.00  0.00  0.00
A_1u   1.00  1.00  1.00  1.00  1.00  1.00 -1.00 -1.00 -1.00 -1.00 -1.00 -1.00
A_2u   1.00  1.00  1.00  1.00 -1.00 -1.00 -1.00 -1.00 -1.00 -1.00  1.00  1.00
B_1u   1.00 -1.00  1.00 -1.00  1.00 -1.00 -1.00  1.00 -1.00  1.00 -1.00  1.00
B_2u   1.00 -1.00  1.00 -1.00 -1.00  1.00 -1.00  1.00 -1.00  1.00  1.00 -1.00
E_1u   2.00  1.00 -1.00 -2.00  0.00  0.00 -2.00 -1.00  1.00  2.00  0.00  0.00
E_2u   2.00 -1.00 -1.00  2.00  0.00  0.00 -2.00  1.00  1.00 -2.00  0.00  0.00

     the symmetry operations in each class and the name of the first element:

     E        1
          identity                                               
     2C6      5    6
           60 deg rotation - cryst. axis [0,0,1]                 
     2C3      7    8
          120 deg rotation - cryst. axis [0,0,1]                 
     C2       2
          180 deg rotation - cart. axis [0,0,1]                  
     3C2'     4   12   11
          180 deg rotation - cart. axis [1,0,0]                  
     3C2''    3    9   10
          180 deg rotation - cart. axis [0,1,0]                  
     i       13
          inversion                                              
     2S3     17   18
          inv.  60 deg rotation - cryst. axis [0,0,1]            
     2S6     19   20
          inv. 120 deg rotation - cryst. axis [0,0,1]            
     s_h     14
          inv. 180 deg rotation - cart. axis [0,0,1]             
     3s_d    16   24   23
          inv. 180 deg rotation - cart. axis [1,0,0]             
     3s_v    15   21   22
          inv. 180 deg rotation - cart. axis [0,1,0]             

   Cartesian axes

     site n.     atom                  positions (alat units)
         1           Co  tau(   1) = (  -0.0000000   0.5773503   0.4119145  )
         2           Co  tau(   2) = (   0.5000000   0.2886751   1.2357434  )

   Crystallographic axes

     site n.     atom                  positions (cryst. coord.)
         1           Co  tau(   1) = (  0.3333333  0.6666667  0.2500000  )
         2           Co  tau(   2) = (  0.6666667  0.3333333  0.7500000  )

     number of k points=    76  Gaussian smearing, width (Ry)=  0.0010
                       cart. coord. in units 2pi/alat
        k(    1) = (   0.0000000   0.0000000   0.0000000), wk =   0.0011574
        k(    2) = (   0.0000000   0.0000000   0.1011537), wk =   0.0023148
        k(    3) = (   0.0000000   0.0000000   0.2023074), wk =   0.0023148
        k(    4) = (   0.0000000   0.0000000  -0.3034611), wk =   0.0011574
        k(    5) = (   0.0000000   0.0962250   0.0000000), wk =   0.0069444
        k(    6) = (   0.0000000   0.0962250   0.1011537), wk =   0.0138889
        k(    7) = (   0.0000000   0.0962250   0.2023074), wk =   0.0138889
        k(    8) = (   0.0000000   0.0962250  -0.3034611), wk =   0.0069444
        k(    9) = (   0.0000000   0.1924501   0.0000000), wk =   0.0069444
        k(   10) = (   0.0000000   0.1924501   0.1011537), wk =   0.0138889
        k(   11) = (   0.0000000   0.1924501   0.2023074), wk =   0.0138889
        k(   12) = (   0.0000000   0.1924501  -0.3034611), wk =   0.0069444
        k(   13) = (   0.0000000   0.2886751   0.0000000), wk =   0.0069444
        k(   14) = (   0.0000000   0.2886751   0.1011537), wk =   0.0138889
        k(   15) = (   0.0000000   0.2886751   0.2023074), wk =   0.0138889
        k(   16) = (   0.0000000   0.2886751  -0.3034611), wk =   0.0069444
        k(   17) = (   0.0000000   0.3849002   0.0000000), wk =   0.0069444
        k(   18) = (   0.0000000   0.3849002   0.1011537), wk =   0.0138889
        k(   19) = (   0.0000000   0.3849002   0.2023074), wk =   0.0138889
        k(   20) = (   0.0000000   0.3849002  -0.3034611), wk =   0.0069444
        k(   21) = (   0.0000000   0.4811252   0.0000000), wk =   0.0069444
        k(   22) = (   0.0000000   0.4811252   0.1011537), wk =   0.0138889
        k(   23) = (   0.0000000   0.4811252   0.2023074), wk =   0.0138889
        k(   24) = (   0.0000000   0.4811252  -0.3034611), wk =   0.0069444
        k(   25) = (   0.0000000  -0.5773503   0.0000000), wk =   0.0034722
        k(   26) = (   0.0000000  -0.5773503   0.1011537), wk =   0.0069444
        k(   27) = (   0.0000000  -0.5773503   0.2023074), wk =   0.0069444
        k(   28) = (   0.0000000  -0.5773503  -0.3034611), wk =   0.0034722
        k(   29) = (   0.0833333   0.1443376   0.0000000), wk =   0.0069444
        k(   30) = (   0.0833333   0.1443376   0.1011537), wk =   0.0138889
        k(   31) = (   0.0833333   0.1443376   0.2023074), wk =   0.0138889
        k(   32) = (   0.0833333   0.1443376  -0.3034611), wk =   0.0069444
        k(   33) = (   0.0833333   0.2405626   0.0000000), wk =   0.0138889
        k(   34) = (   0.0833333   0.2405626   0.1011537), wk =   0.0277778
        k(   35) = (   0.0833333   0.2405626   0.2023074), wk =   0.0277778
        k(   36) = (   0.0833333   0.2405626  -0.3034611), wk =   0.0138889
        k(   37) = (   0.0833333   0.3367877   0.0000000), wk =   0.0138889
        k(   38) = (   0.0833333   0.3367877   0.1011537), wk =   0.0277778
        k(   39) = (   0.0833333   0.3367877   0.2023074), wk =   0.0277778
        k(   40) = (   0.0833333   0.3367877  -0.3034611), wk =   0.0138889
        k(   41) = (   0.0833333   0.4330127   0.0000000), wk =   0.0138889
        k(   42) = (   0.0833333   0.4330127   0.1011537), wk =   0.0277778
        k(   43) = (   0.0833333   0.4330127   0.2023074), wk =   0.0277778
        k(   44) = (   0.0833333   0.4330127  -0.3034611), wk =   0.0138889
        k(   45) = (   0.0833333   0.5292377   0.0000000), wk =   0.0138889
        k(   46) = (   0.0833333   0.5292377   0.1011537), wk =   0.0277778
        k(   47) = (   0.0833333   0.5292377   0.2023074), wk =   0.0277778
        k(   48) = (   0.0833333   0.5292377  -0.3034611), wk =   0.0138889
        k(   49) = (   0.1666667   0.2886751   0.0000000), wk =   0.0069444
        k(   50) = (   0.1666667   0.2886751   0.1011537), wk =   0.0138889
        k(   51) = (   0.1666667   0.2886751   0.2023074), wk =   0.0138889
        k(   52) = (   0.1666667   0.2886751  -0.3034611), wk =   0.0069444
        k(   53) = (   0.1666667   0.3849002   0.0000000), wk =   0.0138889
        k(   54) = (   0.1666667   0.3849002   0.1011537), wk =   0.0277778
        k(   55) = (   0.1666667   0.3849002   0.2023074), wk =   0.0277778
        k(   56) = (   0.1666667   0.3849002  -0.3034611), wk =   0.0138889
        k(   57) = (   0.1666667   0.4811252   0.0000000), wk =   0.0138889
        k(   58) = (   0.1666667   0.4811252   0.1011537), wk =   0.0277778
        k(   59) = (   0.1666667   0.4811252   0.2023074), wk =   0.0277778
        k(   60) = (   0.1666667   0.4811252  -0.3034611), wk =   0.0138889
        k(   61) = (   0.1666667   0.5773503   0.0000000), wk =   0.0069444
        k(   62) = (   0.1666667   0.5773503   0.1011537), wk =   0.0138889
        k(   63) = (   0.1666667   0.5773503   0.2023074), wk =   0.0138889
        k(   64) = (   0.1666667   0.5773503  -0.3034611), wk =   0.0069444
        k(   65) = (   0.2500000   0.4330127   0.0000000), wk =   0.0069444
        k(   66) = (   0.2500000   0.4330127   0.1011537), wk =   0.0138889
        k(   67) = (   0.2500000   0.4330127   0.2023074), wk =   0.0138889
        k(   68) = (   0.2500000   0.4330127  -0.3034611), wk =   0.0069444
        k(   69) = (   0.2500000   0.5292377   0.0000000), wk =   0.0138889
        k(   70) = (   0.2500000   0.5292377   0.1011537), wk =   0.0277778
        k(   71) = (   0.2500000   0.5292377   0.2023074), wk =   0.0277778
        k(   72) = (   0.2500000   0.5292377  -0.3034611), wk =   0.0138889
        k(   73) = (   0.3333333   0.5773503   0.0000000), wk =   0.0023148
        k(   74) = (   0.3333333   0.5773503   0.1011537), wk =   0.0046296
        k(   75) = (   0.3333333   0.5773503   0.2023074), wk =   0.0046296
        k(   76) = (   0.3333333   0.5773503  -0.3034611), wk =   0.0023148

                       cryst. coord.
        k(    1) = (   0.0000000   0.0000000   0.0000000), wk =   0.0011574
        k(    2) = (   0.0000000   0.0000000   0.1666667), wk =   0.0023148
        k(    3) = (   0.0000000   0.0000000   0.3333333), wk =   0.0023148
        k(    4) = (   0.0000000   0.0000000  -0.5000000), wk =   0.0011574
        k(    5) = (   0.0000000   0.0833333   0.0000000), wk =   0.0069444
        k(    6) = (   0.0000000   0.0833333   0.1666667), wk =   0.0138889
        k(    7) = (   0.0000000   0.0833333   0.3333333), wk =   0.0138889
        k(    8) = (   0.0000000   0.0833333  -0.5000000), wk =   0.0069444
        k(    9) = (   0.0000000   0.1666667   0.0000000), wk =   0.0069444
        k(   10) = (   0.0000000   0.1666667   0.1666667), wk =   0.0138889
        k(   11) = (   0.0000000   0.1666667   0.3333333), wk =   0.0138889
        k(   12) = (   0.0000000   0.1666667  -0.5000000), wk =   0.0069444
        k(   13) = (   0.0000000   0.2500000   0.0000000), wk =   0.0069444
        k(   14) = (   0.0000000   0.2500000   0.1666667), wk =   0.0138889
        k(   15) = (   0.0000000   0.2500000   0.3333333), wk =   0.0138889
        k(   16) = (   0.0000000   0.2500000  -0.5000000), wk =   0.0069444
        k(   17) = (   0.0000000   0.3333333   0.0000000), wk =   0.0069444
        k(   18) = (   0.0000000   0.3333333   0.1666667), wk =   0.0138889
        k(   19) = (   0.0000000   0.3333333   0.3333333), wk =   0.0138889
        k(   20) = (   0.0000000   0.3333333  -0.5000000), wk =   0.0069444
        k(   21) = (   0.0000000   0.4166667   0.0000000), wk =   0.0069444
        k(   22) = (   0.0000000   0.4166667   0.1666667), wk =   0.0138889
        k(   23) = (   0.0000000   0.4166667   0.3333333), wk =   0.0138889
        k(   24) = (   0.0000000   0.4166667  -0.5000000), wk =   0.0069444
        k(   25) = (   0.0000000  -0.5000000   0.0000000), wk =   0.0034722
        k(   26) = (   0.0000000  -0.5000000   0.1666667), wk =   0.0069444
        k(   27) = (   0.0000000  -0.5000000   0.3333333), wk =   0.0069444
        k(   28) = (   0.0000000  -0.5000000  -0.5000000), wk =   0.0034722
        k(   29) = (   0.0833333   0.0833333   0.0000000), wk =   0.0069444
        k(   30) = (   0.0833333   0.0833333   0.1666667), wk =   0.0138889
        k(   31) = (   0.0833333   0.0833333   0.3333333), wk =   0.0138889
        k(   32) = (   0.0833333   0.0833333  -0.5000000), wk =   0.0069444
        k(   33) = (   0.0833333   0.1666667   0.0000000), wk =   0.0138889
        k(   34) = (   0.0833333   0.1666667   0.1666667), wk =   0.0277778
        k(   35) = (   0.0833333   0.1666667   0.3333333), wk =   0.0277778
        k(   36) = (   0.0833333   0.1666667  -0.5000000), wk =   0.0138889
        k(   37) = (   0.0833333   0.2500000   0.0000000), wk =   0.0138889
        k(   38) = (   0.0833333   0.2500000   0.1666667), wk =   0.0277778
        k(   39) = (   0.0833333   0.2500000   0.3333333), wk =   0.0277778
        k(   40) = (   0.0833333   0.2500000  -0.5000000), wk =   0.0138889
        k(   41) = (   0.0833333   0.3333333   0.0000000), wk =   0.0138889
        k(   42) = (   0.0833333   0.3333333   0.1666667), wk =   0.0277778
        k(   43) = (   0.0833333   0.3333333   0.3333333), wk =   0.0277778
        k(   44) = (   0.0833333   0.3333333  -0.5000000), wk =   0.0138889
        k(   45) = (   0.0833333   0.4166667   0.0000000), wk =   0.0138889
        k(   46) = (   0.0833333   0.4166667   0.1666667), wk =   0.0277778
        k(   47) = (   0.0833333   0.4166667   0.3333333), wk =   0.0277778
        k(   48) = (   0.0833333   0.4166667  -0.5000000), wk =   0.0138889
        k(   49) = (   0.1666667   0.1666667   0.0000000), wk =   0.0069444
        k(   50) = (   0.1666667   0.1666667   0.1666667), wk =   0.0138889
        k(   51) = (   0.1666667   0.1666667   0.3333333), wk =   0.0138889
        k(   52) = (   0.1666667   0.1666667  -0.5000000), wk =   0.0069444
        k(   53) = (   0.1666667   0.2500000   0.0000000), wk =   0.0138889
        k(   54) = (   0.1666667   0.2500000   0.1666667), wk =   0.0277778
        k(   55) = (   0.1666667   0.2500000   0.3333333), wk =   0.0277778
        k(   56) = (   0.1666667   0.2500000  -0.5000000), wk =   0.0138889
        k(   57) = (   0.1666667   0.3333333   0.0000000), wk =   0.0138889
        k(   58) = (   0.1666667   0.3333333   0.1666667), wk =   0.0277778
        k(   59) = (   0.1666667   0.3333333   0.3333333), wk =   0.0277778
        k(   60) = (   0.1666667   0.3333333  -0.5000000), wk =   0.0138889
        k(   61) = (   0.1666667   0.4166667   0.0000000), wk =   0.0069444
        k(   62) = (   0.1666667   0.4166667   0.1666667), wk =   0.0138889
        k(   63) = (   0.1666667   0.4166667   0.3333333), wk =   0.0138889
        k(   64) = (   0.1666667   0.4166667  -0.5000000), wk =   0.0069444
        k(   65) = (   0.2500000   0.2500000   0.0000000), wk =   0.0069444
        k(   66) = (   0.2500000   0.2500000   0.1666667), wk =   0.0138889
        k(   67) = (   0.2500000   0.2500000   0.3333333), wk =   0.0138889
        k(   68) = (   0.2500000   0.2500000  -0.5000000), wk =   0.0069444
        k(   69) = (   0.2500000   0.3333333   0.0000000), wk =   0.0138889
        k(   70) = (   0.2500000   0.3333333   0.1666667), wk =   0.0277778
        k(   71) = (   0.2500000   0.3333333   0.3333333), wk =   0.0277778
        k(   72) = (   0.2500000   0.3333333  -0.5000000), wk =   0.0138889
        k(   73) = (   0.3333333   0.3333333   0.0000000), wk =   0.0023148
        k(   74) = (   0.3333333   0.3333333   0.1666667), wk =   0.0046296
        k(   75) = (   0.3333333   0.3333333   0.3333333), wk =   0.0046296
        k(   76) = (   0.3333333   0.3333333  -0.5000000), wk =   0.0023148

     Dense  grid:    23007 G-vectors     FFT dimensions: (  32,  32,  54)

     Smooth grid:    22251 G-vectors     FFT dimensions: (  32,  32,  54)

     Dynamical RAM for                 wfc:       0.04 MB

     Dynamical RAM for     wfc (w. buffer):       6.77 MB

     Dynamical RAM for           str. fact:       0.02 MB

     Dynamical RAM for           local pot:       0.00 MB

     Dynamical RAM for          nlocal pot:       0.08 MB

     Dynamical RAM for                qrad:       1.70 MB

     Dynamical RAM for          rho,v,vnew:       0.25 MB

     Dynamical RAM for               rhoin:       0.08 MB

     Dynamical RAM for            rho*nmix:       0.56 MB

     Dynamical RAM for           G-vectors:       0.07 MB

     Dynamical RAM for          h,s,v(r/c):       0.08 MB

     Dynamical RAM for          <psi|beta>:       0.01 MB

     Dynamical RAM for                 psi:       0.09 MB

     Dynamical RAM for                hpsi:       0.09 MB

     Dynamical RAM for                spsi:       0.09 MB

     Dynamical RAM for      wfcinit/wfcrot:       0.10 MB

     Dynamical RAM for           addusdens:       3.32 MB

     Estimated static dynamical RAM per process >       9.14 MB

     Estimated max dynamical RAM per process >      13.02 MB

     Estimated total dynamical RAM >     260.34 MB

     Check: negative core charge=   -0.000043
     Generating pointlists ...
     new r_m :   0.4125 (alat units)  1.9137 (a.u.) for type    1

     The initial density is read from file :
     ./out2/Co.save/charge-density


     starting charge      34.0421, renormalised to      34.0000

     negative rho (up, down):  1.383E-01 1.154E-01
     Starting wfcs from file
     Checking if some PAW data can be deallocated... 

     total cpu time spent up to now is        0.6 secs

     Self-consistent Calculation

     iteration #  1     ecut=   110.00 Ry     beta= 0.70
     Davidson diagonalization with overlap

---- Real-time Memory Report at c_bands before calling an iterative solver
            56 MiB given to the printing process from OS
             0 MiB allocation reported by mallinfo(arena+hblkhd)
        336241 MiB available memory on the node where the printing process lives
------------------
     ethr =  1.00E-05,  avg # of iterations = 10.2

     negative rho (up, down):  2.664E-03 1.697E-03

     total cpu time spent up to now is        5.6 secs

     total energy              =    -753.31804893 Ry
     estimated scf accuracy    <       0.05896990 Ry

     total magnetization       =     3.30 Bohr mag/cell
     absolute magnetization    =     3.55 Bohr mag/cell

     iteration #  2     ecut=   110.00 Ry     beta= 0.70
     Davidson diagonalization with overlap

---- Real-time Memory Report at c_bands before calling an iterative solver
            77 MiB given to the printing process from OS
             0 MiB allocation reported by mallinfo(arena+hblkhd)
        336019 MiB available memory on the node where the printing process lives
------------------
     ethr =  1.73E-04,  avg # of iterations =  2.0

     total cpu time spent up to now is        7.1 secs

     total energy              =    -753.41608111 Ry
     estimated scf accuracy    <       0.01884822 Ry

     total magnetization       =     3.21 Bohr mag/cell
     absolute magnetization    =     3.46 Bohr mag/cell

     iteration #  3     ecut=   110.00 Ry     beta= 0.70
     Davidson diagonalization with overlap

---- Real-time Memory Report at c_bands before calling an iterative solver
            79 MiB given to the printing process from OS
             0 MiB allocation reported by mallinfo(arena+hblkhd)
        336005 MiB available memory on the node where the printing process lives
------------------
     ethr =  5.54E-05,  avg # of iterations =  4.9

     total cpu time spent up to now is        9.5 secs

     total energy              =    -753.45037273 Ry
     estimated scf accuracy    <       0.05089048 Ry

     total magnetization       =     3.25 Bohr mag/cell
     absolute magnetization    =     3.55 Bohr mag/cell

     iteration #  4     ecut=   110.00 Ry     beta= 0.70
     Davidson diagonalization with overlap

---- Real-time Memory Report at c_bands before calling an iterative solver
            80 MiB given to the printing process from OS
             0 MiB allocation reported by mallinfo(arena+hblkhd)
        335995 MiB available memory on the node where the printing process lives
------------------
     ethr =  5.54E-05,  avg # of iterations =  2.1

     total cpu time spent up to now is       11.1 secs

     total energy              =    -753.45022431 Ry
     estimated scf accuracy    <       0.00964247 Ry

     total magnetization       =     3.23 Bohr mag/cell
     absolute magnetization    =     3.53 Bohr mag/cell

     iteration #  5     ecut=   110.00 Ry     beta= 0.70
     Davidson diagonalization with overlap

---- Real-time Memory Report at c_bands before calling an iterative solver
            81 MiB given to the printing process from OS
             0 MiB allocation reported by mallinfo(arena+hblkhd)
        335984 MiB available memory on the node where the printing process lives
------------------
     ethr =  2.84E-05,  avg # of iterations =  4.1

     total cpu time spent up to now is       13.0 secs

     total energy              =    -753.45412771 Ry
     estimated scf accuracy    <       0.00158853 Ry

     total magnetization       =     3.21 Bohr mag/cell
     absolute magnetization    =     3.52 Bohr mag/cell

     iteration #  6     ecut=   110.00 Ry     beta= 0.70
     Davidson diagonalization with overlap

---- Real-time Memory Report at c_bands before calling an iterative solver
            82 MiB given to the printing process from OS
             0 MiB allocation reported by mallinfo(arena+hblkhd)
        335971 MiB available memory on the node where the printing process lives
------------------
     ethr =  4.67E-06,  avg # of iterations =  1.9

     total cpu time spent up to now is       14.4 secs

     total energy              =    -753.45407649 Ry
     estimated scf accuracy    <       0.00075351 Ry

     total magnetization       =     3.22 Bohr mag/cell
     absolute magnetization    =     3.52 Bohr mag/cell

     iteration #  7     ecut=   110.00 Ry     beta= 0.70
     Davidson diagonalization with overlap

---- Real-time Memory Report at c_bands before calling an iterative solver
            84 MiB given to the printing process from OS
             0 MiB allocation reported by mallinfo(arena+hblkhd)
        335965 MiB available memory on the node where the printing process lives
------------------
     ethr =  2.22E-06,  avg # of iterations =  1.8

     total cpu time spent up to now is       15.8 secs

     total energy              =    -753.45399667 Ry
     estimated scf accuracy    <       0.00023773 Ry

     total magnetization       =     3.22 Bohr mag/cell
     absolute magnetization    =     3.52 Bohr mag/cell

     iteration #  8     ecut=   110.00 Ry     beta= 0.70
     Davidson diagonalization with overlap

---- Real-time Memory Report at c_bands before calling an iterative solver
            84 MiB given to the printing process from OS
             0 MiB allocation reported by mallinfo(arena+hblkhd)
        335962 MiB available memory on the node where the printing process lives
------------------
     ethr =  6.99E-07,  avg # of iterations =  4.3

     total cpu time spent up to now is       17.9 secs

     total energy              =    -753.45416954 Ry
     estimated scf accuracy    <       0.00020174 Ry

     total magnetization       =     3.23 Bohr mag/cell
     absolute magnetization    =     3.53 Bohr mag/cell

     iteration #  9     ecut=   110.00 Ry     beta= 0.70
     Davidson diagonalization with overlap

---- Real-time Memory Report at c_bands before calling an iterative solver
            85 MiB given to the printing process from OS
             0 MiB allocation reported by mallinfo(arena+hblkhd)
        335953 MiB available memory on the node where the printing process lives
------------------
     ethr =  5.93E-07,  avg # of iterations =  1.1

     total cpu time spent up to now is       19.2 secs

     total energy              =    -753.45411298 Ry
     estimated scf accuracy    <       0.00022881 Ry

     total magnetization       =     3.23 Bohr mag/cell
     absolute magnetization    =     3.53 Bohr mag/cell

     iteration # 10     ecut=   110.00 Ry     beta= 0.70
     Davidson diagonalization with overlap

---- Real-time Memory Report at c_bands before calling an iterative solver
            85 MiB given to the printing process from OS
             0 MiB allocation reported by mallinfo(arena+hblkhd)
        335952 MiB available memory on the node where the printing process lives
------------------
     ethr =  5.93E-07,  avg # of iterations =  1.0

     total cpu time spent up to now is       20.4 secs

     total energy              =    -753.45411886 Ry
     estimated scf accuracy    <       0.00005069 Ry

     total magnetization       =     3.22 Bohr mag/cell
     absolute magnetization    =     3.53 Bohr mag/cell

     iteration # 11     ecut=   110.00 Ry     beta= 0.70
     Davidson diagonalization with overlap

---- Real-time Memory Report at c_bands before calling an iterative solver
            86 MiB given to the printing process from OS
             0 MiB allocation reported by mallinfo(arena+hblkhd)
        335945 MiB available memory on the node where the printing process lives
------------------
     ethr =  1.49E-07,  avg # of iterations =  2.0

     total cpu time spent up to now is       21.9 secs

     total energy              =    -753.45412427 Ry
     estimated scf accuracy    <       0.00001324 Ry

     total magnetization       =     3.22 Bohr mag/cell
     absolute magnetization    =     3.53 Bohr mag/cell

     iteration # 12     ecut=   110.00 Ry     beta= 0.70
     Davidson diagonalization with overlap

---- Real-time Memory Report at c_bands before calling an iterative solver
            86 MiB given to the printing process from OS
             0 MiB allocation reported by mallinfo(arena+hblkhd)
        335944 MiB available memory on the node where the printing process lives
------------------
     ethr =  3.89E-08,  avg # of iterations =  1.8

     total cpu time spent up to now is       23.3 secs

     total energy              =    -753.45412525 Ry
     estimated scf accuracy    <       0.00000900 Ry

     total magnetization       =     3.22 Bohr mag/cell
     absolute magnetization    =     3.53 Bohr mag/cell

     iteration # 13     ecut=   110.00 Ry     beta= 0.70
     Davidson diagonalization with overlap

---- Real-time Memory Report at c_bands before calling an iterative solver
            86 MiB given to the printing process from OS
             0 MiB allocation reported by mallinfo(arena+hblkhd)
        335940 MiB available memory on the node where the printing process lives
------------------
     ethr =  2.65E-08,  avg # of iterations =  1.6

     total cpu time spent up to now is       24.7 secs

     total energy              =    -753.45412575 Ry
     estimated scf accuracy    <       0.00000992 Ry

     total magnetization       =     3.22 Bohr mag/cell
     absolute magnetization    =     3.53 Bohr mag/cell

     iteration # 14     ecut=   110.00 Ry     beta= 0.70
     Davidson diagonalization with overlap

---- Real-time Memory Report at c_bands before calling an iterative solver
            86 MiB given to the printing process from OS
             0 MiB allocation reported by mallinfo(arena+hblkhd)
        335940 MiB available memory on the node where the printing process lives
------------------
     ethr =  2.65E-08,  avg # of iterations =  1.0

     total cpu time spent up to now is       25.9 secs

     total energy              =    -753.45412458 Ry
     estimated scf accuracy    <       0.00000893 Ry

     total magnetization       =     3.22 Bohr mag/cell
     absolute magnetization    =     3.53 Bohr mag/cell

     iteration # 15     ecut=   110.00 Ry     beta= 0.70
     Davidson diagonalization with overlap

---- Real-time Memory Report at c_bands before calling an iterative solver
            87 MiB given to the printing process from OS
             0 MiB allocation reported by mallinfo(arena+hblkhd)
        335938 MiB available memory on the node where the printing process lives
------------------
     ethr =  2.63E-08,  avg # of iterations =  1.2

     total cpu time spent up to now is       27.2 secs

     total energy              =    -753.45412393 Ry
     estimated scf accuracy    <       0.00000380 Ry

     total magnetization       =     3.22 Bohr mag/cell
     absolute magnetization    =     3.53 Bohr mag/cell

     iteration # 16     ecut=   110.00 Ry     beta= 0.70
     Davidson diagonalization with overlap

---- Real-time Memory Report at c_bands before calling an iterative solver
            87 MiB given to the printing process from OS
             0 MiB allocation reported by mallinfo(arena+hblkhd)
        335938 MiB available memory on the node where the printing process lives
------------------
     ethr =  1.12E-08,  avg # of iterations =  2.1
 
     Magnetic moment per site  (integrated on atomic sphere of radius R)
     atom   1 (R=0.413)  charge= 15.5688  magn=  1.6827
     atom   2 (R=0.413)  charge= 15.5688  magn=  1.6827

     total cpu time spent up to now is       28.6 secs

     End of self-consistent calculation

 ------ SPIN UP ------------


          k = 0.0000 0.0000 0.0000 (  2779 PWs)   bands (ev):

   -76.8149 -76.7560 -40.2257 -39.9012 -39.9012 -39.8818 -39.8543 -39.8543
    10.1477  13.9764  16.5423  16.6740  16.6740  16.9814  16.9814  17.4099
    17.4099  18.4926  18.4926  18.8445  25.5886

     occupation numbers 
     1.0000   1.0000   1.0000   1.0000   1.0000   1.0000   1.0000   1.0000
     1.0000   1.0000   1.0000   1.0000   1.0000   1.0000   1.0000   1.0000
     1.0000   1.0000   1.0000   1.0000   0.0000

          k = 0.0000 0.0000 0.1012 (  2779 PWs)   bands (ev):

   -76.8110 -76.7600 -40.2030 -39.9052 -39.8981 -39.8981 -39.8574 -39.8574
    10.4234  13.8971  16.4731  16.6191  16.6191  16.9127  16.9127  17.5612
    17.5612  17.9344  18.4727  18.4727  27.0673

     occupation numbers 
     1.0000   1.0000   1.0000   1.0000   1.0000   1.0000   1.0000   1.0000
     1.0000   1.0000   1.0000   1.0000   1.0000   1.0000   1.0000   1.0000
     1.0000   1.0000   1.0000   1.0000   0.0000

          k = 0.0000 0.0000 0.2023 (  2804 PWs)   bands (ev):

   -76.8002 -76.7708 -40.1407 -39.9687 -39.8895 -39.8895 -39.8661 -39.8661
    11.2132  13.4346  16.3137  16.5716  16.5716  16.6716  16.7598  16.7598
    17.8706  17.8706  18.3794  18.3794  30.2301

     occupation numbers 
     1.0000   1.0000   1.0000   1.0000   1.0000   1.0000   1.0000   1.0000
     1.0000   1.0000   1.0000   1.0000   1.0000   1.0000   1.0000   1.0000
     1.0000   1.0000   1.0000   1.0000   0.0000

          k = 0.0000 0.0000-0.3035 (  2810 PWs)   bands (ev):

   -76.7855 -76.7855 -40.0550 -40.0550 -39.8778 -39.8778 -39.8778 -39.8778
    12.3640  12.3640  16.2385  16.2385  16.6224  16.6224  16.6224  16.6224
    18.1722  18.1722  18.1722  18.1722  34.0228

     occupation numbers 
     1.0000   1.0000   1.0000   1.0000   1.0000   1.0000   1.0000   1.0000
     1.0000   1.0000   1.0000   1.0000   1.0000   1.0000   1.0000   1.0000
     1.0000   1.0000   1.0000   1.0000   0.0000

          k = 0.0000 0.0962 0.0000 (  2785 PWs)   bands (ev):

   -76.8112 -76.7541 -40.2180 -39.9196 -39.9070 -39.8846 -39.8732 -39.8575
    10.3978  14.1326  16.3930  16.7880  16.7949  16.9252  17.0897  17.2126
    17.3358  17.5898  18.5220  20.1049  25.6265

     occupation numbers 
     1.0000   1.0000   1.0000   1.0000   1.0000   1.0000   1.0000   1.0000
     1.0000   1.0000   1.0000   1.0000   1.0000   1.0000   1.0000   1.0000
     1.0000   1.0000   1.0000   0.0000   0.0000

          k = 0.0000 0.0962 0.1012 (  2786 PWs)   bands (ev):

   -76.8074 -76.7579 -40.1965 -39.9162 -39.9113 -39.9037 -39.8720 -39.8608
    10.6691  14.0677  16.3917  16.6276  16.7255  16.7346  17.0154  17.2472
    17.5117  17.5620  18.4947  19.3948  27.1762

     occupation numbers 
     1.0000   1.0000   1.0000   1.0000   1.0000   1.0000   1.0000   1.0000
     1.0000   1.0000   1.0000   1.0000   1.0000   1.0000   1.0000   1.0000
     1.0000   1.0000   1.0000   0.0000   0.0000

          k = 0.0000 0.0962 0.2023 (  2793 PWs)   bands (ev):

   -76.7970 -76.7684 -40.1375 -39.9740 -39.9060 -39.8947 -39.8797 -39.8699
    11.4462  13.6318  16.2636  16.3040  16.4831  16.6701  16.8607  16.8752
    17.8416  17.8832  18.3846  18.6755  30.3875

     occupation numbers 
     1.0000   1.0000   1.0000   1.0000   1.0000   1.0000   1.0000   1.0000
     1.0000   1.0000   1.0000   1.0000   1.0000   1.0000   1.0000   1.0000
     1.0000   1.0000   1.0000   1.0000   0.0000

          k = 0.0000 0.0962-0.3035 (  2790 PWs)   bands (ev):

   -76.7827 -76.7827 -40.0563 -40.0563 -39.8926 -39.8926 -39.8823 -39.8823
    12.5785  12.5785  16.1111  16.1111  16.6124  16.6124  16.7216  16.7216
    18.1593  18.1593  18.2624  18.2624  34.1981

     occupation numbers 
     1.0000   1.0000   1.0000   1.0000   1.0000   1.0000   1.0000   1.0000
     1.0000   1.0000   1.0000   1.0000   1.0000   1.0000   1.0000   1.0000
     1.0000   1.0000   1.0000   1.0000   0.0000

          k = 0.0000 0.1925 0.0000 (  2773 PWs)   bands (ev):

   -76.8009 -76.7490 -40.1959 -39.9700 -39.9245 -39.9225 -39.8932 -39.8665
    11.1201  14.5195  16.1294  16.3728  16.7198  17.1008  17.1367  17.1534
    17.2884  17.3936  18.5830  21.7396  25.7622

     occupation numbers 
     1.0000   1.0000   1.0000   1.0000   1.0000   1.0000   1.0000   1.0000
     1.0000   1.0000   1.0000   1.0000   1.0000   1.0000   1.0000   1.0000
     1.0000   1.0000   1.0000   0.0000   0.0000

          k = 0.0000 0.1925 0.1012 (  2774 PWs)   bands (ev):

   -76.7974 -76.7525 -40.1785 -39.9650 -39.9445 -39.9188 -39.8960 -39.8703
    11.3747  14.4989  16.0963  16.1726  16.5975  16.9652  16.9856  17.2831
    17.4750  17.5404  18.5398  20.6428  27.5327

     occupation numbers 
     1.0000   1.0000   1.0000   1.0000   1.0000   1.0000   1.0000   1.0000
     1.0000   1.0000   1.0000   1.0000   1.0000   1.0000   1.0000   1.0000
     1.0000   1.0000   1.0000   0.0000   0.0000

          k = 0.0000 0.1925 0.2023 (  2780 PWs)   bands (ev):

   -76.7879 -76.7620 -40.1306 -39.9975 -39.9483 -39.9086 -39.9085 -39.8806
    12.1013  14.1411  15.7630  16.2350  16.3081  16.8111  16.9134  17.1394
    17.8078  17.9574  18.3950  19.3210  30.8595

     occupation numbers 
     1.0000   1.0000   1.0000   1.0000   1.0000   1.0000   1.0000   1.0000
     1.0000   1.0000   1.0000   1.0000   1.0000   1.0000   1.0000   1.0000
     1.0000   1.0000   1.0000   0.0001   0.0000

          k = 0.0000 0.1925-0.3035 (  2776 PWs)   bands (ev):

   -76.7750 -76.7750 -40.0646 -40.0646 -39.9281 -39.9281 -39.8946 -39.8946
    13.1546  13.1546  15.8902  15.8902  16.5339  16.5339  16.9862  16.9862
    18.1397  18.1397  18.5064  18.5064  34.6856

     occupation numbers 
     1.0000   1.0000   1.0000   1.0000   1.0000   1.0000   1.0000   1.0000
     1.0000   1.0000   1.0000   1.0000   1.0000   1.0000   1.0000   1.0000
     1.0000   1.0000   1.0000   1.0000   0.0000

          k = 0.0000 0.2887 0.0000 (  2777 PWs)   bands (ev):

   -76.7863 -76.7425 -40.1630 -40.0393 -39.9934 -39.9432 -39.9078 -39.8794
    12.2089  14.8267  15.6230  15.9720  16.6012  16.9342  17.0665  17.5589
    17.6331  17.8304  18.6384  23.5682  26.0320

     occupation numbers 
     1.0000   1.0000   1.0000   1.0000   1.0000   1.0000   1.0000   1.0000
     1.0000   1.0000   1.0000   1.0000   1.0000   1.0000   1.0000   1.0000
     1.0000   1.0000   1.0000   0.0000   0.0000

          k = 0.0000 0.2887 0.1012 (  2770 PWs)   bands (ev):

   -76.7834 -76.7455 -40.1550 -40.0296 -40.0070 -39.9389 -39.9122 -39.8837
    12.4190  14.8593  15.4816  16.0269  16.4526  16.9743  17.0563  17.6731
    17.6973  17.7899  18.5820  21.9403  28.1809

     occupation numbers 
     1.0000   1.0000   1.0000   1.0000   1.0000   1.0000   1.0000   1.0000
     1.0000   1.0000   1.0000   1.0000   1.0000   1.0000   1.0000   1.0000
     1.0000   1.0000   1.0000   0.0000   0.0000

          k = 0.0000 0.2887 0.2023 (  2761 PWs)   bands (ev):

   -76.7754 -76.7535 -40.1310 -40.0497 -39.9945 -39.9289 -39.9273 -39.8954
    13.0044  14.5872  15.4276  16.0362  16.3429  16.8923  17.0986  17.5300
    17.9365  18.1100  18.4206  20.0968  31.5456

     occupation numbers 
     1.0000   1.0000   1.0000   1.0000   1.0000   1.0000   1.0000   1.0000
     1.0000   1.0000   1.0000   1.0000   1.0000   1.0000   1.0000   1.0000
     1.0000   1.0000   1.0000   0.0000   0.0000

          k = 0.0000 0.2887-0.3035 (  2772 PWs)   bands (ev):

   -76.7644 -76.7644 -40.0932 -40.0932 -39.9590 -39.9590 -39.9113 -39.9113
    13.8179  13.8179  15.7285  15.7285  16.5979  16.5979  17.2989  17.2989
    18.1856  18.1856  18.8509  18.8509  34.0554

     occupation numbers 
     1.0000   1.0000   1.0000   1.0000   1.0000   1.0000   1.0000   1.0000
     1.0000   1.0000   1.0000   1.0000   1.0000   1.0000   1.0000   1.0000
     1.0000   1.0000   1.0000   1.0000   0.0000

          k = 0.0000 0.3849 0.0000 (  2766 PWs)   bands (ev):

   -76.7708 -76.7369 -40.1245 -40.1092 -40.0611 -39.9633 -39.9278 -39.8927
    13.3872  14.7480  15.0880  16.0913  16.7318  16.7367  16.8588  18.1645
    18.2973  18.3030  18.6741  25.5563  26.1502

     occupation numbers 
     1.0000   1.0000   1.0000   1.0000   1.0000   1.0000   1.0000   1.0000
     1.0000   1.0000   1.0000   1.0000   1.0000   1.0000   1.0000   1.0000
     1.0000   1.0000   1.0000   0.0000   0.0000

          k = 0.0000 0.3849 0.1012 (  2771 PWs)   bands (ev):

   -76.7685 -76.7392 -40.1480 -40.0837 -40.0617 -39.9586 -39.9292 -39.8974
    13.4790  14.7645  15.1345  15.9230  16.6746  16.8303  17.2195  18.1740
    18.2137  18.2333  18.6276  23.1968  28.4736

     occupation numbers 
     1.0000   1.0000   1.0000   1.0000   1.0000   1.0000   1.0000   1.0000
     1.0000   1.0000   1.0000   1.0000   1.0000   1.0000   1.0000   1.0000
     1.0000   1.0000   1.0000   0.0000   0.0000

          k = 0.0000 0.3849 0.2023 (  2775 PWs)   bands (ev):

   -76.7623 -76.7454 -40.1559 -40.1113 -40.0147 -39.9457 -39.9407 -39.9104
    13.7428  14.5670  15.2923  15.8027  16.8064  17.0943  17.5522  17.8813
    18.2828  18.3475  18.5231  20.9894  29.7347

     occupation numbers 
     1.0000   1.0000   1.0000   1.0000   1.0000   1.0000   1.0000   1.0000
     1.0000   1.0000   1.0000   1.0000   1.0000   1.0000   1.0000   1.0000
     1.0000   1.0000   1.0000   0.0000   0.0000

          k = 0.0000 0.3849-0.3035 (  2772 PWs)   bands (ev):

   -76.7539 -76.7539 -40.1413 -40.1413 -39.9700 -39.9700 -39.9281 -39.9281
    14.1394  14.1394  15.5803  15.5803  17.2344  17.2344  17.4756  17.4756
    18.3994  18.3994  19.3343  19.3343  30.8405

     occupation numbers 
     1.0000   1.0000   1.0000   1.0000   1.0000   1.0000   1.0000   1.0000
     1.0000   1.0000   1.0000   1.0000   1.0000   1.0000   1.0000   1.0000
     1.0000   1.0000   0.0000   0.0000   0.0000

          k = 0.0000 0.4811 0.0000 (  2782 PWs)   bands (ev):

   -76.7581 -76.7341 -40.1607 -40.1099 -40.0891 -39.9779 -39.9497 -39.9025
    14.1463  14.5483  14.7701  16.4635  16.6017  16.7107  16.9558  18.5646
    18.6919  18.6928  19.4718  24.4756  27.6070

     occupation numbers 
     1.0000   1.0000   1.0000   1.0000   1.0000   1.0000   1.0000   1.0000
     1.0000   1.0000   1.0000   1.0000   1.0000   1.0000   1.0000   1.0000
     1.0000   1.0000   0.0000   0.0000   0.0000

          k = 0.0000 0.4811 0.1012 (  2771 PWs)   bands (ev):

   -76.7565 -76.7357 -40.1770 -40.1263 -40.0588 -39.9728 -39.9471 -39.9076
    14.0271  14.5301  15.0977  15.8058  16.7153  16.9693  17.5959  18.4562
    18.5895  18.7434  19.3033  23.6068  27.1039

     occupation numbers 
     1.0000   1.0000   1.0000   1.0000   1.0000   1.0000   1.0000   1.0000
     1.0000   1.0000   1.0000   1.0000   1.0000   1.0000   1.0000   1.0000
     1.0000   1.0000   0.0233   0.0000   0.0000

          k = 0.0000 0.4811 0.2023 (  2777 PWs)   bands (ev):

   -76.7521 -76.7401 -40.1907 -40.1577 -40.0105 -39.9591 -39.9500 -39.9214
    13.9838  14.4527  15.2748  15.5867  17.0376  17.2523  18.0301  18.6157
    18.6242  18.7218  18.9392  21.8433  27.3102

     occupation numbers 
     1.0000   1.0000   1.0000   1.0000   1.0000   1.0000   1.0000   1.0000
     1.0000   1.0000   1.0000   1.0000   1.0000   1.0000   1.0000   1.0000
     1.0000   1.0000   1.0000   0.0000   0.0000

          k = 0.0000 0.4811-0.3035 (  2788 PWs)   bands (ev):

   -76.7461 -76.7461 -40.1835 -40.1835 -39.9709 -39.9709 -39.9403 -39.9403
    14.1636  14.1636  15.4458  15.4458  17.5101  17.5101  17.9900  17.9900
    18.6746  18.6746  20.1747  20.1747  28.0817

     occupation numbers 
     1.0000   1.0000   1.0000   1.0000   1.0000   1.0000   1.0000   1.0000
     1.0000   1.0000   1.0000   1.0000   1.0000   1.0000   1.0000   1.0000
     1.0000   1.0000   0.0000   0.0000   0.0000

          k = 0.0000-0.5774 0.0000 (  2766 PWs)   bands (ev):

   -76.7529 -76.7337 -40.1795 -40.1276 -40.0726 -39.9832 -39.9612 -39.9062
    14.3846  14.4177  14.6649  16.5539  16.6571  16.7289  17.0309  18.6970
    18.7096  18.8505  20.6626  22.7550  28.9378

     occupation numbers 
     1.0000   1.0000   1.0000   1.0000   1.0000   1.0000   1.0000   1.0000
     1.0000   1.0000   1.0000   1.0000   1.0000   1.0000   1.0000   1.0000
     1.0000   1.0000   0.0000   0.0000   0.0000

          k = 0.0000-0.5774 0.1012 (  2776 PWs)   bands (ev):

   -76.7516 -76.7349 -40.1925 -40.1432 -40.0486 -39.9780 -39.9564 -39.9114
    14.1211  14.4312  15.1282  15.7765  16.6733  17.0568  17.8118  18.5021
    18.7404  18.8430  20.4311  22.5545  28.1484

     occupation numbers 
     1.0000   1.0000   1.0000   1.0000   1.0000   1.0000   1.0000   1.0000
     1.0000   1.0000   1.0000   1.0000   1.0000   1.0000   1.0000   1.0000
     1.0000   1.0000   0.0000   0.0000   0.0000

          k = 0.0000-0.5774 0.2023 (  2772 PWs)   bands (ev):

   -76.7481 -76.7385 -40.2057 -40.1747 -40.0053 -39.9640 -39.9546 -39.9255
    13.9998  14.4070  15.3058  15.4845  17.0122  17.3977  18.0580  18.7410
    18.7645  18.8224  20.0460  21.8970  27.1595

     occupation numbers 
     1.0000   1.0000   1.0000   1.0000   1.0000   1.0000   1.0000   1.0000
     1.0000   1.0000   1.0000   1.0000   1.0000   1.0000   1.0000   1.0000
     1.0000   1.0000   0.0000   0.0000   0.0000

          k = 0.0000-0.5774-0.3035 (  2788 PWs)   bands (ev):

   -76.7433 -76.7433 -40.1996 -40.1996 -39.9705 -39.9705 -39.9448 -39.9448
    14.1454  14.1454  15.3943  15.3943  17.5099  17.5099  18.2389  18.2389
    18.7938  18.7938  20.8375  20.8375  26.8063

     occupation numbers 
     1.0000   1.0000   1.0000   1.0000   1.0000   1.0000   1.0000   1.0000
     1.0000   1.0000   1.0000   1.0000   1.0000   1.0000   1.0000   1.0000
     1.0000   1.0000   0.0000   0.0000   0.0000

          k = 0.0833 0.1443 0.0000 (  2779 PWs)   bands (ev):

   -76.8042 -76.7506 -40.2031 -39.9509 -39.9268 -39.8999 -39.8903 -39.8660
    10.8849  14.4107  16.1858  16.6297  16.8086  16.9353  17.0419  17.1087
    17.3260  17.4313  18.5553  21.2839  25.7154

     occupation numbers 
     1.0000   1.0000   1.0000   1.0000   1.0000   1.0000   1.0000   1.0000
     1.0000   1.0000   1.0000   1.0000   1.0000   1.0000   1.0000   1.0000
     1.0000   1.0000   1.0000   0.0000   0.0000

          k = 0.0833 0.1443 0.1012 (  2776 PWs)   bands (ev):

   -76.8006 -76.7542 -40.1842 -39.9462 -39.9355 -39.9143 -39.8877 -39.8695
    11.1459  14.3756  16.2167  16.2908  16.6481  16.8956  16.9723  17.1939
    17.4819  17.5541  18.5199  20.3042  27.4110

     occupation numbers 
     1.0000   1.0000   1.0000   1.0000   1.0000   1.0000   1.0000   1.0000
     1.0000   1.0000   1.0000   1.0000   1.0000   1.0000   1.0000   1.0000
     1.0000   1.0000   1.0000   0.0000   0.0000

          k = 0.0833 0.1443 0.2023 (  2782 PWs)   bands (ev):

   -76.7908 -76.7640 -40.1323 -39.9883 -39.9335 -39.9109 -39.8943 -39.8791
    11.8921  13.9921  15.8883  16.2755  16.3278  16.7994  16.8659  17.0547
    17.8387  17.9073  18.3935  19.1342  30.7050

     occupation numbers 
     1.0000   1.0000   1.0000   1.0000   1.0000   1.0000   1.0000   1.0000
     1.0000   1.0000   1.0000   1.0000   1.0000   1.0000   1.0000   1.0000
     1.0000   1.0000   1.0000   1.0000   0.0000

          k = 0.0833 0.1443-0.3035 (  2790 PWs)   bands (ev):

   -76.7774 -76.7774 -40.0609 -40.0609 -39.9173 -39.9173 -39.8913 -39.8913
    12.9775  12.9775  15.9482  15.9482  16.5376  16.5376  16.9160  16.9160
    18.1455  18.1455  18.4306  18.4306  34.5374

     occupation numbers 
     1.0000   1.0000   1.0000   1.0000   1.0000   1.0000   1.0000   1.0000
     1.0000   1.0000   1.0000   1.0000   1.0000   1.0000   1.0000   1.0000
     1.0000   1.0000   1.0000   1.0000   0.0000

          k = 0.0833 0.2406 0.0000 (  2768 PWs)   bands (ev):

   -76.7917 -76.7448 -40.1755 -40.0066 -39.9766 -39.9289 -39.9020 -39.8804
    11.7998  14.8083  15.8957  15.9113  16.6606  16.8632  17.2099  17.2787
    17.4927  17.7707  18.5942  22.9103  25.9397

     occupation numbers 
     1.0000   1.0000   1.0000   1.0000   1.0000   1.0000   1.0000   1.0000
     1.0000   1.0000   1.0000   1.0000   1.0000   1.0000   1.0000   1.0000
     1.0000   1.0000   1.0000   0.0000   0.0000

          k = 0.0833 0.2406 0.1012 (  2771 PWs)   bands (ev):

   -76.7886 -76.7480 -40.1629 -39.9999 -39.9866 -39.9333 -39.9035 -39.8842
    12.0324  14.8326  15.6840  15.9644  16.5497  16.8321  17.0999  17.3896
    17.6821  17.7457  18.5543  21.4955  27.9350

     occupation numbers 
     1.0000   1.0000   1.0000   1.0000   1.0000   1.0000   1.0000   1.0000
     1.0000   1.0000   1.0000   1.0000   1.0000   1.0000   1.0000   1.0000
     1.0000   1.0000   1.0000   0.0000   0.0000

          k = 0.0833 0.2406 0.2023 (  2767 PWs)   bands (ev):

   -76.7800 -76.7566 -40.1280 -40.0272 -39.9757 -39.9347 -39.9110 -39.8944
    12.6896  14.5287  15.5143  16.0785  16.2644  16.7031  17.0704  17.3949
    17.9285  18.0298  18.4294  19.8291  31.3296

     occupation numbers 
     1.0000   1.0000   1.0000   1.0000   1.0000   1.0000   1.0000   1.0000
     1.0000   1.0000   1.0000   1.0000   1.0000   1.0000   1.0000   1.0000
     1.0000   1.0000   1.0000   0.0000   0.0000

          k = 0.0833 0.2406-0.3035 (  2786 PWs)   bands (ev):

   -76.7683 -76.7683 -40.0786 -40.0786 -39.9499 -39.9499 -39.9072 -39.9072
    13.6281  13.6281  15.7943  15.7943  16.4204  16.4204  17.2162  17.2162
    18.1903  18.1903  18.7284  18.7284  35.0372

     occupation numbers 
     1.0000   1.0000   1.0000   1.0000   1.0000   1.0000   1.0000   1.0000
     1.0000   1.0000   1.0000   1.0000   1.0000   1.0000   1.0000   1.0000
     1.0000   1.0000   1.0000   1.0000   0.0000

          k = 0.0833 0.3368 0.0000 (  2767 PWs)   bands (ev):

   -76.7766 -76.7388 -40.1395 -40.0745 -40.0365 -39.9568 -39.9195 -39.8961
    12.9733  14.9311  15.3100  15.8522  16.6553  16.6600  17.0586  17.6544
    18.0276  18.3723  18.6255  24.7800  26.2960

     occupation numbers 
     1.0000   1.0000   1.0000   1.0000   1.0000   1.0000   1.0000   1.0000
     1.0000   1.0000   1.0000   1.0000   1.0000   1.0000   1.0000   1.0000
     1.0000   1.0000   1.0000   0.0000   0.0000

          k = 0.0833 0.3368 0.1012 (  2768 PWs)   bands (ev):

   -76.7741 -76.7414 -40.1435 -40.0614 -40.0412 -39.9566 -39.9208 -39.8996
    13.1322  14.9836  15.2247  15.8982  16.4562  16.8928  17.0206  17.6951
    18.1122  18.2230  18.6439  22.7762  28.7089

     occupation numbers 
     1.0000   1.0000   1.0000   1.0000   1.0000   1.0000   1.0000   1.0000
     1.0000   1.0000   1.0000   1.0000   1.0000   1.0000   1.0000   1.0000
     1.0000   1.0000   1.0000   0.0000   0.0000

          k = 0.0833 0.3368 0.2023 (  2773 PWs)   bands (ev):

   -76.7672 -76.7483 -40.1391 -40.0844 -40.0081 -39.9532 -39.9288 -39.9099
    13.5636  14.7107  15.3585  15.9469  16.3809  16.8792  17.1263  17.7314
    18.1587  18.3338  18.6161  20.6912  31.3512

     occupation numbers 
     1.0000   1.0000   1.0000   1.0000   1.0000   1.0000   1.0000   1.0000
     1.0000   1.0000   1.0000   1.0000   1.0000   1.0000   1.0000   1.0000
     1.0000   1.0000   1.0000   0.0000   0.0000

          k = 0.0833 0.3368-0.3035 (  2776 PWs)   bands (ev):

   -76.7577 -76.7577 -40.1173 -40.1173 -39.9699 -39.9699 -39.9245 -39.9245
    14.1446  14.1446  15.6987  15.6987  16.6143  16.6143  17.4111  17.4111
    18.4128  18.4128  19.1926  19.1926  32.5777

     occupation numbers 
     1.0000   1.0000   1.0000   1.0000   1.0000   1.0000   1.0000   1.0000
     1.0000   1.0000   1.0000   1.0000   1.0000   1.0000   1.0000   1.0000
     1.0000   1.0000   1.0000   1.0000   0.0000

          k = 0.0833 0.4330 0.0000 (  2768 PWs)   bands (ev):

   -76.7623 -76.7348 -40.1345 -40.1016 -40.0883 -39.9794 -39.9415 -39.9096
    13.9933  14.7405  14.9168  16.0950  16.5359  16.8318  16.8626  18.2190
    18.4820  18.6433  19.2047  25.7724  26.8084

     occupation numbers 
     1.0000   1.0000   1.0000   1.0000   1.0000   1.0000   1.0000   1.0000
     1.0000   1.0000   1.0000   1.0000   1.0000   1.0000   1.0000   1.0000
     1.0000   1.0000   1.0000   0.0000   0.0000

          k = 0.0833 0.4330 0.1012 (  2777 PWs)   bands (ev):

   -76.7605 -76.7366 -40.1565 -40.1068 -40.0621 -39.9762 -39.9404 -39.9129
    13.9753  14.7473  15.0868  15.8224  16.6122  16.9321  17.1783  18.1700
    18.4621  18.5411  19.2006  23.8865  27.6888

     occupation numbers 
     1.0000   1.0000   1.0000   1.0000   1.0000   1.0000   1.0000   1.0000
     1.0000   1.0000   1.0000   1.0000   1.0000   1.0000   1.0000   1.0000
     1.0000   1.0000   1.0000   0.0000   0.0000

          k = 0.0833 0.4330 0.2023 (  2780 PWs)   bands (ev):

   -76.7555 -76.7417 -40.1703 -40.1360 -40.0147 -39.9665 -39.9453 -39.9218
    14.0428  14.6088  15.2839  15.7540  16.7194  17.1688  17.5971  17.9167
    18.3445  18.6899  19.2544  21.7296  28.4443

     occupation numbers 
     1.0000   1.0000   1.0000   1.0000   1.0000   1.0000   1.0000   1.0000
     1.0000   1.0000   1.0000   1.0000   1.0000   1.0000   1.0000   1.0000
     1.0000   1.0000   0.9990   0.0000   0.0000

          k = 0.0833 0.4330-0.3035 (  2782 PWs)   bands (ev):

   -76.7486 -76.7486 -40.1619 -40.1619 -39.9780 -39.9780 -39.9375 -39.9375
    14.2794  14.2794  15.5643  15.5643  17.1658  17.1658  17.5796  17.5796
    18.6349  18.6349  20.0617  20.0617  29.4716

     occupation numbers 
     1.0000   1.0000   1.0000   1.0000   1.0000   1.0000   1.0000   1.0000
     1.0000   1.0000   1.0000   1.0000   1.0000   1.0000   1.0000   1.0000
     1.0000   1.0000   0.0000   0.0000   0.0000

          k = 0.0833 0.5292 0.0000 (  2773 PWs)   bands (ev):

   -76.7529 -76.7336 -40.1692 -40.1181 -40.0729 -39.9920 -39.9610 -39.9174
    14.4333  14.5725  14.7211  16.4793  16.5046  16.6655  17.0291  18.6327
    18.6503  18.7174  20.5114  23.5394  28.7449

     occupation numbers 
     1.0000   1.0000   1.0000   1.0000   1.0000   1.0000   1.0000   1.0000
     1.0000   1.0000   1.0000   1.0000   1.0000   1.0000   1.0000   1.0000
     1.0000   1.0000   0.0000   0.0000   0.0000

          k = 0.0833 0.5292 0.1012 (  2775 PWs)   bands (ev):

   -76.7516 -76.7349 -40.1824 -40.1342 -40.0500 -39.9857 -39.9575 -39.9207
    14.2082  14.5699  15.1708  15.7619  16.5489  17.1123  17.4675  18.4411
    18.6434  18.7459  20.4325  23.2396  27.5855

     occupation numbers 
     1.0000   1.0000   1.0000   1.0000   1.0000   1.0000   1.0000   1.0000
     1.0000   1.0000   1.0000   1.0000   1.0000   1.0000   1.0000   1.0000
     1.0000   1.0000   0.0000   0.0000   0.0000

          k = 0.0833 0.5292 0.2023 (  2781 PWs)   bands (ev):

   -76.7481 -76.7385 -40.1958 -40.1656 -40.0120 -39.9690 -39.9595 -39.9284
    14.1093  14.5403  15.3155  15.6012  16.7216  17.4752  17.8825  18.1747
    18.6024  18.8046  20.4456  22.3196  26.9421

     occupation numbers 
     1.0000   1.0000   1.0000   1.0000   1.0000   1.0000   1.0000   1.0000
     1.0000   1.0000   1.0000   1.0000   1.0000   1.0000   1.0000   1.0000
     1.0000   1.0000   0.0000   0.0000   0.0000

          k = 0.0833 0.5292-0.3035 (  2770 PWs)   bands (ev):

   -76.7433 -76.7433 -40.1901 -40.1901 -39.9817 -39.9817 -39.9432 -39.9432
    14.2644  14.2644  15.4728  15.4728  17.2763  17.2763  18.0266  18.0266
    18.6778  18.6778  21.1712  21.1712  27.2282

     occupation numbers 
     1.0000   1.0000   1.0000   1.0000   1.0000   1.0000   1.0000   1.0000
     1.0000   1.0000   1.0000   1.0000   1.0000   1.0000   1.0000   1.0000
     1.0000   1.0000   0.0000   0.0000   0.0000

          k = 0.1667 0.2887 0.0000 (  2758 PWs)   bands (ev):

   -76.7787 -76.7396 -40.1447 -40.0476 -40.0385 -39.9498 -39.9168 -39.9052
    12.8278  15.1331  15.4282  15.6033  16.5773  16.6640  17.1709  17.3843
    18.0128  18.3995  18.5809  24.5188  26.3328

     occupation numbers 
     1.0000   1.0000   1.0000   1.0000   1.0000   1.0000   1.0000   1.0000
     1.0000   1.0000   1.0000   1.0000   1.0000   1.0000   1.0000   1.0000
     1.0000   1.0000   1.0000   0.0000   0.0000

          k = 0.1667 0.2887 0.1012 (  2767 PWs)   bands (ev):

   -76.7761 -76.7422 -40.1432 -40.0465 -40.0324 -39.9579 -39.9136 -39.9091
    13.0096  15.2269  15.2791  15.6582  16.5221  16.6732  17.0626  17.4999
    18.1281  18.2104  18.6580  22.6391  28.6822

     occupation numbers 
     1.0000   1.0000   1.0000   1.0000   1.0000   1.0000   1.0000   1.0000
     1.0000   1.0000   1.0000   1.0000   1.0000   1.0000   1.0000   1.0000
     1.0000   1.0000   1.0000   0.0000   0.0000

          k = 0.1667 0.2887 0.2023 (  2775 PWs)   bands (ev):

   -76.7689 -76.7494 -40.1320 -40.0726 -39.9991 -39.9633 -39.9187 -39.9176
    13.5081  14.8347  15.4834  15.8141  16.3149  16.5377  17.0727  17.6649
    18.1571  18.3275  18.6942  20.6175  32.0577

     occupation numbers 
     1.0000   1.0000   1.0000   1.0000   1.0000   1.0000   1.0000   1.0000
     1.0000   1.0000   1.0000   1.0000   1.0000   1.0000   1.0000   1.0000
     1.0000   1.0000   1.0000   0.0000   0.0000

          k = 0.1667 0.2887-0.3035 (  2770 PWs)   bands (ev):

   -76.7592 -76.7592 -40.1062 -40.1062 -39.9704 -39.9704 -39.9250 -39.9250
    14.1836  14.1836  15.8047  15.8047  16.2577  16.2577  17.3556  17.3556
    18.4637  18.4637  19.1758  19.1758  34.3060

     occupation numbers 
     1.0000   1.0000   1.0000   1.0000   1.0000   1.0000   1.0000   1.0000
     1.0000   1.0000   1.0000   1.0000   1.0000   1.0000   1.0000   1.0000
     1.0000   1.0000   1.0000   1.0000   0.0000

          k = 0.1667 0.3849 0.0000 (  2773 PWs)   bands (ev):

   -76.7647 -76.7353 -40.1083 -40.1008 -40.0782 -39.9811 -39.9373 -39.9292
    13.9498  15.0683  15.1044  15.5903  16.4040  16.8101  16.9556  17.7239
    18.4746  18.5655  19.2505  26.4108  26.7796

     occupation numbers 
     1.0000   1.0000   1.0000   1.0000   1.0000   1.0000   1.0000   1.0000
     1.0000   1.0000   1.0000   1.0000   1.0000   1.0000   1.0000   1.0000
     1.0000   1.0000   0.9998   0.0000   0.0000

          k = 0.1667 0.3849 0.1012 (  2771 PWs)   bands (ev):

   -76.7627 -76.7373 -40.1356 -40.0963 -40.0518 -39.9874 -39.9375 -39.9263
    14.0192  15.0014  15.1991  15.6713  16.4394  16.8126  16.9133  17.7733
    18.3575  18.5624  19.3278  23.9585  29.1037

     occupation numbers 
     1.0000   1.0000   1.0000   1.0000   1.0000   1.0000   1.0000   1.0000
     1.0000   1.0000   1.0000   1.0000   1.0000   1.0000   1.0000   1.0000
     1.0000   1.0000   0.0000   0.0000   0.0000

          k = 0.1667 0.3849 0.2023 (  2776 PWs)   bands (ev):

   -76.7573 -76.7426 -40.1486 -40.1175 -40.0115 -39.9878 -39.9440 -39.9253
    14.2141  14.7943  15.4455  15.8919  16.3457  16.6600  17.0630  17.7748
    18.2672  18.7116  19.5001  21.7569  30.1794

     occupation numbers 
     1.0000   1.0000   1.0000   1.0000   1.0000   1.0000   1.0000   1.0000
     1.0000   1.0000   1.0000   1.0000   1.0000   1.0000   1.0000   1.0000
     1.0000   1.0000   0.0000   0.0000   0.0000

          k = 0.1667 0.3849-0.3035 (  2778 PWs)   bands (ev):

   -76.7500 -76.7500 -40.1403 -40.1403 -39.9896 -39.9896 -39.9375 -39.9375
    14.4967  14.4967  15.7843  15.7843  16.4387  16.4387  17.3539  17.3539
    18.6845  18.6845  20.1715  20.1715  31.3124

     occupation numbers 
     1.0000   1.0000   1.0000   1.0000   1.0000   1.0000   1.0000   1.0000
     1.0000   1.0000   1.0000   1.0000   1.0000   1.0000   1.0000   1.0000
     1.0000   1.0000   0.0000   0.0000   0.0000

          k = 0.1667 0.4811 0.0000 (  2783 PWs)   bands (ev):

   -76.7530 -76.7336 -40.1425 -40.0995 -40.0733 -40.0098 -39.9605 -39.9457
    14.6463  14.8489  14.8885  15.9219  16.3619  16.7145  17.0239  18.1777
    18.5541  18.6922  20.4687  25.2330  28.4601

     occupation numbers 
     1.0000   1.0000   1.0000   1.0000   1.0000   1.0000   1.0000   1.0000
     1.0000   1.0000   1.0000   1.0000   1.0000   1.0000   1.0000   1.0000
     1.0000   1.0000   0.0000   0.0000   0.0000

          k = 0.1667 0.4811 0.1012 (  2781 PWs)   bands (ev):

   -76.7517 -76.7349 -40.1561 -40.1179 -40.0502 -40.0054 -39.9621 -39.9395
    14.4652  14.9378  15.1419  15.7133  16.4115  16.8599  17.1217  18.1676
    18.3621  18.7528  20.5446  24.5912  27.4419

     occupation numbers 
     1.0000   1.0000   1.0000   1.0000   1.0000   1.0000   1.0000   1.0000
     1.0000   1.0000   1.0000   1.0000   1.0000   1.0000   1.0000   1.0000
     1.0000   1.0000   0.0000   0.0000   0.0000

          k = 0.1667 0.4811 0.2023 (  2778 PWs)   bands (ev):

   -76.7481 -76.7384 -40.1709 -40.1460 -40.0268 -39.9926 -39.9620 -39.9326
    14.4124  14.8511  15.3386  15.8764  16.3056  17.0018  17.3728  17.8552
    18.3672  18.8264  20.8391  23.0195  27.5879

     occupation numbers 
     1.0000   1.0000   1.0000   1.0000   1.0000   1.0000   1.0000   1.0000
     1.0000   1.0000   1.0000   1.0000   1.0000   1.0000   1.0000   1.0000
     1.0000   1.0000   0.0000   0.0000   0.0000

          k = 0.1667 0.4811-0.3035 (  2776 PWs)   bands (ev):

   -76.7433 -76.7433 -40.1675 -40.1675 -40.0062 -40.0062 -39.9417 -39.9417
    14.5654  14.5654  15.6731  15.6731  16.7188  16.7188  17.5422  17.5422
    18.6881  18.6881  21.6239  21.6239  28.4580

     occupation numbers 
     1.0000   1.0000   1.0000   1.0000   1.0000   1.0000   1.0000   1.0000
     1.0000   1.0000   1.0000   1.0000   1.0000   1.0000   1.0000   1.0000
     1.0000   1.0000   0.0000   0.0000   0.0000

          k = 0.1667 0.5774 0.0000 (  2784 PWs)   bands (ev):

   -76.7479 -76.7338 -40.1576 -40.1064 -40.0557 -40.0214 -39.9739 -39.9516
    14.7758  14.7808  14.8189  16.1558  16.3999  16.5730  17.1156  18.4882
    18.5497  18.6537  21.7490  23.3928  29.9103

     occupation numbers 
     1.0000   1.0000   1.0000   1.0000   1.0000   1.0000   1.0000   1.0000
     1.0000   1.0000   1.0000   1.0000   1.0000   1.0000   1.0000   1.0000
     1.0000   1.0000   0.0000   0.0000   0.0000

          k = 0.1667 0.5774 0.1012 (  2780 PWs)   bands (ev):

   -76.7469 -76.7347 -40.1683 -40.1233 -40.0504 -40.0024 -39.9768 -39.9453
    14.4810  14.8516  15.3107  15.6926  16.3301  16.9870  17.2201  18.3351
    18.4856  18.7018  21.8333  23.3255  28.6936

     occupation numbers 
     1.0000   1.0000   1.0000   1.0000   1.0000   1.0000   1.0000   1.0000
     1.0000   1.0000   1.0000   1.0000   1.0000   1.0000   1.0000   1.0000
     1.0000   1.0000   0.0000   0.0000   0.0000

          k = 0.1667 0.5774 0.2023 (  2775 PWs)   bands (ev):

   -76.7444 -76.7373 -40.1813 -40.1549 -40.0347 -39.9913 -39.9677 -39.9361
    14.4060  14.8616  15.3802  15.8258  16.2215  17.2049  17.5086  17.9258
    18.5050  18.7411  22.1106  23.0763  27.4656

     occupation numbers 
     1.0000   1.0000   1.0000   1.0000   1.0000   1.0000   1.0000   1.0000
     1.0000   1.0000   1.0000   1.0000   1.0000   1.0000   1.0000   1.0000
     1.0000   1.0000   0.0000   0.0000   0.0000

          k = 0.1667 0.5774-0.3035 (  2762 PWs)   bands (ev):

   -76.7408 -76.7408 -40.1777 -40.1777 -40.0129 -40.0129 -39.9424 -39.9424
    14.5678  14.5678  15.6311  15.6311  16.7579  16.7579  17.7574  17.7574
    18.6228  18.6228  22.6007  22.6007  27.0077

     occupation numbers 
     1.0000   1.0000   1.0000   1.0000   1.0000   1.0000   1.0000   1.0000
     1.0000   1.0000   1.0000   1.0000   1.0000   1.0000   1.0000   1.0000
     1.0000   1.0000   0.0000   0.0000   0.0000

          k = 0.2500 0.4330 0.0000 (  2780 PWs)   bands (ev):

   -76.7530 -76.7335 -40.1194 -40.0980 -40.0736 -40.0137 -39.9668 -39.9603
    14.8011  14.9235  15.3271  15.3433  16.2765  16.7442  17.0319  17.9152
    18.5041  18.6928  20.4885  26.9649  27.8670

     occupation numbers 
     1.0000   1.0000   1.0000   1.0000   1.0000   1.0000   1.0000   1.0000
     1.0000   1.0000   1.0000   1.0000   1.0000   1.0000   1.0000   1.0000
     1.0000   1.0000   0.0000   0.0000   0.0000

          k = 0.2500 0.4330 0.1012 (  2779 PWs)   bands (ev):

   -76.7517 -76.7349 -40.1286 -40.1238 -40.0375 -40.0262 -39.9691 -39.9464
    14.7947  14.8743  15.3535  15.5053  16.4285  16.5883  17.0406  17.9656
    18.3015  18.7587  20.6069  25.3263  28.1438

     occupation numbers 
     1.0000   1.0000   1.0000   1.0000   1.0000   1.0000   1.0000   1.0000
     1.0000   1.0000   1.0000   1.0000   1.0000   1.0000   1.0000   1.0000
     1.0000   1.0000   0.0000   0.0000   0.0000

          k = 0.2500 0.4330 0.2023 (  2781 PWs)   bands (ev):

   -76.7482 -76.7384 -40.1516 -40.1387 -40.0316 -40.0127 -39.9626 -39.9341
    14.7706  14.8158  15.5218  15.8865  16.2512  16.5357  17.0975  17.7559
    18.3318  18.8350  20.9687  23.2992  28.9094

     occupation numbers 
     1.0000   1.0000   1.0000   1.0000   1.0000   1.0000   1.0000   1.0000
     1.0000   1.0000   1.0000   1.0000   1.0000   1.0000   1.0000   1.0000
     1.0000   1.0000   0.0000   0.0000   0.0000

          k = 0.2500 0.4330-0.3035 (  2772 PWs)   bands (ev):

   -76.7433 -76.7433 -40.1533 -40.1533 -40.0211 -40.0211 -39.9412 -39.9412
    14.7763  14.7763  15.8443  15.8443  16.3211  16.3211  17.3225  17.3225
    18.7087  18.7087  21.7932  21.7932  29.9159

     occupation numbers 
     1.0000   1.0000   1.0000   1.0000   1.0000   1.0000   1.0000   1.0000
     1.0000   1.0000   1.0000   1.0000   1.0000   1.0000   1.0000   1.0000
     1.0000   1.0000   0.0000   0.0000   0.0000

          k = 0.2500 0.5292 0.0000 (  2794 PWs)   bands (ev):

   -76.7444 -76.7344 -40.1329 -40.0891 -40.0473 -40.0427 -39.9912 -39.9845
    14.8607  15.0891  15.1739  15.6915  16.2931  16.5205  17.2076  18.2189
    18.4683  18.6103  22.1879  24.8224  27.1997

     occupation numbers 
     1.0000   1.0000   1.0000   1.0000   1.0000   1.0000   1.0000   1.0000
     1.0000   1.0000   1.0000   1.0000   1.0000   1.0000   1.0000   1.0000
     1.0000   1.0000   0.0000   0.0000   0.0000

          k = 0.2500 0.5292 0.1012 (  2779 PWs)   bands (ev):

   -76.7438 -76.7351 -40.1390 -40.1106 -40.0652 -40.0152 -39.9943 -39.9631
    14.8056  15.2056  15.2963  15.5775  16.3150  16.5286  17.2267  18.2206
    18.2838  18.6582  22.3686  24.8165  27.1979

     occupation numbers 
     1.0000   1.0000   1.0000   1.0000   1.0000   1.0000   1.0000   1.0000
     1.0000   1.0000   1.0000   1.0000   1.0000   1.0000   1.0000   1.0000
     1.0000   1.0000   0.0000   0.0000   0.0000

          k = 0.2500 0.5292 0.2023 (  2772 PWs)   bands (ev):

   -76.7419 -76.7369 -40.1535 -40.1386 -40.0646 -40.0249 -39.9631 -39.9422
    14.8178  15.1831  15.4482  15.7724  16.1595  16.5553  17.2935  17.7730
    18.4147  18.7069  22.8499  24.4560  27.0983

     occupation numbers 
     1.0000   1.0000   1.0000   1.0000   1.0000   1.0000   1.0000   1.0000
     1.0000   1.0000   1.0000   1.0000   1.0000   1.0000   1.0000   1.0000
     1.0000   1.0000   0.0000   0.0000   0.0000

          k = 0.2500 0.5292-0.3035 (  2758 PWs)   bands (ev):

   -76.7394 -76.7394 -40.1558 -40.1558 -40.0464 -40.0464 -39.9412 -39.9412
    14.9552  14.9552  15.7434  15.7434  16.3232  16.3232  17.4331  17.4331
    18.6168  18.6168  23.6014  23.6014  27.6449

     occupation numbers 
     1.0000   1.0000   1.0000   1.0000   1.0000   1.0000   1.0000   1.0000
     1.0000   1.0000   1.0000   1.0000   1.0000   1.0000   1.0000   1.0000
     1.0000   1.0000   0.0000   0.0000   0.0000

          k = 0.3333 0.5774 0.0000 (  2814 PWs)   bands (ev):

   -76.7380 -76.7380 -40.1199 -40.0716 -40.0716 -40.0206 -40.0123 -40.0123
    14.8799  15.2963  15.2963  15.5515  16.3520  16.3520  17.3099  18.3777
    18.3777  18.4341  23.9504  24.8401  24.8401

     occupation numbers 
     1.0000   1.0000   1.0000   1.0000   1.0000   1.0000   1.0000   1.0000
     1.0000   1.0000   1.0000   1.0000   1.0000   1.0000   1.0000   1.0000
     1.0000   1.0000   0.0000   0.0000   0.0000

          k = 0.3333 0.5774 0.1012 (  2796 PWs)   bands (ev):

   -76.7380 -76.7380 -40.1133 -40.0985 -40.0985 -40.0273 -39.9852 -39.9852
    14.9747  15.3105  15.3105  15.5679  16.3278  16.3278  17.2856  18.2054
    18.4274  18.4274  24.3436  24.9013  24.9013

     occupation numbers 
     1.0000   1.0000   1.0000   1.0000   1.0000   1.0000   1.0000   1.0000
     1.0000   1.0000   1.0000   1.0000   1.0000   1.0000   1.0000   1.0000
     1.0000   1.0000   0.0000   0.0000   0.0000

          k = 0.3333 0.5774 0.2023 (  2763 PWs)   bands (ev):

   -76.7380 -76.7380 -40.1304 -40.1304 -40.0952 -40.0455 -39.9530 -39.9530
    15.2163  15.3365  15.3365  15.5754  16.2864  16.2864  17.2589  17.7322
    18.5233  18.5233  25.0519  25.0519  25.3565

     occupation numbers 
     1.0000   1.0000   1.0000   1.0000   1.0000   1.0000   1.0000   1.0000
     1.0000   1.0000   1.0000   1.0000   1.0000   1.0000   1.0000   1.0000
     1.0000   1.0000   0.0000   0.0000   0.0000

          k = 0.3333 0.5774-0.3035 (  2778 PWs)   bands (ev):

   -76.7380 -76.7380 -40.1426 -40.1426 -40.0704 -40.0704 -39.9407 -39.9407
    15.3482  15.3483  15.4670  15.4670  16.2691  16.2691  17.3680  17.3680
    18.5697  18.5697  25.1476  25.1476  26.7552

     occupation numbers 
     1.0000   1.0000   1.0000   1.0000   1.0000   1.0000   1.0000   1.0000
     1.0000   1.0000   1.0000   1.0000   1.0000   1.0000   1.0000   1.0000
     1.0000   1.0000   0.0000   0.0000   0.0000

[...]
    20.6018  20.6036  21.8357  24.4366  29.2569

     occupation numbers 
     1.0000   1.0000   1.0000   1.0000   1.0000   1.0000   1.0000   1.0000
     1.0000   1.0000   1.0000   1.0000   1.0000   1.0000   1.0000   0.0000
     0.0000   0.0000   0.0000   0.0000   0.0000

          k = 0.0833 0.5292 0.1012 (  2775 PWs)   bands (ev):

   -74.6843 -74.6663 -38.1985 -38.1466 -38.0380 -37.9851 -37.9376 -37.9138
    15.1442  15.7301  16.3043  16.8942  18.1673  18.6495  18.6785  20.3481
    20.5143  20.6378  21.6936  24.0668  28.3081

     occupation numbers 
     1.0000   1.0000   1.0000   1.0000   1.0000   1.0000   1.0000   1.0000
     1.0000   1.0000   1.0000   1.0000   1.0000   1.0000   1.0000   0.0000
     0.0000   0.0000   0.0000   0.0000   0.0000

          k = 0.0833 0.5292 0.2023 (  2781 PWs)   bands (ev):

   -74.6805 -74.6701 -38.2112 -38.1790 -38.0015 -37.9627 -37.9474 -37.9175
    15.1029  15.5769  16.6081  16.9122  18.2094  19.0019  19.1980  19.8861
    20.4683  20.7115  21.4748  23.0843  27.8341

     occupation numbers 
     1.0000   1.0000   1.0000   1.0000   1.0000   1.0000   1.0000   1.0000
     1.0000   1.0000   1.0000   1.0000   1.0000   1.0000   1.0000   0.0000
     0.0000   0.0000   0.0000   0.0000   0.0000

          k = 0.0833 0.5292-0.3035 (  2770 PWs)   bands (ev):

   -74.6753 -74.6753 -38.2048 -38.2048 -37.9719 -37.9719 -37.9328 -37.9328
    15.2753  15.2753  16.8518  16.8518  18.7339  18.7339  19.5354  19.5354
    20.5588  20.5588  22.0076  22.0076  28.1014

     occupation numbers 
     1.0000   1.0000   1.0000   1.0000   1.0000   1.0000   1.0000   1.0000
     1.0000   1.0000   1.0000   1.0000   1.0000   1.0000   0.0000   0.0000
     0.0000   0.0000   0.0000   0.0000   0.0000

          k = 0.1667 0.2887 0.0000 (  2758 PWs)   bands (ev):

   -74.7134 -74.6713 -38.1384 -38.0537 -38.0445 -37.9473 -37.8991 -37.8902
    12.9026  16.2916  16.5584  16.9752  18.2013  18.2214  18.8242  19.1029
    19.7841  20.1505  20.5237  25.3150  27.0895

     occupation numbers 
     1.0000   1.0000   1.0000   1.0000   1.0000   1.0000   1.0000   1.0000
     1.0000   1.0000   1.0000   1.0000   1.0000   1.0000   1.0000   1.0000
     0.0000   0.0000   0.0000   0.0000   0.0000

          k = 0.1667 0.2887 0.1012 (  2767 PWs)   bands (ev):

   -74.7106 -74.6741 -38.1399 -38.0519 -38.0340 -37.9530 -37.9033 -37.8912
    13.1111  16.1821  16.4992  17.0429  18.1013  18.2247  18.7236  19.2329
    19.9121  20.0144  20.5386  23.6603  29.2835

     occupation numbers 
     1.0000   1.0000   1.0000   1.0000   1.0000   1.0000   1.0000   1.0000
     1.0000   1.0000   1.0000   1.0000   1.0000   1.0000   1.0000   1.0000
     0.0000   0.0000   0.0000   0.0000   0.0000

          k = 0.1667 0.2887 0.2023 (  2775 PWs)   bands (ev):

   -74.7029 -74.6818 -38.1323 -38.0763 -37.9934 -37.9566 -37.9134 -37.9017
    13.7020  15.4879  16.7668  17.2160  17.8030  18.0651  18.7801  19.3849
    19.9828  20.1392  20.4978  21.9325  32.5416

     occupation numbers 
     1.0000   1.0000   1.0000   1.0000   1.0000   1.0000   1.0000   1.0000
     1.0000   1.0000   1.0000   1.0000   1.0000   1.0000   1.0000   0.0000
     0.0000   0.0000   0.0000   0.0000   0.0000

          k = 0.1667 0.2887-0.3035 (  2770 PWs)   bands (ev):

   -74.6924 -74.6924 -38.1085 -38.1085 -37.9609 -37.9609 -37.9175 -37.9175
    14.5627  14.5627  17.1490  17.1490  17.7521  17.7521  19.0909  19.0909
    20.3276  20.3276  20.7295  20.7295  34.7256

     occupation numbers 
     1.0000   1.0000   1.0000   1.0000   1.0000   1.0000   1.0000   1.0000
     1.0000   1.0000   1.0000   1.0000   1.0000   1.0000   1.0000   1.0000
     0.0000   0.0000   0.0000   0.0000   0.0000

          k = 0.1667 0.3849 0.0000 (  2773 PWs)   bands (ev):

   -74.6983 -74.6667 -38.1119 -38.0985 -38.0871 -37.9812 -37.9250 -37.9124
    14.1797  16.2639  16.3547  16.8020  18.0009  18.3372  18.5651  19.4752
    20.3093  20.5061  20.9242  27.1164  27.3943

     occupation numbers 
     1.0000   1.0000   1.0000   1.0000   1.0000   1.0000   1.0000   1.0000
     1.0000   1.0000   1.0000   1.0000   1.0000   1.0000   1.0000   0.0000
     0.0000   0.0000   0.0000   0.0000   0.0000

          k = 0.1667 0.3849 0.1012 (  2771 PWs)   bands (ev):

   -74.6962 -74.6688 -38.1399 -38.1051 -38.0477 -37.9856 -37.9309 -37.9070
    14.3197  16.1263  16.4563  16.9057  17.9528  18.3253  18.5208  19.5368
    20.2464  20.4126  21.0204  24.7818  29.7087

     occupation numbers 
     1.0000   1.0000   1.0000   1.0000   1.0000   1.0000   1.0000   1.0000
     1.0000   1.0000   1.0000   1.0000   1.0000   1.0000   1.0000   0.0000
     0.0000   0.0000   0.0000   0.0000   0.0000

          k = 0.1667 0.3849 0.2023 (  2776 PWs)   bands (ev):

   -74.6904 -74.6746 -38.1556 -38.1263 -38.0039 -37.9831 -37.9388 -37.9084
    14.7035  15.7524  16.7368  17.1180  17.7925  18.0606  18.7154  19.5541
    20.0889  20.5975  21.1028  22.7835  30.7734

     occupation numbers 
     1.0000   1.0000   1.0000   1.0000   1.0000   1.0000   1.0000   1.0000
     1.0000   1.0000   1.0000   1.0000   1.0000   1.0000   1.0000   0.0000
     0.0000   0.0000   0.0000   0.0000   0.0000

          k = 0.1667 0.3849-0.3035 (  2778 PWs)   bands (ev):

   -74.6825 -74.6825 -38.1486 -38.1486 -37.9834 -37.9834 -37.9260 -37.9260
    15.2296  15.2296  17.0829  17.0829  17.7793  17.7793  19.0951  19.0951
    20.5788  20.5788  21.4522  21.4522  31.8660

     occupation numbers 
     1.0000   1.0000   1.0000   1.0000   1.0000   1.0000   1.0000   1.0000
     1.0000   1.0000   1.0000   1.0000   1.0000   1.0000   1.0000   1.0000
     0.0000   0.0000   0.0000   0.0000   0.0000

          k = 0.1667 0.4811 0.0000 (  2783 PWs)   bands (ev):

   -74.6858 -74.6649 -38.1574 -38.1102 -38.0603 -38.0123 -37.9428 -37.9376
    15.2797  16.0955  16.1141  16.8854  17.9358  18.2731  18.5831  19.9734
    20.4927  20.5663  21.8871  25.9610  29.0564

     occupation numbers 
     1.0000   1.0000   1.0000   1.0000   1.0000   1.0000   1.0000   1.0000
     1.0000   1.0000   1.0000   1.0000   1.0000   1.0000   1.0000   0.0000
     0.0000   0.0000   0.0000   0.0000   0.0000

          k = 0.1667 0.4811 0.1012 (  2781 PWs)   bands (ev):

   -74.6844 -74.6663 -38.1691 -38.1280 -38.0421 -38.0033 -37.9539 -37.9240
    15.2758  16.0545  16.2917  16.9006  17.9452  18.2432  18.6837  19.9749
    20.2575  20.6413  21.9337  25.2736  28.1992

     occupation numbers 
     1.0000   1.0000   1.0000   1.0000   1.0000   1.0000   1.0000   1.0000
     1.0000   1.0000   1.0000   1.0000   1.0000   1.0000   1.0000   0.0000
     0.0000   0.0000   0.0000   0.0000   0.0000

          k = 0.1667 0.4811 0.2023 (  2778 PWs)   bands (ev):

   -74.6805 -74.6701 -38.1832 -38.1571 -38.0238 -37.9863 -37.9537 -37.9159
    15.3506  15.8564  16.6231  17.1482  17.7645  18.2343  18.9374  19.6655
    20.2059  20.7376  22.0801  23.7885  28.3805

     occupation numbers 
     1.0000   1.0000   1.0000   1.0000   1.0000   1.0000   1.0000   1.0000
     1.0000   1.0000   1.0000   1.0000   1.0000   1.0000   1.0000   0.0000
     0.0000   0.0000   0.0000   0.0000   0.0000

          k = 0.1667 0.4811-0.3035 (  2776 PWs)   bands (ev):

   -74.6753 -74.6753 -38.1795 -38.1795 -38.0033 -38.0033 -37.9273 -37.9273
    15.5629  15.5629  17.0272  17.0272  17.9700  17.9700  19.2271  19.2271
    20.5692  20.5692  22.6065  22.6065  29.1847

     occupation numbers 
     1.0000   1.0000   1.0000   1.0000   1.0000   1.0000   1.0000   1.0000
     1.0000   1.0000   1.0000   1.0000   1.0000   1.0000   1.0000   1.0000
     0.0000   0.0000   0.0000   0.0000   0.0000

          k = 0.1667 0.5774 0.0000 (  2784 PWs)   bands (ev):

   -74.6803 -74.6651 -38.1738 -38.1176 -38.0410 -38.0250 -37.9522 -37.9492
    15.7271  15.9688  16.0418  16.9753  18.0080  18.0693  18.6925  20.3262
    20.4875  20.5287  22.8270  24.3836  30.3883

     occupation numbers 
     1.0000   1.0000   1.0000   1.0000   1.0000   1.0000   1.0000   1.0000
     1.0000   1.0000   1.0000   1.0000   1.0000   1.0000   1.0000   0.0000
     0.0000   0.0000   0.0000   0.0000   0.0000

          k = 0.1667 0.5774 0.1012 (  2780 PWs)   bands (ev):

   -74.6793 -74.6661 -38.1833 -38.1344 -38.0451 -37.9965 -37.9669 -37.9324
    15.5410  16.0139  16.4496  16.7610  17.9036  18.2786  18.8015  20.2323
    20.3267  20.5877  22.8484  24.2714  29.2966

     occupation numbers 
     1.0000   1.0000   1.0000   1.0000   1.0000   1.0000   1.0000   1.0000
     1.0000   1.0000   1.0000   1.0000   1.0000   1.0000   1.0000   0.0000
     0.0000   0.0000   0.0000   0.0000   0.0000

          k = 0.1667 0.5774 0.2023 (  2775 PWs)   bands (ev):

   -74.6765 -74.6689 -38.1954 -38.1669 -38.0332 -37.9869 -37.9557 -37.9200
    15.4834  15.9181  16.6975  17.0588  17.6751  18.4179  19.0923  19.7336
    20.3602  20.6381  22.9642  23.9089  28.2478

     occupation numbers 
     1.0000   1.0000   1.0000   1.0000   1.0000   1.0000   1.0000   1.0000
     1.0000   1.0000   1.0000   1.0000   1.0000   1.0000   1.0000   0.0000
     0.0000   0.0000   0.0000   0.0000   0.0000

          k = 0.1667 0.5774-0.3035 (  2762 PWs)   bands (ev):

   -74.6727 -74.6727 -38.1909 -38.1909 -38.0110 -38.0110 -37.9270 -37.9270
    15.6391  15.6391  17.0140  17.0140  18.0296  18.0296  19.3975  19.3975
    20.5021  20.5021  23.3651  23.3651  27.8906

     occupation numbers 
     1.0000   1.0000   1.0000   1.0000   1.0000   1.0000   1.0000   1.0000
     1.0000   1.0000   1.0000   1.0000   1.0000   1.0000   0.0000   0.0000
     0.0000   0.0000   0.0000   0.0000   0.0000

          k = 0.2500 0.4330 0.0000 (  2780 PWs)   bands (ev):

   -74.6858 -74.6649 -38.1322 -38.1084 -38.0606 -38.0167 -37.9657 -37.9374
    15.3074  16.1783  16.4773  16.5326  17.8323  18.3052  18.5885  19.6983
    20.4358  20.5638  21.9366  27.5189  28.4705

     occupation numbers 
     1.0000   1.0000   1.0000   1.0000   1.0000   1.0000   1.0000   1.0000
     1.0000   1.0000   1.0000   1.0000   1.0000   1.0000   1.0000   0.0000
     0.0000   0.0000   0.0000   0.0000   0.0000

          k = 0.2500 0.4330 0.1012 (  2779 PWs)   bands (ev):

   -74.6844 -74.6663 -38.1361 -38.1357 -38.0282 -38.0275 -37.9675 -37.9260
    15.3758  16.0954  16.5446  16.7171  17.8732  18.1127  18.6113  19.7580
    20.1921  20.6475  22.0355  25.9812  28.7528

     occupation numbers 
     1.0000   1.0000   1.0000   1.0000   1.0000   1.0000   1.0000   1.0000
     1.0000   1.0000   1.0000   1.0000   1.0000   1.0000   1.0000   0.0000
     0.0000   0.0000   0.0000   0.0000   0.0000

          k = 0.2500 0.4330 0.2023 (  2781 PWs)   bands (ev):

   -74.6806 -74.6701 -38.1603 -38.1497 -38.0328 -38.0085 -37.9536 -37.9157
    15.5507  15.9541  16.7661  17.0735  17.7112  17.8398  18.7218  19.5569
    20.1615  20.7478  22.2683  24.1083  29.5192

     occupation numbers 
     1.0000   1.0000   1.0000   1.0000   1.0000   1.0000   1.0000   1.0000
     1.0000   1.0000   1.0000   1.0000   1.0000   1.0000   1.0000   0.0000
     0.0000   0.0000   0.0000   0.0000   0.0000

          k = 0.2500 0.4330-0.3035 (  2772 PWs)   bands (ev):

   -74.6753 -74.6753 -38.1633 -38.1633 -38.0212 -38.0212 -37.9257 -37.9257
    15.7654  15.7654  17.1113  17.1113  17.6105  17.6105  19.0419  19.0419
    20.5946  20.5946  22.8312  22.8312  30.5145

     occupation numbers 
     1.0000   1.0000   1.0000   1.0000   1.0000   1.0000   1.0000   1.0000
     1.0000   1.0000   1.0000   1.0000   1.0000   1.0000   1.0000   1.0000
     0.0000   0.0000   0.0000   0.0000   0.0000

          k = 0.2500 0.5292 0.0000 (  2794 PWs)   bands (ev):

   -74.6766 -74.6658 -38.1467 -38.0989 -38.0533 -38.0269 -37.9922 -37.9636
    16.0114  16.1596  16.3208  16.6364  17.8307  18.0357  18.7958  20.0340
    20.3948  20.4756  23.2787  25.6099  27.7693

     occupation numbers 
     1.0000   1.0000   1.0000   1.0000   1.0000   1.0000   1.0000   1.0000
     1.0000   1.0000   1.0000   1.0000   1.0000   1.0000   1.0000   0.0000
     0.0000   0.0000   0.0000   0.0000   0.0000

          k = 0.2500 0.5292 0.1012 (  2779 PWs)   bands (ev):

   -74.6758 -74.6665 -38.1515 -38.1191 -38.0686 -38.0097 -37.9873 -37.9451
    15.9372  16.3087  16.4024  16.6920  17.8013  17.9338  18.8203  20.0651
    20.1493  20.5363  23.4360  25.5637  27.8001

     occupation numbers 
     1.0000   1.0000   1.0000   1.0000   1.0000   1.0000   1.0000   1.0000
     1.0000   1.0000   1.0000   1.0000   1.0000   1.0000   1.0000   0.0000
     0.0000   0.0000   0.0000   0.0000   0.0000

          k = 0.2500 0.5292 0.2023 (  2772 PWs)   bands (ev):

   -74.6739 -74.6685 -38.1642 -38.1481 -38.0692 -38.0265 -37.9485 -37.9243
    15.9544  16.2540  16.6851  17.0353  17.5273  17.8014  18.9129  19.5791
    20.2646  20.5980  23.8124  25.1473  27.8416

     occupation numbers 
     1.0000   1.0000   1.0000   1.0000   1.0000   1.0000   1.0000   1.0000
     1.0000   1.0000   1.0000   1.0000   1.0000   1.0000   1.0000   0.0000
     0.0000   0.0000   0.0000   0.0000   0.0000

          k = 0.2500 0.5292-0.3035 (  2758 PWs)   bands (ev):

   -74.6712 -74.6712 -38.1660 -38.1660 -38.0502 -38.0502 -37.9241 -37.9241
    16.0838  16.0838  17.0813  17.0813  17.5152  17.5152  19.1357  19.1357
    20.4940  20.4940  24.4001  24.4001  28.3881

     occupation numbers 
     1.0000   1.0000   1.0000   1.0000   1.0000   1.0000   1.0000   1.0000
     1.0000   1.0000   1.0000   1.0000   1.0000   1.0000   1.0000   1.0000
     0.0000   0.0000   0.0000   0.0000   0.0000

          k = 0.3333 0.5774 0.0000 (  2814 PWs)   bands (ev):

   -74.6697 -74.6697 -38.1324 -38.0799 -38.0799 -38.0240 -37.9939 -37.9939
    16.2057  16.3579  16.3579  16.5331  17.8593  17.8593  18.9078  20.2163
    20.2163  20.3559  24.7649  25.6230  25.6230

     occupation numbers 
     1.0000   1.0000   1.0000   1.0000   1.0000   1.0000   1.0000   1.0000
     1.0000   1.0000   1.0000   1.0000   1.0000   1.0000   1.0000   0.0000
     0.0000   0.0000   0.0000   0.0000   0.0000

          k = 0.3333 0.5774 0.1012 (  2796 PWs)   bands (ev):

   -74.6696 -74.6696 -38.1252 -38.1047 -38.1047 -38.0313 -37.9688 -37.9688
    16.2804  16.4250  16.4250  16.5626  17.7712  17.7712  18.8917  20.0858
    20.2766  20.2766  25.1735  25.6608  25.6608

     occupation numbers 
     1.0000   1.0000   1.0000   1.0000   1.0000   1.0000   1.0000   1.0000
     1.0000   1.0000   1.0000   1.0000   1.0000   1.0000   1.0000   0.0000
     0.0000   0.0000   0.0000   0.0000   0.0000

          k = 0.3333 0.5774 0.2023 (  2763 PWs)   bands (ev):

   -74.6696 -74.6696 -38.1373 -38.1373 -38.1054 -38.0512 -37.9358 -37.9358
    16.4551  16.5843  16.5843  16.6153  17.5783  17.5783  18.9029  19.5392
    20.3892  20.3892  25.7540  25.7540  26.1766

     occupation numbers 
     1.0000   1.0000   1.0000   1.0000   1.0000   1.0000   1.0000   1.0000
     1.0000   1.0000   1.0000   1.0000   1.0000   1.0000   1.0000   0.0000
     0.0000   0.0000   0.0000   0.0000   0.0000

          k = 0.3333 0.5774-0.3035 (  2778 PWs)   bands (ev):

   -74.6696 -74.6696 -38.1502 -38.1502 -38.0784 -38.0784 -37.9229 -37.9229
    16.5979  16.5979  16.6872  16.6872  17.4625  17.4625  19.0911  19.0911
    20.4420  20.4420  25.8125  25.8125  27.5067

     occupation numbers 
     1.0000   1.0000   1.0000   1.0000   1.0000   1.0000   1.0000   1.0000
     1.0000   1.0000   1.0000   1.0000   1.0000   1.0000   1.0000   1.0000
     0.0000   0.0000   0.0000   0.0000   0.0000

     the Fermi energy is    19.2841 ev

!    total energy              =    -753.45412394 Ry
     total all-electron energy =     -5573.810815 Ry
     estimated scf accuracy    <       0.00000059 Ry
     smearing contrib. (-TS)   =      -0.00001686 Ry
     internal energy E=F+TS    =    -753.45410708 Ry

     The total energy is F=E-TS. E is the sum of the following terms:
     one-electron contribution =    -277.05343904 Ry
     hartree contribution      =     162.90167078 Ry
     xc contribution           =     -61.43318577 Ry
     ewald contribution        =    -402.69308469 Ry
     one-center paw contrib.   =    -175.17606837 Ry
      -> PAW hartree energy AE =     222.19567943 Ry
      -> PAW hartree energy PS =    -221.13942847 Ry
      -> PAW xc energy AE      =    -117.67852987 Ry
      -> PAW xc energy PS      =      29.03424473 Ry
      -> total E_H with PAW    =     163.95792174 Ry
      -> total E_XC with PAW   =    -150.07747092 Ry

     total magnetization       =     3.22 Bohr mag/cell
     absolute magnetization    =     3.53 Bohr mag/cell

     convergence has been achieved in  16 iterations

     Writing all to output data dir ./out2/Co.save/
 
     init_run     :      0.38s CPU      0.50s WALL (       1 calls)
     electrons    :     26.33s CPU     28.02s WALL (       1 calls)

     Called by init_run:
     wfcinit      :      0.23s CPU      0.32s WALL (       1 calls)
     potinit      :      0.10s CPU      0.13s WALL (       1 calls)
     hinit0       :      0.03s CPU      0.03s WALL (       1 calls)

     Called by electrons:
     c_bands      :     21.53s CPU     22.70s WALL (      16 calls)
     sum_band     :      3.11s CPU      3.26s WALL (      16 calls)
     v_of_rho     :      0.05s CPU      0.05s WALL (      17 calls)
     v_h          :      0.00s CPU      0.00s WALL (      17 calls)
     v_xc         :      0.05s CPU      0.05s WALL (      17 calls)
     newd         :      0.08s CPU      0.09s WALL (      17 calls)
     PAW_pot      :      1.63s CPU      2.00s WALL (      17 calls)
     mix_rho      :      0.01s CPU      0.02s WALL (      16 calls)

     Called by c_bands:
     init_us_2    :      0.20s CPU      0.21s WALL (    4864 calls)
     init_us_2:cp :      0.19s CPU      0.20s WALL (    4864 calls)
     cegterg      :     20.31s CPU     21.19s WALL (    2432 calls)

     Called by sum_band:
     sum_band:wei :      0.02s CPU      0.02s WALL (      16 calls)
     sum_band:loo :      2.93s CPU      3.08s WALL (      16 calls)
     sum_band:buf :      0.01s CPU      0.02s WALL (    2432 calls)
     sum_band:ini :      0.12s CPU      0.10s WALL (    2432 calls)
     sum_band:cal :      0.22s CPU      0.21s WALL (    2432 calls)
     sum_band:bec :      0.01s CPU      0.03s WALL (    2432 calls)
     addusdens    :      0.13s CPU      0.13s WALL (      16 calls)
                                        0.00s GPU  (      16 calls)
     addusd:skk   :      0.00s CPU      0.00s WALL (      16 calls)
                                        0.00s GPU  (      16 calls)

     Called by *egterg:
     cdiaghg      :      4.56s CPU      4.67s WALL (    8841 calls)
     cegterg:over :      0.62s CPU      0.58s WALL (    6561 calls)
     cegterg:upda :      0.07s CPU      0.15s WALL (    6561 calls)
     cegterg:last :      0.24s CPU      0.28s WALL (    5537 calls)
     h_psi        :     13.88s CPU     14.58s WALL (    8993 calls)
     s_psi        :      0.29s CPU      0.24s WALL (    8993 calls)
     g_psi        :      0.04s CPU      0.05s WALL (    6561 calls)

     Called by h_psi:
     h_psi:calbec :      0.70s CPU      0.64s WALL (    8993 calls)
     vloc_psi     :     12.96s CPU     13.58s WALL (    8993 calls)
     add_vuspsi   :      0.18s CPU      0.28s WALL (    8993 calls)

     General routines
     calbec       :      0.91s CPU      0.84s WALL (   11425 calls)
     fft          :      0.03s CPU      0.03s WALL (     419 calls)
     ffts         :      0.00s CPU      0.00s WALL (      66 calls)
     fftw         :     14.47s CPU     15.00s WALL (  332654 calls)
     interpolate  :      0.01s CPU      0.01s WALL (      34 calls)
 
     Parallel routines

     PAW routines
     PAW_pot      :      1.63s CPU      2.00s WALL (      17 calls)
     PAW_symme    :      0.02s CPU      0.02s WALL (      32 calls)
 
     PWSCF        :     27.00s CPU     29.31s WALL

 
   This run was terminated on:   9:40:24  22Mar2024            

=------------------------------------------------------------------------------=
   JOB DONE.
=------------------------------------------------------------------------------=
