
     Program PWSCF v.7.2 starts on 22Mar2024 at  8:32:38 

     This program is part of the open-source Quantum ESPRESSO suite
     for quantum simulation of materials; please cite
         "P. Giannozzi et al., J. Phys.:Condens. Matter 21 395502 (2009);
         "P. Giannozzi et al., J. Phys.:Condens. Matter 29 465901 (2017);
         "P. Giannozzi et al., J. Chem. Phys. 152 154105 (2020);
          URL http://www.quantum-espresso.org", 
     in publications or presentations arising from this work. More details at
     http://www.quantum-espresso.org/quote

     Parallel version (MPI), running on    20 processors

     MPI processes distributed on     1 nodes
     352547 MiB available memory on the printing compute node when the environment starts
 
     Waiting for input...
     Reading input from standard input

     Current dimensions of program PWSCF are:
     Max number of different atomic species (ntypx) = 10
     Max number of k-points (npk) = 120000
     Max angular momentum in pseudopotentials (lmaxx) =  4
     file Co.pbe-spn-kjpaw_psl.0.3.1.UPF: wavefunction(s)  3P 3D renormalized
 
     R & G space division:  proc/nbgrp/npool/nimage =      20
     Subspace diagonalization in iterative solution of the eigenvalue problem:
     a serial algorithm will be used

 
     Parallelization info
     --------------------
     sticks:   dense  smooth     PW     G-vecs:    dense   smooth      PW
     Min          33      33      9                 1174     1141     181
     Max          36      34     10                 1186     1148     188
     Sum         685     673    199                23547    22875    3729
 
     Using Slab Decomposition
 


     bravais-lattice index     =            4
     lattice parameter (alat)  =       4.7149  a.u.
     unit-cell volume          =     146.4314 (a.u.)^3
     number of atoms/cell      =            2
     number of atomic types    =            1
     number of electrons       =        34.00
     number of Kohn-Sham states=           21
     kinetic-energy cutoff     =     110.0000  Ry
     charge density cutoff     =     450.0000  Ry
     scf convergence threshold =      1.0E-06
     mixing beta               =       0.7000
     number of iterations used =            8  plain     mixing
     Exchange-correlation= SLA  PW   PBX  PBC
                           (   1   4   3   4   0   0   0)

     celldm(1)=   4.714867  celldm(2)=   0.000000  celldm(3)=   1.613226
     celldm(4)=   0.000000  celldm(5)=   0.000000  celldm(6)=   0.000000

     crystal axes: (cart. coord. in units of alat)
               a(1) = (   1.000000   0.000000   0.000000 )  
               a(2) = (  -0.500000   0.866025   0.000000 )  
               a(3) = (   0.000000   0.000000   1.613226 )  

     reciprocal axes: (cart. coord. in units 2 pi/alat)
               b(1) = (  1.000000  0.577350  0.000000 )  
               b(2) = (  0.000000  1.154701  0.000000 )  
               b(3) = (  0.000000  0.000000  0.619876 )  


     PseudoPot. # 1 for Co read from file:
     /truba/home/amuhaymin/ZnS/pseudo/QE/Co.pbe-spn-kjpaw_psl.0.3.1.UPF
     MD5 check sum: b0a1ad65bf214e88c1f3d33b20c7d919
     Pseudo is Projector augmented-wave + core cor, Zval = 17.0
     Generated using &quot;atomic&quot; code by A. Dal Corso  v.6.2.2
     Shape of augmentation charge: PSQ
     Using radial grid of 1193 points,  6 beta functions with: 
                l(1) =   0
                l(2) =   0
                l(3) =   1
                l(4) =   1
                l(5) =   2
                l(6) =   2
     Q(r) pseudized with 0 coefficients 


     atomic species   valence    mass     pseudopotential
        Co            17.00    58.93300     Co( 1.00)

     Starting magnetic structure 
     atomic species   magnetization
        Co           0.294

     24 Sym. Ops., with inversion, found (12 have fractional translation)


                                    s                        frac. trans.

      isym =  1     identity                                     

 cryst.   s( 1) = (     1          0          0      )
                  (     0          1          0      )
                  (     0          0          1      )

 cart.    s( 1) = (  1.0000000  0.0000000  0.0000000 )
                  (  0.0000000  1.0000000  0.0000000 )
                  (  0.0000000  0.0000000  1.0000000 )


      isym =  2     180 deg rotation - cart. axis [0,0,1]        

 cryst.   s( 2) = (    -1          0          0      )    f =(  0.0000000 )
                  (     0         -1          0      )       ( -0.0000000 )
                  (     0          0          1      )       ( -0.5000000 )

 cart.    s( 2) = ( -1.0000000  0.0000000  0.0000000 )    f =(  0.0000000 )
                  (  0.0000000 -1.0000000  0.0000000 )       ( -0.0000000 )
                  (  0.0000000  0.0000000  1.0000000 )       ( -0.8066132 )


      isym =  3     180 deg rotation - cart. axis [0,1,0]        

 cryst.   s( 3) = (    -1          0          0      )    f =(  0.0000000 )
                  (     1          1          0      )       (  0.0000000 )
                  (     0          0         -1      )       (  0.5000000 )

 cart.    s( 3) = ( -1.0000000  0.0000000  0.0000000 )    f =(  0.0000000 )
                  (  0.0000000  1.0000000  0.0000000 )       (  0.0000000 )
                  (  0.0000000  0.0000000 -1.0000000 )       (  0.8066132 )


      isym =  4     180 deg rotation - cart. axis [1,0,0]        

 cryst.   s( 4) = (     1          0          0      )
                  (    -1         -1          0      )
                  (     0          0         -1      )

 cart.    s( 4) = (  1.0000000  0.0000000  0.0000000 )
                  (  0.0000000 -1.0000000  0.0000000 )
                  (  0.0000000  0.0000000 -1.0000000 )


      isym =  5      60 deg rotation - cryst. axis [0,0,1]       

 cryst.   s( 5) = (     1          1          0      )    f =(  0.0000000 )
                  (    -1          0          0      )       ( -0.0000000 )
                  (     0          0          1      )       ( -0.5000000 )

 cart.    s( 5) = (  0.5000000 -0.8660254  0.0000000 )    f =(  0.0000000 )
                  (  0.8660254  0.5000000  0.0000000 )       ( -0.0000000 )
                  (  0.0000000  0.0000000  1.0000000 )       ( -0.8066132 )


      isym =  6      60 deg rotation - cryst. axis [0,0,-1]      

 cryst.   s( 6) = (     0         -1          0      )    f =(  0.0000000 )
                  (     1          1          0      )       ( -0.0000000 )
                  (     0          0          1      )       ( -0.5000000 )

 cart.    s( 6) = (  0.5000000  0.8660254  0.0000000 )    f =(  0.0000000 )
                  ( -0.8660254  0.5000000  0.0000000 )       ( -0.0000000 )
                  (  0.0000000  0.0000000  1.0000000 )       ( -0.8066132 )


      isym =  7     120 deg rotation - cryst. axis [0,0,1]       

 cryst.   s( 7) = (     0          1          0      )
                  (    -1         -1          0      )
                  (     0          0          1      )

 cart.    s( 7) = ( -0.5000000 -0.8660254  0.0000000 )
                  (  0.8660254 -0.5000000  0.0000000 )
                  (  0.0000000  0.0000000  1.0000000 )


      isym =  8     120 deg rotation - cryst. axis [0,0,-1]      

 cryst.   s( 8) = (    -1         -1          0      )
                  (     1          0          0      )
                  (     0          0          1      )

 cart.    s( 8) = ( -0.5000000  0.8660254  0.0000000 )
                  ( -0.8660254 -0.5000000  0.0000000 )
                  (  0.0000000  0.0000000  1.0000000 )


      isym =  9     180 deg rotation - cryst. axis [1,-1,0]      

 cryst.   s( 9) = (     0         -1          0      )    f =( -0.0000000 )
                  (    -1          0          0      )       ( -0.0000000 )
                  (     0          0         -1      )       (  0.5000000 )

 cart.    s( 9) = (  0.5000000 -0.8660254  0.0000000 )    f =( -0.0000000 )
                  ( -0.8660254 -0.5000000  0.0000000 )       ( -0.0000000 )
                  (  0.0000000  0.0000000 -1.0000000 )       (  0.8066132 )


      isym = 10     180 deg rotation - cryst. axis [2,1,0]       

 cryst.   s(10) = (     1          1          0      )    f =(  0.0000000 )
                  (     0         -1          0      )       ( -0.0000000 )
                  (     0          0         -1      )       (  0.5000000 )

 cart.    s(10) = (  0.5000000  0.8660254  0.0000000 )    f =(  0.0000000 )
                  (  0.8660254 -0.5000000  0.0000000 )       ( -0.0000000 )
                  (  0.0000000  0.0000000 -1.0000000 )       (  0.8066132 )


      isym = 11     180 deg rotation - cryst. axis [0,1,0]       

 cryst.   s(11) = (    -1         -1          0      )
                  (     0          1          0      )
                  (     0          0         -1      )

 cart.    s(11) = ( -0.5000000 -0.8660254  0.0000000 )
                  ( -0.8660254  0.5000000  0.0000000 )
                  (  0.0000000  0.0000000 -1.0000000 )


      isym = 12     180 deg rotation - cryst. axis [1,1,0]       

 cryst.   s(12) = (     0          1          0      )
                  (     1          0          0      )
                  (     0          0         -1      )

 cart.    s(12) = ( -0.5000000  0.8660254  0.0000000 )
                  (  0.8660254  0.5000000  0.0000000 )
                  (  0.0000000  0.0000000 -1.0000000 )


      isym = 13     inversion                                    

 cryst.   s(13) = (    -1          0          0      )
                  (     0         -1          0      )
                  (     0          0         -1      )

 cart.    s(13) = ( -1.0000000  0.0000000  0.0000000 )
                  (  0.0000000 -1.0000000  0.0000000 )
                  (  0.0000000  0.0000000 -1.0000000 )


      isym = 14     inv. 180 deg rotation - cart. axis [0,0,1]   

 cryst.   s(14) = (     1          0          0      )    f =(  0.0000000 )
                  (     0          1          0      )       (  0.0000000 )
                  (     0          0         -1      )       (  0.5000000 )

 cart.    s(14) = (  1.0000000  0.0000000  0.0000000 )    f =(  0.0000000 )
                  (  0.0000000  1.0000000  0.0000000 )       (  0.0000000 )
                  (  0.0000000  0.0000000 -1.0000000 )       (  0.8066132 )


      isym = 15     inv. 180 deg rotation - cart. axis [0,1,0]   

 cryst.   s(15) = (     1          0          0      )    f =(  0.0000000 )
                  (    -1         -1          0      )       ( -0.0000000 )
                  (     0          0          1      )       ( -0.5000000 )

 cart.    s(15) = (  1.0000000  0.0000000  0.0000000 )    f =(  0.0000000 )
                  (  0.0000000 -1.0000000  0.0000000 )       ( -0.0000000 )
                  (  0.0000000  0.0000000  1.0000000 )       ( -0.8066132 )


      isym = 16     inv. 180 deg rotation - cart. axis [1,0,0]   

 cryst.   s(16) = (    -1          0          0      )
                  (     1          1          0      )
                  (     0          0          1      )

 cart.    s(16) = ( -1.0000000  0.0000000  0.0000000 )
                  (  0.0000000  1.0000000  0.0000000 )
                  (  0.0000000  0.0000000  1.0000000 )


      isym = 17     inv.  60 deg rotation - cryst. axis [0,0,1]  

 cryst.   s(17) = (    -1         -1          0      )    f =(  0.0000000 )
                  (     1          0          0      )       ( -0.0000000 )
                  (     0          0         -1      )       (  0.5000000 )

 cart.    s(17) = ( -0.5000000  0.8660254  0.0000000 )    f =(  0.0000000 )
                  ( -0.8660254 -0.5000000  0.0000000 )       ( -0.0000000 )
                  (  0.0000000  0.0000000 -1.0000000 )       (  0.8066132 )


      isym = 18     inv.  60 deg rotation - cryst. axis [0,0,-1] 

 cryst.   s(18) = (     0          1          0      )    f =( -0.0000000 )
                  (    -1         -1          0      )       ( -0.0000000 )
                  (     0          0         -1      )       (  0.5000000 )

 cart.    s(18) = ( -0.5000000 -0.8660254  0.0000000 )    f =(  0.0000000 )
                  (  0.8660254 -0.5000000  0.0000000 )       ( -0.0000000 )
                  (  0.0000000  0.0000000 -1.0000000 )       (  0.8066132 )


      isym = 19     inv. 120 deg rotation - cryst. axis [0,0,1]  

 cryst.   s(19) = (     0         -1          0      )
                  (     1          1          0      )
                  (     0          0         -1      )

 cart.    s(19) = (  0.5000000  0.8660254  0.0000000 )
                  ( -0.8660254  0.5000000  0.0000000 )
                  (  0.0000000  0.0000000 -1.0000000 )


      isym = 20     inv. 120 deg rotation - cryst. axis [0,0,-1] 

 cryst.   s(20) = (     1          1          0      )
                  (    -1          0          0      )
                  (     0          0         -1      )

 cart.    s(20) = (  0.5000000 -0.8660254  0.0000000 )
                  (  0.8660254  0.5000000  0.0000000 )
                  (  0.0000000  0.0000000 -1.0000000 )


      isym = 21     inv. 180 deg rotation - cryst. axis [1,-1,0] 

 cryst.   s(21) = (     0          1          0      )    f =(  0.0000000 )
                  (     1          0          0      )       ( -0.0000000 )
                  (     0          0          1      )       ( -0.5000000 )

 cart.    s(21) = ( -0.5000000  0.8660254  0.0000000 )    f =(  0.0000000 )
                  (  0.8660254  0.5000000  0.0000000 )       ( -0.0000000 )
                  (  0.0000000  0.0000000  1.0000000 )       ( -0.8066132 )


      isym = 22     inv. 180 deg rotation - cryst. axis [2,1,0]  

 cryst.   s(22) = (    -1         -1          0      )    f =(  0.0000000 )
                  (     0          1          0      )       ( -0.0000000 )
                  (     0          0          1      )       ( -0.5000000 )

 cart.    s(22) = ( -0.5000000 -0.8660254  0.0000000 )    f =(  0.0000000 )
                  ( -0.8660254  0.5000000  0.0000000 )       ( -0.0000000 )
                  (  0.0000000  0.0000000  1.0000000 )       ( -0.8066132 )


      isym = 23     inv. 180 deg rotation - cryst. axis [0,1,0]  

 cryst.   s(23) = (     1          1          0      )
                  (     0         -1          0      )
                  (     0          0          1      )

 cart.    s(23) = (  0.5000000  0.8660254  0.0000000 )
                  (  0.8660254 -0.5000000  0.0000000 )
                  (  0.0000000  0.0000000  1.0000000 )


      isym = 24     inv. 180 deg rotation - cryst. axis [1,1,0]  

 cryst.   s(24) = (     0         -1          0      )
                  (    -1          0          0      )
                  (     0          0          1      )

 cart.    s(24) = (  0.5000000 -0.8660254  0.0000000 )
                  ( -0.8660254 -0.5000000  0.0000000 )
                  (  0.0000000  0.0000000  1.0000000 )


     point group D_6h(6/mmm)
     there are 12 classes
     the character table:

       E     2C6   2C3   C2    3C2'  3C2'' i     2S3   2S6   s_h   3s_d  3s_v 
A_1g   1.00  1.00  1.00  1.00  1.00  1.00  1.00  1.00  1.00  1.00  1.00  1.00
A_2g   1.00  1.00  1.00  1.00 -1.00 -1.00  1.00  1.00  1.00  1.00 -1.00 -1.00
B_1g   1.00 -1.00  1.00 -1.00  1.00 -1.00  1.00 -1.00  1.00 -1.00  1.00 -1.00
B_2g   1.00 -1.00  1.00 -1.00 -1.00  1.00  1.00 -1.00  1.00 -1.00 -1.00  1.00
E_1g   2.00  1.00 -1.00 -2.00  0.00  0.00  2.00  1.00 -1.00 -2.00  0.00  0.00
E_2g   2.00 -1.00 -1.00  2.00  0.00  0.00  2.00 -1.00 -1.00  2.00  0.00  0.00
A_1u   1.00  1.00  1.00  1.00  1.00  1.00 -1.00 -1.00 -1.00 -1.00 -1.00 -1.00
A_2u   1.00  1.00  1.00  1.00 -1.00 -1.00 -1.00 -1.00 -1.00 -1.00  1.00  1.00
B_1u   1.00 -1.00  1.00 -1.00  1.00 -1.00 -1.00  1.00 -1.00  1.00 -1.00  1.00
B_2u   1.00 -1.00  1.00 -1.00 -1.00  1.00 -1.00  1.00 -1.00  1.00  1.00 -1.00
E_1u   2.00  1.00 -1.00 -2.00  0.00  0.00 -2.00 -1.00  1.00  2.00  0.00  0.00
E_2u   2.00 -1.00 -1.00  2.00  0.00  0.00 -2.00  1.00  1.00 -2.00  0.00  0.00

     the symmetry operations in each class and the name of the first element:

     E        1
          identity                                               
     2C6      5    6
           60 deg rotation - cryst. axis [0,0,1]                 
     2C3      7    8
          120 deg rotation - cryst. axis [0,0,1]                 
     C2       2
          180 deg rotation - cart. axis [0,0,1]                  
     3C2'     4   12   11
          180 deg rotation - cart. axis [1,0,0]                  
     3C2''    3    9   10
          180 deg rotation - cart. axis [0,1,0]                  
     i       13
          inversion                                              
     2S3     17   18
          inv.  60 deg rotation - cryst. axis [0,0,1]            
     2S6     19   20
          inv. 120 deg rotation - cryst. axis [0,0,1]            
     s_h     14
          inv. 180 deg rotation - cart. axis [0,0,1]             
     3s_d    16   24   23
          inv. 180 deg rotation - cart. axis [1,0,0]             
     3s_v    15   21   22
          inv. 180 deg rotation - cart. axis [0,1,0]             

   Cartesian axes

     site n.     atom                  positions (alat units)
         1           Co  tau(   1) = (  -0.0000000   0.5773503   0.4033066  )
         2           Co  tau(   2) = (   0.5000000   0.2886751   1.2099198  )

   Crystallographic axes

     site n.     atom                  positions (cryst. coord.)
         1           Co  tau(   1) = (  0.3333333  0.6666667  0.2500000  )
         2           Co  tau(   2) = (  0.6666667  0.3333333  0.7500000  )

     number of k points=    76  Gaussian smearing, width (Ry)=  0.0010
                       cart. coord. in units 2pi/alat
        k(    1) = (   0.0000000   0.0000000   0.0000000), wk =   0.0011574
        k(    2) = (   0.0000000   0.0000000   0.1033126), wk =   0.0023148
        k(    3) = (   0.0000000   0.0000000   0.2066253), wk =   0.0023148
        k(    4) = (   0.0000000   0.0000000  -0.3099379), wk =   0.0011574
        k(    5) = (   0.0000000   0.0962250   0.0000000), wk =   0.0069444
        k(    6) = (   0.0000000   0.0962250   0.1033126), wk =   0.0138889
        k(    7) = (   0.0000000   0.0962250   0.2066253), wk =   0.0138889
        k(    8) = (   0.0000000   0.0962250  -0.3099379), wk =   0.0069444
        k(    9) = (   0.0000000   0.1924501   0.0000000), wk =   0.0069444
        k(   10) = (   0.0000000   0.1924501   0.1033126), wk =   0.0138889
        k(   11) = (   0.0000000   0.1924501   0.2066253), wk =   0.0138889
        k(   12) = (   0.0000000   0.1924501  -0.3099379), wk =   0.0069444
        k(   13) = (   0.0000000   0.2886751   0.0000000), wk =   0.0069444
        k(   14) = (   0.0000000   0.2886751   0.1033126), wk =   0.0138889
        k(   15) = (   0.0000000   0.2886751   0.2066253), wk =   0.0138889
        k(   16) = (   0.0000000   0.2886751  -0.3099379), wk =   0.0069444
        k(   17) = (   0.0000000   0.3849002   0.0000000), wk =   0.0069444
        k(   18) = (   0.0000000   0.3849002   0.1033126), wk =   0.0138889
        k(   19) = (   0.0000000   0.3849002   0.2066253), wk =   0.0138889
        k(   20) = (   0.0000000   0.3849002  -0.3099379), wk =   0.0069444
        k(   21) = (   0.0000000   0.4811252   0.0000000), wk =   0.0069444
        k(   22) = (   0.0000000   0.4811252   0.1033126), wk =   0.0138889
        k(   23) = (   0.0000000   0.4811252   0.2066253), wk =   0.0138889
        k(   24) = (   0.0000000   0.4811252  -0.3099379), wk =   0.0069444
        k(   25) = (   0.0000000  -0.5773503   0.0000000), wk =   0.0034722
        k(   26) = (   0.0000000  -0.5773503   0.1033126), wk =   0.0069444
        k(   27) = (   0.0000000  -0.5773503   0.2066253), wk =   0.0069444
        k(   28) = (   0.0000000  -0.5773503  -0.3099379), wk =   0.0034722
        k(   29) = (   0.0833333   0.1443376   0.0000000), wk =   0.0069444
        k(   30) = (   0.0833333   0.1443376   0.1033126), wk =   0.0138889
        k(   31) = (   0.0833333   0.1443376   0.2066253), wk =   0.0138889
        k(   32) = (   0.0833333   0.1443376  -0.3099379), wk =   0.0069444
        k(   33) = (   0.0833333   0.2405626   0.0000000), wk =   0.0138889
        k(   34) = (   0.0833333   0.2405626   0.1033126), wk =   0.0277778
        k(   35) = (   0.0833333   0.2405626   0.2066253), wk =   0.0277778
        k(   36) = (   0.0833333   0.2405626  -0.3099379), wk =   0.0138889
        k(   37) = (   0.0833333   0.3367877   0.0000000), wk =   0.0138889
        k(   38) = (   0.0833333   0.3367877   0.1033126), wk =   0.0277778
        k(   39) = (   0.0833333   0.3367877   0.2066253), wk =   0.0277778
        k(   40) = (   0.0833333   0.3367877  -0.3099379), wk =   0.0138889
        k(   41) = (   0.0833333   0.4330127   0.0000000), wk =   0.0138889
        k(   42) = (   0.0833333   0.4330127   0.1033126), wk =   0.0277778
        k(   43) = (   0.0833333   0.4330127   0.2066253), wk =   0.0277778
        k(   44) = (   0.0833333   0.4330127  -0.3099379), wk =   0.0138889
        k(   45) = (   0.0833333   0.5292377   0.0000000), wk =   0.0138889
        k(   46) = (   0.0833333   0.5292377   0.1033126), wk =   0.0277778
        k(   47) = (   0.0833333   0.5292377   0.2066253), wk =   0.0277778
        k(   48) = (   0.0833333   0.5292377  -0.3099379), wk =   0.0138889
        k(   49) = (   0.1666667   0.2886751   0.0000000), wk =   0.0069444
        k(   50) = (   0.1666667   0.2886751   0.1033126), wk =   0.0138889
        k(   51) = (   0.1666667   0.2886751   0.2066253), wk =   0.0138889
        k(   52) = (   0.1666667   0.2886751  -0.3099379), wk =   0.0069444
        k(   53) = (   0.1666667   0.3849002   0.0000000), wk =   0.0138889
        k(   54) = (   0.1666667   0.3849002   0.1033126), wk =   0.0277778
        k(   55) = (   0.1666667   0.3849002   0.2066253), wk =   0.0277778
        k(   56) = (   0.1666667   0.3849002  -0.3099379), wk =   0.0138889
        k(   57) = (   0.1666667   0.4811252   0.0000000), wk =   0.0138889
        k(   58) = (   0.1666667   0.4811252   0.1033126), wk =   0.0277778
        k(   59) = (   0.1666667   0.4811252   0.2066253), wk =   0.0277778
        k(   60) = (   0.1666667   0.4811252  -0.3099379), wk =   0.0138889
        k(   61) = (   0.1666667   0.5773503   0.0000000), wk =   0.0069444
        k(   62) = (   0.1666667   0.5773503   0.1033126), wk =   0.0138889
        k(   63) = (   0.1666667   0.5773503   0.2066253), wk =   0.0138889
        k(   64) = (   0.1666667   0.5773503  -0.3099379), wk =   0.0069444
        k(   65) = (   0.2500000   0.4330127   0.0000000), wk =   0.0069444
        k(   66) = (   0.2500000   0.4330127   0.1033126), wk =   0.0138889
        k(   67) = (   0.2500000   0.4330127   0.2066253), wk =   0.0138889
        k(   68) = (   0.2500000   0.4330127  -0.3099379), wk =   0.0069444
        k(   69) = (   0.2500000   0.5292377   0.0000000), wk =   0.0138889
        k(   70) = (   0.2500000   0.5292377   0.1033126), wk =   0.0277778
        k(   71) = (   0.2500000   0.5292377   0.2066253), wk =   0.0277778
        k(   72) = (   0.2500000   0.5292377  -0.3099379), wk =   0.0138889
        k(   73) = (   0.3333333   0.5773503   0.0000000), wk =   0.0023148
        k(   74) = (   0.3333333   0.5773503   0.1033126), wk =   0.0046296
        k(   75) = (   0.3333333   0.5773503   0.2066253), wk =   0.0046296
        k(   76) = (   0.3333333   0.5773503  -0.3099379), wk =   0.0023148

                       cryst. coord.
        k(    1) = (   0.0000000   0.0000000   0.0000000), wk =   0.0011574
        k(    2) = (   0.0000000   0.0000000   0.1666667), wk =   0.0023148
        k(    3) = (   0.0000000   0.0000000   0.3333333), wk =   0.0023148
        k(    4) = (   0.0000000   0.0000000  -0.5000000), wk =   0.0011574
        k(    5) = (   0.0000000   0.0833333   0.0000000), wk =   0.0069444
        k(    6) = (   0.0000000   0.0833333   0.1666667), wk =   0.0138889
        k(    7) = (   0.0000000   0.0833333   0.3333333), wk =   0.0138889
        k(    8) = (   0.0000000   0.0833333  -0.5000000), wk =   0.0069444
        k(    9) = (   0.0000000   0.1666667   0.0000000), wk =   0.0069444
        k(   10) = (   0.0000000   0.1666667   0.1666667), wk =   0.0138889
        k(   11) = (   0.0000000   0.1666667   0.3333333), wk =   0.0138889
        k(   12) = (   0.0000000   0.1666667  -0.5000000), wk =   0.0069444
        k(   13) = (   0.0000000   0.2500000   0.0000000), wk =   0.0069444
        k(   14) = (   0.0000000   0.2500000   0.1666667), wk =   0.0138889
        k(   15) = (   0.0000000   0.2500000   0.3333333), wk =   0.0138889
        k(   16) = (   0.0000000   0.2500000  -0.5000000), wk =   0.0069444
        k(   17) = (   0.0000000   0.3333333   0.0000000), wk =   0.0069444
        k(   18) = (   0.0000000   0.3333333   0.1666667), wk =   0.0138889
        k(   19) = (   0.0000000   0.3333333   0.3333333), wk =   0.0138889
        k(   20) = (   0.0000000   0.3333333  -0.5000000), wk =   0.0069444
        k(   21) = (   0.0000000   0.4166667   0.0000000), wk =   0.0069444
        k(   22) = (   0.0000000   0.4166667   0.1666667), wk =   0.0138889
        k(   23) = (   0.0000000   0.4166667   0.3333333), wk =   0.0138889
        k(   24) = (   0.0000000   0.4166667  -0.5000000), wk =   0.0069444
        k(   25) = (   0.0000000  -0.5000000   0.0000000), wk =   0.0034722
        k(   26) = (   0.0000000  -0.5000000   0.1666667), wk =   0.0069444
        k(   27) = (   0.0000000  -0.5000000   0.3333333), wk =   0.0069444
        k(   28) = (   0.0000000  -0.5000000  -0.5000000), wk =   0.0034722
        k(   29) = (   0.0833333   0.0833333   0.0000000), wk =   0.0069444
        k(   30) = (   0.0833333   0.0833333   0.1666667), wk =   0.0138889
        k(   31) = (   0.0833333   0.0833333   0.3333333), wk =   0.0138889
        k(   32) = (   0.0833333   0.0833333  -0.5000000), wk =   0.0069444
        k(   33) = (   0.0833333   0.1666667   0.0000000), wk =   0.0138889
        k(   34) = (   0.0833333   0.1666667   0.1666667), wk =   0.0277778
        k(   35) = (   0.0833333   0.1666667   0.3333333), wk =   0.0277778
        k(   36) = (   0.0833333   0.1666667  -0.5000000), wk =   0.0138889
        k(   37) = (   0.0833333   0.2500000   0.0000000), wk =   0.0138889
        k(   38) = (   0.0833333   0.2500000   0.1666667), wk =   0.0277778
        k(   39) = (   0.0833333   0.2500000   0.3333333), wk =   0.0277778
        k(   40) = (   0.0833333   0.2500000  -0.5000000), wk =   0.0138889
        k(   41) = (   0.0833333   0.3333333   0.0000000), wk =   0.0138889
        k(   42) = (   0.0833333   0.3333333   0.1666667), wk =   0.0277778
        k(   43) = (   0.0833333   0.3333333   0.3333333), wk =   0.0277778
        k(   44) = (   0.0833333   0.3333333  -0.5000000), wk =   0.0138889
        k(   45) = (   0.0833333   0.4166667   0.0000000), wk =   0.0138889
        k(   46) = (   0.0833333   0.4166667   0.1666667), wk =   0.0277778
        k(   47) = (   0.0833333   0.4166667   0.3333333), wk =   0.0277778
        k(   48) = (   0.0833333   0.4166667  -0.5000000), wk =   0.0138889
        k(   49) = (   0.1666667   0.1666667   0.0000000), wk =   0.0069444
        k(   50) = (   0.1666667   0.1666667   0.1666667), wk =   0.0138889
        k(   51) = (   0.1666667   0.1666667   0.3333333), wk =   0.0138889
        k(   52) = (   0.1666667   0.1666667  -0.5000000), wk =   0.0069444
        k(   53) = (   0.1666667   0.2500000   0.0000000), wk =   0.0138889
        k(   54) = (   0.1666667   0.2500000   0.1666667), wk =   0.0277778
        k(   55) = (   0.1666667   0.2500000   0.3333333), wk =   0.0277778
        k(   56) = (   0.1666667   0.2500000  -0.5000000), wk =   0.0138889
        k(   57) = (   0.1666667   0.3333333   0.0000000), wk =   0.0138889
        k(   58) = (   0.1666667   0.3333333   0.1666667), wk =   0.0277778
        k(   59) = (   0.1666667   0.3333333   0.3333333), wk =   0.0277778
        k(   60) = (   0.1666667   0.3333333  -0.5000000), wk =   0.0138889
        k(   61) = (   0.1666667   0.4166667   0.0000000), wk =   0.0069444
        k(   62) = (   0.1666667   0.4166667   0.1666667), wk =   0.0138889
        k(   63) = (   0.1666667   0.4166667   0.3333333), wk =   0.0138889
        k(   64) = (   0.1666667   0.4166667  -0.5000000), wk =   0.0069444
        k(   65) = (   0.2500000   0.2500000   0.0000000), wk =   0.0069444
        k(   66) = (   0.2500000   0.2500000   0.1666667), wk =   0.0138889
        k(   67) = (   0.2500000   0.2500000   0.3333333), wk =   0.0138889
        k(   68) = (   0.2500000   0.2500000  -0.5000000), wk =   0.0069444
        k(   69) = (   0.2500000   0.3333333   0.0000000), wk =   0.0138889
        k(   70) = (   0.2500000   0.3333333   0.1666667), wk =   0.0277778
        k(   71) = (   0.2500000   0.3333333   0.3333333), wk =   0.0277778
        k(   72) = (   0.2500000   0.3333333  -0.5000000), wk =   0.0138889
        k(   73) = (   0.3333333   0.3333333   0.0000000), wk =   0.0023148
        k(   74) = (   0.3333333   0.3333333   0.1666667), wk =   0.0046296
        k(   75) = (   0.3333333   0.3333333   0.3333333), wk =   0.0046296
        k(   76) = (   0.3333333   0.3333333  -0.5000000), wk =   0.0023148

     Dense  grid:    23547 G-vectors     FFT dimensions: (  32,  32,  54)

     Smooth grid:    22875 G-vectors     FFT dimensions: (  32,  32,  54)

     Dynamical RAM for                 wfc:       0.05 MB

     Dynamical RAM for     wfc (w. buffer):       6.96 MB

     Dynamical RAM for           str. fact:       0.02 MB

     Dynamical RAM for           local pot:       0.00 MB

     Dynamical RAM for          nlocal pot:       0.08 MB

     Dynamical RAM for                qrad:       1.70 MB

     Dynamical RAM for          rho,v,vnew:       0.25 MB

     Dynamical RAM for               rhoin:       0.08 MB

     Dynamical RAM for            rho*nmix:       0.58 MB

     Dynamical RAM for           G-vectors:       0.08 MB

     Dynamical RAM for          h,s,v(r/c):       0.08 MB

     Dynamical RAM for          <psi|beta>:       0.01 MB

     Dynamical RAM for                 psi:       0.09 MB

     Dynamical RAM for                hpsi:       0.09 MB

     Dynamical RAM for                spsi:       0.09 MB

     Dynamical RAM for      wfcinit/wfcrot:       0.10 MB

     Dynamical RAM for           addusdens:       3.42 MB

     Estimated static dynamical RAM per process >       9.35 MB

     Estimated max dynamical RAM per process >      13.35 MB

     Estimated total dynamical RAM >     266.91 MB

     Check: negative core charge=   -0.000043
     Generating pointlists ...
     new r_m :   0.4092 (alat units)  1.9292 (a.u.) for type    1

     The initial density is read from file :
     ./out/Co.save/charge-density


     starting charge      34.0521, renormalised to      34.0000

     negative rho (up, down):  1.878E+00 1.504E+00
     Starting wfcs from file
     Checking if some PAW data can be deallocated... 

     total cpu time spent up to now is        0.6 secs

     Self-consistent Calculation

     iteration #  1     ecut=   110.00 Ry     beta= 0.70
     Davidson diagonalization with overlap

---- Real-time Memory Report at c_bands before calling an iterative solver
            56 MiB given to the printing process from OS
             0 MiB allocation reported by mallinfo(arena+hblkhd)
        351970 MiB available memory on the node where the printing process lives
------------------
     c_bands:  4 eigenvalues not converged
     c_bands:  5 eigenvalues not converged
     c_bands:  2 eigenvalues not converged
     c_bands:  5 eigenvalues not converged
     c_bands:  3 eigenvalues not converged
     c_bands:  5 eigenvalues not converged
     c_bands:  4 eigenvalues not converged
     c_bands:  4 eigenvalues not converged
     c_bands:  5 eigenvalues not converged
     c_bands:  5 eigenvalues not converged
     c_bands:  5 eigenvalues not converged
     c_bands:  4 eigenvalues not converged
     c_bands:  3 eigenvalues not converged
     c_bands:  5 eigenvalues not converged
     c_bands:  2 eigenvalues not converged
     c_bands:  1 eigenvalues not converged
     c_bands:  3 eigenvalues not converged
     c_bands:  4 eigenvalues not converged
     c_bands:  5 eigenvalues not converged
     c_bands:  1 eigenvalues not converged
     ethr =  1.00E-05,  avg # of iterations = 28.2

     negative rho (up, down):  1.176E-01 6.020E-02

     total cpu time spent up to now is       12.4 secs

     total energy              =    -753.04526271 Ry
     estimated scf accuracy    <       1.71911369 Ry

     total magnetization       =     3.37 Bohr mag/cell
     absolute magnetization    =     3.65 Bohr mag/cell

     iteration #  2     ecut=   110.00 Ry     beta= 0.70
     Davidson diagonalization with overlap

---- Real-time Memory Report at c_bands before calling an iterative solver
            75 MiB given to the printing process from OS
             0 MiB allocation reported by mallinfo(arena+hblkhd)
        351765 MiB available memory on the node where the printing process lives
------------------
     ethr =  5.06E-03,  avg # of iterations =  2.0

     negative rho (up, down):  9.734E-03 2.956E-03

     total cpu time spent up to now is       13.8 secs

     total energy              =    -752.98108151 Ry
     estimated scf accuracy    <       0.80079272 Ry

     total magnetization       =     2.94 Bohr mag/cell
     absolute magnetization    =     3.25 Bohr mag/cell

     iteration #  3     ecut=   110.00 Ry     beta= 0.70
     Davidson diagonalization with overlap

---- Real-time Memory Report at c_bands before calling an iterative solver
            78 MiB given to the printing process from OS
             0 MiB allocation reported by mallinfo(arena+hblkhd)
        351752 MiB available memory on the node where the printing process lives
------------------
     ethr =  2.36E-03,  avg # of iterations =  2.0

     total cpu time spent up to now is       15.2 secs

     total energy              =    -753.44247333 Ry
     estimated scf accuracy    <       0.26479664 Ry

     total magnetization       =     3.29 Bohr mag/cell
     absolute magnetization    =     3.51 Bohr mag/cell

     iteration #  4     ecut=   110.00 Ry     beta= 0.70
     Davidson diagonalization with overlap

---- Real-time Memory Report at c_bands before calling an iterative solver
            79 MiB given to the printing process from OS
             0 MiB allocation reported by mallinfo(arena+hblkhd)
        351742 MiB available memory on the node where the printing process lives
------------------
     ethr =  7.79E-04,  avg # of iterations =  2.0

     total cpu time spent up to now is       16.6 secs

     total energy              =    -753.42977846 Ry
     estimated scf accuracy    <       0.05514878 Ry

     total magnetization       =     3.25 Bohr mag/cell
     absolute magnetization    =     3.54 Bohr mag/cell

     iteration #  5     ecut=   110.00 Ry     beta= 0.70
     Davidson diagonalization with overlap

---- Real-time Memory Report at c_bands before calling an iterative solver
            81 MiB given to the printing process from OS
             0 MiB allocation reported by mallinfo(arena+hblkhd)
        351733 MiB available memory on the node where the printing process lives
------------------
     ethr =  1.62E-04,  avg # of iterations =  4.1

     total cpu time spent up to now is       18.5 secs

     total energy              =    -753.44999288 Ry
     estimated scf accuracy    <       0.02179724 Ry

     total magnetization       =     3.26 Bohr mag/cell
     absolute magnetization    =     3.52 Bohr mag/cell

     iteration #  6     ecut=   110.00 Ry     beta= 0.70
     Davidson diagonalization with overlap

---- Real-time Memory Report at c_bands before calling an iterative solver
            82 MiB given to the printing process from OS
             0 MiB allocation reported by mallinfo(arena+hblkhd)
        351726 MiB available memory on the node where the printing process lives
------------------
     ethr =  6.41E-05,  avg # of iterations =  2.0

     total cpu time spent up to now is       19.8 secs

     total energy              =    -753.45355296 Ry
     estimated scf accuracy    <       0.00063182 Ry

     total magnetization       =     3.29 Bohr mag/cell
     absolute magnetization    =     3.58 Bohr mag/cell

     iteration #  7     ecut=   110.00 Ry     beta= 0.70
     Davidson diagonalization with overlap

---- Real-time Memory Report at c_bands before calling an iterative solver
            83 MiB given to the printing process from OS
             0 MiB allocation reported by mallinfo(arena+hblkhd)
        351718 MiB available memory on the node where the printing process lives
------------------
     c_bands:  1 eigenvalues not converged
     c_bands:  1 eigenvalues not converged
     c_bands:  1 eigenvalues not converged
     c_bands:  1 eigenvalues not converged
     ethr =  1.86E-06,  avg # of iterations = 11.4

     total cpu time spent up to now is       23.3 secs

     total energy              =    -753.45404727 Ry
     estimated scf accuracy    <       0.00343369 Ry

     total magnetization       =     3.31 Bohr mag/cell
     absolute magnetization    =     3.61 Bohr mag/cell

     iteration #  8     ecut=   110.00 Ry     beta= 0.70
     Davidson diagonalization with overlap

---- Real-time Memory Report at c_bands before calling an iterative solver
            84 MiB given to the printing process from OS
             0 MiB allocation reported by mallinfo(arena+hblkhd)
        351710 MiB available memory on the node where the printing process lives
------------------
     ethr =  1.86E-06,  avg # of iterations =  5.7

     total cpu time spent up to now is       25.7 secs

     total energy              =    -753.45504592 Ry
     estimated scf accuracy    <       0.00117252 Ry

     total magnetization       =     3.31 Bohr mag/cell
     absolute magnetization    =     3.62 Bohr mag/cell

     iteration #  9     ecut=   110.00 Ry     beta= 0.70
     Davidson diagonalization with overlap

---- Real-time Memory Report at c_bands before calling an iterative solver
            84 MiB given to the printing process from OS
             0 MiB allocation reported by mallinfo(arena+hblkhd)
        351699 MiB available memory on the node where the printing process lives
------------------
     ethr =  1.86E-06,  avg # of iterations =  2.3

     total cpu time spent up to now is       27.1 secs

     total energy              =    -753.45514961 Ry
     estimated scf accuracy    <       0.00009807 Ry

     total magnetization       =     3.31 Bohr mag/cell
     absolute magnetization    =     3.63 Bohr mag/cell

     iteration # 10     ecut=   110.00 Ry     beta= 0.70
     Davidson diagonalization with overlap

---- Real-time Memory Report at c_bands before calling an iterative solver
            84 MiB given to the printing process from OS
             0 MiB allocation reported by mallinfo(arena+hblkhd)
        351694 MiB available memory on the node where the printing process lives
------------------
     ethr =  2.88E-07,  avg # of iterations =  4.4

     total cpu time spent up to now is       29.0 secs

     total energy              =    -753.45519782 Ry
     estimated scf accuracy    <       0.00000216 Ry

     total magnetization       =     3.31 Bohr mag/cell
     absolute magnetization    =     3.63 Bohr mag/cell

     iteration # 11     ecut=   110.00 Ry     beta= 0.70
     Davidson diagonalization with overlap

---- Real-time Memory Report at c_bands before calling an iterative solver
            84 MiB given to the printing process from OS
             0 MiB allocation reported by mallinfo(arena+hblkhd)
        351690 MiB available memory on the node where the printing process lives
------------------
     ethr =  6.35E-09,  avg # of iterations = 10.6

     total cpu time spent up to now is       32.0 secs

     total energy              =    -753.45520140 Ry
     estimated scf accuracy    <       0.00000428 Ry

     total magnetization       =     3.31 Bohr mag/cell
     absolute magnetization    =     3.63 Bohr mag/cell

     iteration # 12     ecut=   110.00 Ry     beta= 0.70
     Davidson diagonalization with overlap

---- Real-time Memory Report at c_bands before calling an iterative solver
            84 MiB given to the printing process from OS
             0 MiB allocation reported by mallinfo(arena+hblkhd)
        351689 MiB available memory on the node where the printing process lives
------------------
     ethr =  6.35E-09,  avg # of iterations =  1.3

     total cpu time spent up to now is       33.2 secs

     total energy              =    -753.45520028 Ry
     estimated scf accuracy    <       0.00000371 Ry

     total magnetization       =     3.31 Bohr mag/cell
     absolute magnetization    =     3.63 Bohr mag/cell

     iteration # 13     ecut=   110.00 Ry     beta= 0.70
     Davidson diagonalization with overlap

---- Real-time Memory Report at c_bands before calling an iterative solver
            84 MiB given to the printing process from OS
             0 MiB allocation reported by mallinfo(arena+hblkhd)
        351687 MiB available memory on the node where the printing process lives
------------------
     ethr =  6.35E-09,  avg # of iterations =  1.9
 
     Magnetic moment per site  (integrated on atomic sphere of radius R)
     atom   1 (R=0.409)  charge= 15.5822  magn=  1.7276
     atom   2 (R=0.409)  charge= 15.5822  magn=  1.7276

     total cpu time spent up to now is       34.5 secs

     End of self-consistent calculation

 ------ SPIN UP ------------


          k = 0.0000 0.0000 0.0000 (  2863 PWs)   bands (ev):

   -77.4418 -77.3847 -40.8424 -40.5539 -40.5539 -40.5130 -40.5056 -40.5056
     9.6861  13.4922  16.0456  16.0619  16.0619  16.3786  16.3786  16.7108
    16.7108  17.8282  17.8282  18.4736  25.0151

     occupation numbers 
     1.0000   1.0000   1.0000   1.0000   1.0000   1.0000   1.0000   1.0000
     1.0000   1.0000   1.0000   1.0000   1.0000   1.0000   1.0000   1.0000
     1.0000   1.0000   1.0000   1.0000   0.0000

          k = 0.0000 0.0000 0.1033 (  2833 PWs)   bands (ev):

   -77.4379 -77.3885 -40.8206 -40.5506 -40.5506 -40.5353 -40.5088 -40.5088
     9.9644  13.4246  15.9736  15.9943  15.9943  16.3031  16.3031  16.8781
    16.8781  17.5094  17.8124  17.8124  26.5461

     occupation numbers 
     1.0000   1.0000   1.0000   1.0000   1.0000   1.0000   1.0000   1.0000
     1.0000   1.0000   1.0000   1.0000   1.0000   1.0000   1.0000   1.0000
     1.0000   1.0000   1.0000   1.0000   0.0000

          k = 0.0000 0.0000 0.2066 (  2852 PWs)   bands (ev):

   -77.4275 -77.3990 -40.7610 -40.5962 -40.5418 -40.5418 -40.5177 -40.5177
    10.7624  12.9904  15.8068  15.9372  15.9372  16.1371  16.1371  16.1791
    17.2055  17.2055  17.7248  17.7248  29.7760

     occupation numbers 
     1.0000   1.0000   1.0000   1.0000   1.0000   1.0000   1.0000   1.0000
     1.0000   1.0000   1.0000   1.0000   1.0000   1.0000   1.0000   1.0000
     1.0000   1.0000   1.0000   1.0000   0.0000

          k = 0.0000 0.0000-0.3099 (  2834 PWs)   bands (ev):

   -77.4133 -77.4133 -40.6789 -40.6789 -40.5297 -40.5297 -40.5297 -40.5297
    11.9246  11.9246  15.7250  15.7250  15.9897  15.9897  15.9897  15.9897
    17.5167  17.5167  17.5167  17.5167  33.6266

     occupation numbers 
     1.0000   1.0000   1.0000   1.0000   1.0000   1.0000   1.0000   1.0000
     1.0000   1.0000   1.0000   1.0000   1.0000   1.0000   1.0000   1.0000
     1.0000   1.0000   1.0000   1.0000   0.0000

          k = 0.0000 0.0962 0.0000 (  2833 PWs)   bands (ev):

   -77.4386 -77.3833 -40.8353 -40.5692 -40.5589 -40.5216 -40.5160 -40.5081
     9.9273  13.6364  15.8251  16.1754  16.2442  16.3325  16.4788  16.5573
    16.6397  17.0347  17.8587  19.5864  25.0549

     occupation numbers 
     1.0000   1.0000   1.0000   1.0000   1.0000   1.0000   1.0000   1.0000
     1.0000   1.0000   1.0000   1.0000   1.0000   1.0000   1.0000   1.0000
     1.0000   1.0000   1.0000   0.0000   0.0000

          k = 0.0000 0.0962 0.1033 (  2841 PWs)   bands (ev):

   -77.4349 -77.3870 -40.8148 -40.5655 -40.5555 -40.5448 -40.5175 -40.5115
    10.2013  13.5835  15.8221  16.0650  16.0903  16.1489  16.3972  16.7046
    16.8348  16.9281  17.8355  18.8008  26.6546

     occupation numbers 
     1.0000   1.0000   1.0000   1.0000   1.0000   1.0000   1.0000   1.0000
     1.0000   1.0000   1.0000   1.0000   1.0000   1.0000   1.0000   1.0000
     1.0000   1.0000   1.0000   0.0000   0.0000

          k = 0.0000 0.0962 0.2066 (  2851 PWs)   bands (ev):

   -77.4248 -77.3971 -40.7585 -40.6030 -40.5551 -40.5463 -40.5272 -40.5208
    10.9868  13.1780  15.7156  15.7819  15.8638  16.0264  16.2300  16.3087
    17.1804  17.2270  17.7311  18.0259  29.9285

     occupation numbers 
     1.0000   1.0000   1.0000   1.0000   1.0000   1.0000   1.0000   1.0000
     1.0000   1.0000   1.0000   1.0000   1.0000   1.0000   1.0000   1.0000
     1.0000   1.0000   1.0000   1.0000   0.0000

          k = 0.0000 0.0962-0.3099 (  2844 PWs)   bands (ev):

   -77.4110 -77.4110 -40.6810 -40.6810 -40.5411 -40.5411 -40.5335 -40.5335
    12.1305  12.1305  15.5719  15.5719  16.0103  16.0103  16.0807  16.0807
    17.5058  17.5058  17.6092  17.6092  33.7930

     occupation numbers 
     1.0000   1.0000   1.0000   1.0000   1.0000   1.0000   1.0000   1.0000
     1.0000   1.0000   1.0000   1.0000   1.0000   1.0000   1.0000   1.0000
     1.0000   1.0000   1.0000   1.0000   0.0000

          k = 0.0000 0.1925 0.0000 (  2843 PWs)   bands (ev):

   -77.4299 -77.3796 -40.8151 -40.6115 -40.5725 -40.5649 -40.5251 -40.5154
    10.6251  13.9931  15.5490  15.8391  16.1600  16.4640  16.4958  16.5487
    16.6703  16.7597  17.9239  21.1759  25.1950

     occupation numbers 
     1.0000   1.0000   1.0000   1.0000   1.0000   1.0000   1.0000   1.0000
     1.0000   1.0000   1.0000   1.0000   1.0000   1.0000   1.0000   1.0000
     1.0000   1.0000   1.0000   0.0000   0.0000

          k = 0.0000 0.1925 0.1033 (  2840 PWs)   bands (ev):

   -77.4265 -77.3829 -40.7987 -40.6061 -40.5817 -40.5687 -40.5305 -40.5192
    10.8832  13.9852  15.5621  15.5909  16.0415  16.2950  16.4297  16.6412
    16.8192  16.9193  17.8840  20.0342  27.0073

     occupation numbers 
     1.0000   1.0000   1.0000   1.0000   1.0000   1.0000   1.0000   1.0000
     1.0000   1.0000   1.0000   1.0000   1.0000   1.0000   1.0000   1.0000
     1.0000   1.0000   1.0000   0.0000   0.0000

          k = 0.0000 0.1925 0.2066 (  2844 PWs)   bands (ev):

   -77.4173 -77.3922 -40.7536 -40.6294 -40.5888 -40.5583 -40.5459 -40.5297
    11.6193  13.6647  15.2183  15.6434  15.7604  16.2442  16.2483  16.4880
    17.1549  17.3194  17.7445  18.6744  30.3838

     occupation numbers 
     1.0000   1.0000   1.0000   1.0000   1.0000   1.0000   1.0000   1.0000
     1.0000   1.0000   1.0000   1.0000   1.0000   1.0000   1.0000   1.0000
     1.0000   1.0000   1.0000   0.0003   0.0000

          k = 0.0000 0.1925-0.3099 (  2858 PWs)   bands (ev):

   -77.4047 -77.4047 -40.6917 -40.6917 -40.5674 -40.5674 -40.5440 -40.5440
    12.6847  12.6847  15.3361  15.3361  15.9570  15.9570  16.3234  16.3234
    17.4903  17.4903  17.8581  17.8581  34.2421

     occupation numbers 
     1.0000   1.0000   1.0000   1.0000   1.0000   1.0000   1.0000   1.0000
     1.0000   1.0000   1.0000   1.0000   1.0000   1.0000   1.0000   1.0000
     1.0000   1.0000   1.0000   1.0000   0.0000

          k = 0.0000 0.2887 0.0000 (  2844 PWs)   bands (ev):

   -77.4174 -77.3750 -40.7848 -40.6697 -40.6231 -40.5905 -40.5402 -40.5257
    11.6822  14.2816  15.1166  15.3768  16.0671  16.2528  16.4731  16.9604
    16.9747  17.1635  17.9858  22.9662  25.4642

     occupation numbers 
     1.0000   1.0000   1.0000   1.0000   1.0000   1.0000   1.0000   1.0000
     1.0000   1.0000   1.0000   1.0000   1.0000   1.0000   1.0000   1.0000
     1.0000   1.0000   1.0000   0.0000   0.0000

          k = 0.0000 0.2887 0.1033 (  2842 PWs)   bands (ev):

   -77.4146 -77.3778 -40.7777 -40.6594 -40.6368 -40.5862 -40.5440 -40.5301
    11.8975  14.3277  14.9708  15.4285  15.9141  16.2907  16.4771  17.0059
    17.0954  17.1174  17.9306  21.3157  27.6362

     occupation numbers 
     1.0000   1.0000   1.0000   1.0000   1.0000   1.0000   1.0000   1.0000
     1.0000   1.0000   1.0000   1.0000   1.0000   1.0000   1.0000   1.0000
     1.0000   1.0000   1.0000   0.0000   0.0000

          k = 0.0000 0.2887 0.2066 (  2856 PWs)   bands (ev):

   -77.4068 -77.3856 -40.7558 -40.6782 -40.6245 -40.5744 -40.5599 -40.5420
    12.4970  14.0994  14.8825  15.4678  15.7757  16.3157  16.4123  16.8529
    17.2737  17.4827  17.7699  19.4505  30.9907

     occupation numbers 
     1.0000   1.0000   1.0000   1.0000   1.0000   1.0000   1.0000   1.0000
     1.0000   1.0000   1.0000   1.0000   1.0000   1.0000   1.0000   1.0000
     1.0000   1.0000   1.0000   0.0000   0.0000

          k = 0.0000 0.2887-0.3099 (  2866 PWs)   bands (ev):

   -77.3962 -77.3962 -40.7202 -40.7202 -40.5892 -40.5892 -40.5582 -40.5582
    13.3271  13.3271  15.1823  15.1823  16.0137  16.0137  16.6142  16.6142
    17.5312  17.5312  18.2058  18.2058  33.0189

     occupation numbers 
     1.0000   1.0000   1.0000   1.0000   1.0000   1.0000   1.0000   1.0000
     1.0000   1.0000   1.0000   1.0000   1.0000   1.0000   1.0000   1.0000
     1.0000   1.0000   1.0000   1.0000   0.0000

          k = 0.0000 0.3849 0.0000 (  2850 PWs)   bands (ev):

   -77.4041 -77.3713 -40.7492 -40.7284 -40.6802 -40.6081 -40.5605 -40.5365
    12.8412  14.2186  14.5925  15.4776  16.0627  16.1884  16.2980  17.4556
    17.6017  17.6536  18.0284  24.9163  25.4993

     occupation numbers 
     1.0000   1.0000   1.0000   1.0000   1.0000   1.0000   1.0000   1.0000
     1.0000   1.0000   1.0000   1.0000   1.0000   1.0000   1.0000   1.0000
     1.0000   1.0000   1.0000   0.0000   0.0000

          k = 0.0000 0.3849 0.1033 (  2852 PWs)   bands (ev):

   -77.4019 -77.3735 -40.7698 -40.7040 -40.6838 -40.6033 -40.5607 -40.5413
    12.9433  14.2545  14.6227  15.3444  16.1013  16.1554  16.6385  17.4770
    17.5083  17.5904  17.9728  22.5532  27.6058

     occupation numbers 
     1.0000   1.0000   1.0000   1.0000   1.0000   1.0000   1.0000   1.0000
     1.0000   1.0000   1.0000   1.0000   1.0000   1.0000   1.0000   1.0000
     1.0000   1.0000   1.0000   0.0000   0.0000

          k = 0.0000 0.3849 0.2066 (  2855 PWs)   bands (ev):

   -77.3959 -77.3795 -40.7770 -40.7318 -40.6396 -40.5903 -40.5700 -40.5544
    13.2283  14.0782  14.7602  15.2742  16.1911  16.4169  16.9311  17.1953
    17.5827  17.7110  17.8503  20.3370  28.6872

     occupation numbers 
     1.0000   1.0000   1.0000   1.0000   1.0000   1.0000   1.0000   1.0000
     1.0000   1.0000   1.0000   1.0000   1.0000   1.0000   1.0000   1.0000
     1.0000   1.0000   1.0000   0.0000   0.0000

          k = 0.0000 0.3849-0.3099 (  2856 PWs)   bands (ev):

   -77.3877 -77.3877 -40.7622 -40.7622 -40.5970 -40.5970 -40.5724 -40.5724
    13.6422  13.6422  15.0590  15.0590  16.6040  16.6040  16.7947  16.7947
    17.7111  17.7111  18.6860  18.6860  29.8134

     occupation numbers 
     1.0000   1.0000   1.0000   1.0000   1.0000   1.0000   1.0000   1.0000
     1.0000   1.0000   1.0000   1.0000   1.0000   1.0000   1.0000   1.0000
     1.0000   1.0000   0.0000   0.0000   0.0000

          k = 0.0000 0.4811 0.0000 (  2852 PWs)   bands (ev):

   -77.3931 -77.3698 -40.7717 -40.7214 -40.7162 -40.6208 -40.5823 -40.5445
    13.6144  14.0325  14.2789  15.8286  15.9329  16.1743  16.3900  17.8255
    17.9649  18.0512  18.7549  23.6257  26.9280

     occupation numbers 
     1.0000   1.0000   1.0000   1.0000   1.0000   1.0000   1.0000   1.0000
     1.0000   1.0000   1.0000   1.0000   1.0000   1.0000   1.0000   1.0000
     1.0000   1.0000   0.0000   0.0000   0.0000

          k = 0.0000 0.4811 0.1033 (  2854 PWs)   bands (ev):

   -77.3915 -77.3713 -40.7905 -40.7391 -40.6837 -40.6157 -40.5783 -40.5496
    13.5093  14.0323  14.5892  15.2419  16.0465  16.3849  16.9857  17.7729
    17.8638  18.0419  18.5948  22.8588  26.2122

     occupation numbers 
     1.0000   1.0000   1.0000   1.0000   1.0000   1.0000   1.0000   1.0000
     1.0000   1.0000   1.0000   1.0000   1.0000   1.0000   1.0000   1.0000
     1.0000   1.0000   1.0000   0.0000   0.0000

          k = 0.0000 0.4811 0.2066 (  2846 PWs)   bands (ev):

   -77.3873 -77.3756 -40.8051 -40.7715 -40.6358 -40.6018 -40.5789 -40.5636
    13.4815  13.9622  14.7480  15.0826  16.3690  16.6214  17.3634  17.8929
    17.9487  18.0033  18.2721  21.1533  26.3345

     occupation numbers 
     1.0000   1.0000   1.0000   1.0000   1.0000   1.0000   1.0000   1.0000
     1.0000   1.0000   1.0000   1.0000   1.0000   1.0000   1.0000   1.0000
     1.0000   1.0000   1.0000   0.0000   0.0000

          k = 0.0000 0.4811-0.3099 (  2862 PWs)   bands (ev):

   -77.3814 -77.3814 -40.7978 -40.7978 -40.5978 -40.5978 -40.5827 -40.5827
    13.6686  13.6686  14.9395  14.9395  16.8427  16.8427  17.3289  17.3289
    17.9481  17.9481  19.5024  19.5024  27.1152

     occupation numbers 
     1.0000   1.0000   1.0000   1.0000   1.0000   1.0000   1.0000   1.0000
     1.0000   1.0000   1.0000   1.0000   1.0000   1.0000   1.0000   1.0000
     1.0000   1.0000   0.0000   0.0000   0.0000

          k = 0.0000-0.5774 0.0000 (  2870 PWs)   bands (ev):

   -77.3885 -77.3698 -40.7876 -40.7364 -40.7008 -40.6254 -40.5937 -40.5475
    13.8841  13.8868  14.1748  15.8869  16.0731  16.1297  16.4666  17.9592
    18.0582  18.1120  19.9011  21.9041  28.2308

     occupation numbers 
     1.0000   1.0000   1.0000   1.0000   1.0000   1.0000   1.0000   1.0000
     1.0000   1.0000   1.0000   1.0000   1.0000   1.0000   1.0000   1.0000
     1.0000   1.0000   0.0000   0.0000   0.0000

          k = 0.0000-0.5774 0.1033 (  2840 PWs)   bands (ev):

   -77.3872 -77.3710 -40.8027 -40.7532 -40.6750 -40.6201 -40.5874 -40.5527
    13.6146  13.9357  14.6253  15.2146  16.0066  16.4732  17.1836  17.8392
    18.0109  18.1041  19.6934  21.7299  27.3477

     occupation numbers 
     1.0000   1.0000   1.0000   1.0000   1.0000   1.0000   1.0000   1.0000
     1.0000   1.0000   1.0000   1.0000   1.0000   1.0000   1.0000   1.0000
     1.0000   1.0000   0.0000   0.0000   0.0000

          k = 0.0000-0.5774 0.2066 (  2862 PWs)   bands (ev):

   -77.3838 -77.3745 -40.8172 -40.7860 -40.6314 -40.6059 -40.5833 -40.5670
    13.5036  13.9169  14.7725  14.9953  16.3466  16.7660  17.4000  18.0238
    18.0648  18.0825  19.3667  21.1391  26.2819

     occupation numbers 
     1.0000   1.0000   1.0000   1.0000   1.0000   1.0000   1.0000   1.0000
     1.0000   1.0000   1.0000   1.0000   1.0000   1.0000   1.0000   1.0000
     1.0000   1.0000   0.0000   0.0000   0.0000

          k = 0.0000-0.5774-0.3099 (  2856 PWs)   bands (ev):

   -77.3791 -77.3791 -40.8114 -40.8114 -40.5975 -40.5975 -40.5865 -40.5865
    13.6522  13.6522  14.8922  14.8922  16.8474  16.8474  17.5736  17.5736
    18.0528  18.0528  20.1433  20.1433  25.8682

     occupation numbers 
     1.0000   1.0000   1.0000   1.0000   1.0000   1.0000   1.0000   1.0000
     1.0000   1.0000   1.0000   1.0000   1.0000   1.0000   1.0000   1.0000
     1.0000   1.0000   0.0000   0.0000   0.0000

          k = 0.0833 0.1443 0.0000 (  2846 PWs)   bands (ev):

   -77.4327 -77.3807 -40.8217 -40.5954 -40.5745 -40.5456 -40.5220 -40.5150
    10.3977  13.8925  15.6082  16.0843  16.2272  16.4011  16.4070  16.4371
    16.7000  16.7888  17.8969  20.7305  25.1469

     occupation numbers 
     1.0000   1.0000   1.0000   1.0000   1.0000   1.0000   1.0000   1.0000
     1.0000   1.0000   1.0000   1.0000   1.0000   1.0000   1.0000   1.0000
     1.0000   1.0000   1.0000   0.0000   0.0000

          k = 0.0833 0.1443 0.1033 (  2844 PWs)   bands (ev):

   -77.4292 -77.3842 -40.8038 -40.5905 -40.5763 -40.5596 -40.5259 -40.5187
    10.6618  13.8700  15.6333  15.7503  16.0849  16.2577  16.4036  16.5583
    16.8475  16.8997  17.8651  19.6996  26.8872

     occupation numbers 
     1.0000   1.0000   1.0000   1.0000   1.0000   1.0000   1.0000   1.0000
     1.0000   1.0000   1.0000   1.0000   1.0000   1.0000   1.0000   1.0000
     1.0000   1.0000   1.0000   0.0000   0.0000

          k = 0.0833 0.1443 0.2066 (  2832 PWs)   bands (ev):

   -77.4197 -77.3937 -40.7547 -40.6197 -40.5770 -40.5579 -40.5377 -40.5286
    11.4170  13.5217  15.3426  15.6913  15.7721  16.1817  16.2608  16.4075
    17.1844  17.2632  17.7439  18.4865  30.2353

     occupation numbers 
     1.0000   1.0000   1.0000   1.0000   1.0000   1.0000   1.0000   1.0000
     1.0000   1.0000   1.0000   1.0000   1.0000   1.0000   1.0000   1.0000
     1.0000   1.0000   1.0000   1.0000   0.0000

          k = 0.0833 0.1443-0.3099 (  2850 PWs)   bands (ev):

   -77.4067 -77.4067 -40.6873 -40.6873 -40.5597 -40.5597 -40.5410 -40.5410
    12.5141  12.5141  15.3953  15.3953  15.9572  15.9572  16.2598  16.2598
    17.4958  17.4958  17.7804  17.7804  34.1127

     occupation numbers 
     1.0000   1.0000   1.0000   1.0000   1.0000   1.0000   1.0000   1.0000
     1.0000   1.0000   1.0000   1.0000   1.0000   1.0000   1.0000   1.0000
     1.0000   1.0000   1.0000   1.0000   0.0000

          k = 0.0833 0.2406 0.0000 (  2850 PWs)   bands (ev):

   -77.4220 -77.3766 -40.7963 -40.6419 -40.6129 -40.5745 -40.5342 -40.5269
    11.2834  14.2585  15.3338  15.3820  16.1073  16.2134  16.6370  16.6555
    16.8293  17.1140  17.9441  22.3203  25.3732

     occupation numbers 
     1.0000   1.0000   1.0000   1.0000   1.0000   1.0000   1.0000   1.0000
     1.0000   1.0000   1.0000   1.0000   1.0000   1.0000   1.0000   1.0000
     1.0000   1.0000   1.0000   0.0000   0.0000

          k = 0.0833 0.2406 0.1033 (  2846 PWs)   bands (ev):

   -77.4190 -77.3796 -40.7848 -40.6346 -40.6209 -40.5788 -40.5376 -40.5304
    11.5201  14.2953  15.1694  15.3832  15.9842  16.2458  16.4458  16.7700
    17.0268  17.0980  17.9061  20.8745  27.4006

     occupation numbers 
     1.0000   1.0000   1.0000   1.0000   1.0000   1.0000   1.0000   1.0000
     1.0000   1.0000   1.0000   1.0000   1.0000   1.0000   1.0000   1.0000
     1.0000   1.0000   1.0000   0.0000   0.0000

          k = 0.0833 0.2406 0.2066 (  2849 PWs)   bands (ev):

   -77.4107 -77.3880 -40.7525 -40.6581 -40.6099 -40.5762 -40.5500 -40.5409
    12.1889  14.0392  14.9656  15.4881  15.7210  16.1443  16.3907  16.7240
    17.2736  17.3939  17.7838  19.1810  30.8318

     occupation numbers 
     1.0000   1.0000   1.0000   1.0000   1.0000   1.0000   1.0000   1.0000
     1.0000   1.0000   1.0000   1.0000   1.0000   1.0000   1.0000   1.0000
     1.0000   1.0000   1.0000   0.0000   0.0000

          k = 0.0833 0.2406-0.3099 (  2860 PWs)   bands (ev):

   -77.3993 -77.3993 -40.7065 -40.7065 -40.5836 -40.5836 -40.5539 -40.5539
    13.1415  13.1415  15.2360  15.2360  15.8546  15.8546  16.5378  16.5378
    17.5391  17.5391  18.0812  18.0812  34.4179

     occupation numbers 
     1.0000   1.0000   1.0000   1.0000   1.0000   1.0000   1.0000   1.0000
     1.0000   1.0000   1.0000   1.0000   1.0000   1.0000   1.0000   1.0000
     1.0000   1.0000   1.0000   1.0000   0.0000

          k = 0.0833 0.3368 0.0000 (  2850 PWs)   bands (ev):

   -77.4091 -77.3725 -40.7631 -40.6990 -40.6613 -40.6007 -40.5522 -40.5397
    12.4272  14.3822  14.8078  15.2561  16.0258  16.1181  16.4431  17.0560
    17.3306  17.6758  17.9839  24.1526  25.7091

     occupation numbers 
     1.0000   1.0000   1.0000   1.0000   1.0000   1.0000   1.0000   1.0000
     1.0000   1.0000   1.0000   1.0000   1.0000   1.0000   1.0000   1.0000
     1.0000   1.0000   1.0000   0.0000   0.0000

          k = 0.0833 0.3368 0.1033 (  2847 PWs)   bands (ev):

   -77.4067 -77.3749 -40.7672 -40.6858 -40.6663 -40.6003 -40.5539 -40.5425
    12.5936  14.4513  14.7120  15.3064  15.8976  16.2536  16.4220  17.0776
    17.4224  17.5434  17.9874  22.1382  28.1111

     occupation numbers 
     1.0000   1.0000   1.0000   1.0000   1.0000   1.0000   1.0000   1.0000
     1.0000   1.0000   1.0000   1.0000   1.0000   1.0000   1.0000   1.0000
     1.0000   1.0000   1.0000   0.0000   0.0000

          k = 0.0833 0.3368 0.2066 (  2851 PWs)   bands (ev):

   -77.4000 -77.3816 -40.7631 -40.7088 -40.6346 -40.5932 -40.5648 -40.5518
    13.0435  14.2189  14.8124  15.3894  15.8043  16.2809  16.4675  17.0543
    17.5018  17.6638  17.9492  20.0377  30.3235

     occupation numbers 
     1.0000   1.0000   1.0000   1.0000   1.0000   1.0000   1.0000   1.0000
     1.0000   1.0000   1.0000   1.0000   1.0000   1.0000   1.0000   1.0000
     1.0000   1.0000   1.0000   0.0000   0.0000

          k = 0.0833 0.3368-0.3099 (  2854 PWs)   bands (ev):

   -77.3908 -77.3908 -40.7417 -40.7417 -40.5993 -40.5993 -40.5672 -40.5672
    13.6437  13.6437  15.1592  15.1592  16.0219  16.0219  16.7352  16.7352
    17.7336  17.7336  18.5398  18.5398  31.5198

     occupation numbers 
     1.0000   1.0000   1.0000   1.0000   1.0000   1.0000   1.0000   1.0000
     1.0000   1.0000   1.0000   1.0000   1.0000   1.0000   1.0000   1.0000
     1.0000   1.0000   1.0000   1.0000   0.0000

          k = 0.0833 0.4330 0.0000 (  2848 PWs)   bands (ev):

   -77.3968 -77.3701 -40.7496 -40.7278 -40.7039 -40.6211 -40.5743 -40.5507
    13.4424  14.2114  14.4189  15.4770  15.9044  16.2510  16.3086  17.5586
    17.7590  18.0087  18.4675  24.9680  26.1418

     occupation numbers 
     1.0000   1.0000   1.0000   1.0000   1.0000   1.0000   1.0000   1.0000
     1.0000   1.0000   1.0000   1.0000   1.0000   1.0000   1.0000   1.0000
     1.0000   1.0000   1.0000   0.0000   0.0000

          k = 0.0833 0.4330 0.1033 (  2857 PWs)   bands (ev):

   -77.3950 -77.3718 -40.7746 -40.7235 -40.6855 -40.6176 -40.5727 -40.5534
    13.4394  14.2390  14.5661  15.2496  15.9826  16.3170  16.5939  17.5067
    17.8209  17.8231  18.4699  23.2011  26.7176

     occupation numbers 
     1.0000   1.0000   1.0000   1.0000   1.0000   1.0000   1.0000   1.0000
     1.0000   1.0000   1.0000   1.0000   1.0000   1.0000   1.0000   1.0000
     1.0000   1.0000   1.0000   0.0000   0.0000

          k = 0.0833 0.4330 0.2066 (  2857 PWs)   bands (ev):

   -77.3901 -77.3767 -40.7884 -40.7533 -40.6408 -40.6048 -40.5798 -40.5602
    13.5281  14.1122  14.7507  15.2333  16.0897  16.5162  16.9691  17.2496
    17.6848  17.9861  18.5350  21.0494  27.4262

     occupation numbers 
     1.0000   1.0000   1.0000   1.0000   1.0000   1.0000   1.0000   1.0000
     1.0000   1.0000   1.0000   1.0000   1.0000   1.0000   1.0000   1.0000
     1.0000   1.0000   1.0000   0.0000   0.0000

          k = 0.0833 0.4330-0.3099 (  2848 PWs)   bands (ev):

   -77.3834 -77.3834 -40.7797 -40.7797 -40.6081 -40.6081 -40.5758 -40.5758
    13.7771  13.7771  15.0464  15.0464  16.5292  16.5292  16.9167  16.9167
    17.9371  17.9371  19.3740  19.3740  28.4742

     occupation numbers 
     1.0000   1.0000   1.0000   1.0000   1.0000   1.0000   1.0000   1.0000
     1.0000   1.0000   1.0000   1.0000   1.0000   1.0000   1.0000   1.0000
     1.0000   1.0000   0.0000   0.0000   0.0000

          k = 0.0833 0.5292 0.0000 (  2854 PWs)   bands (ev):

   -77.3885 -77.3698 -40.7790 -40.7286 -40.7010 -40.6324 -40.5935 -40.5570
    13.9042  14.0487  14.2243  15.8349  15.8564  16.1231  16.4636  17.9190
    17.9910  18.0197  19.7317  22.6653  28.0395

     occupation numbers 
     1.0000   1.0000   1.0000   1.0000   1.0000   1.0000   1.0000   1.0000
     1.0000   1.0000   1.0000   1.0000   1.0000   1.0000   1.0000   1.0000
     1.0000   1.0000   0.0000   0.0000   0.0000

          k = 0.0833 0.5292 0.1033 (  2860 PWs)   bands (ev):

   -77.3873 -77.3710 -40.7942 -40.7459 -40.6767 -40.6256 -40.5889 -40.5600
    13.6936  14.0659  14.6539  15.1952  15.9092  16.5118  16.8486  17.7878
    17.9513  18.0239  19.6649  22.4097  26.7565

     occupation numbers 
     1.0000   1.0000   1.0000   1.0000   1.0000   1.0000   1.0000   1.0000
     1.0000   1.0000   1.0000   1.0000   1.0000   1.0000   1.0000   1.0000
     1.0000   1.0000   0.0000   0.0000   0.0000

          k = 0.0833 0.5292 0.2066 (  2854 PWs)   bands (ev):

   -77.3838 -77.3744 -40.8088 -40.7785 -40.6406 -40.6055 -40.5921 -40.5656
    13.6062  14.0428  14.7796  15.1001  16.0831  16.8236  17.2444  17.4881
    17.9081  18.1022  19.7069  21.5642  26.0108

     occupation numbers 
     1.0000   1.0000   1.0000   1.0000   1.0000   1.0000   1.0000   1.0000
     1.0000   1.0000   1.0000   1.0000   1.0000   1.0000   1.0000   1.0000
     1.0000   1.0000   0.0000   0.0000   0.0000

          k = 0.0833 0.5292-0.3099 (  2860 PWs)   bands (ev):

   -77.3791 -77.3791 -40.8034 -40.8034 -40.6131 -40.6131 -40.5790 -40.5790
    13.7648  13.7648  14.9632  14.9632  16.6348  16.6348  17.3461  17.3461
    17.9779  17.9779  20.4448  20.4448  26.2821

     occupation numbers 
     1.0000   1.0000   1.0000   1.0000   1.0000   1.0000   1.0000   1.0000
     1.0000   1.0000   1.0000   1.0000   1.0000   1.0000   1.0000   1.0000
     1.0000   1.0000   0.0000   0.0000   0.0000

          k = 0.1667 0.2887 0.0000 (  2852 PWs)   bands (ev):

   -77.4109 -77.3730 -40.7679 -40.6755 -40.6662 -40.5920 -40.5494 -40.5476
    12.2811  14.5545  14.9212  15.0397  15.9562  16.1165  16.5358  16.8226
    17.3182  17.6965  17.9457  23.8943  25.7545

     occupation numbers 
     1.0000   1.0000   1.0000   1.0000   1.0000   1.0000   1.0000   1.0000
     1.0000   1.0000   1.0000   1.0000   1.0000   1.0000   1.0000   1.0000
     1.0000   1.0000   1.0000   0.0000   0.0000

          k = 0.1667 0.2887 0.1033 (  2846 PWs)   bands (ev):

   -77.4084 -77.3755 -40.7671 -40.6734 -40.6600 -40.5995 -40.5517 -40.5470
    12.4691  14.6512  14.7798  15.0929  15.9280  16.1270  16.4118  16.9016
    17.4382  17.5347  17.9993  22.0002  28.1191

     occupation numbers 
     1.0000   1.0000   1.0000   1.0000   1.0000   1.0000   1.0000   1.0000
     1.0000   1.0000   1.0000   1.0000   1.0000   1.0000   1.0000   1.0000
     1.0000   1.0000   1.0000   0.0000   0.0000

          k = 0.1667 0.2887 0.2066 (  2845 PWs)   bands (ev):

   -77.4014 -77.3825 -40.7569 -40.6988 -40.6268 -40.6022 -40.5617 -40.5526
    12.9841  14.3399  14.9147  15.2470  15.7538  15.9901  16.4061  16.9926
    17.5161  17.6412  18.0253  19.9606  31.4830

     occupation numbers 
     1.0000   1.0000   1.0000   1.0000   1.0000   1.0000   1.0000   1.0000
     1.0000   1.0000   1.0000   1.0000   1.0000   1.0000   1.0000   1.0000
     1.0000   1.0000   1.0000   0.0000   0.0000

          k = 0.1667 0.2887-0.3099 (  2858 PWs)   bands (ev):

   -77.3920 -77.3920 -40.7321 -40.7321 -40.6018 -40.6018 -40.5658 -40.5658
    13.6784  13.6784  15.2403  15.2403  15.7026  15.7026  16.6851  16.6851
    17.7838  17.7838  18.5190  18.5190  33.2361

     occupation numbers 
     1.0000   1.0000   1.0000   1.0000   1.0000   1.0000   1.0000   1.0000
     1.0000   1.0000   1.0000   1.0000   1.0000   1.0000   1.0000   1.0000
     1.0000   1.0000   1.0000   1.0000   0.0000

          k = 0.1667 0.3849 0.0000 (  2855 PWs)   bands (ev):

   -77.3988 -77.3703 -40.7341 -40.7206 -40.6987 -40.6194 -40.5701 -40.5676
    13.3778  14.5445  14.5592  15.0061  15.8007  16.2597  16.3449  17.1299
    17.7596  17.9435  18.4922  25.7471  26.1049

     occupation numbers 
     1.0000   1.0000   1.0000   1.0000   1.0000   1.0000   1.0000   1.0000
     1.0000   1.0000   1.0000   1.0000   1.0000   1.0000   1.0000   1.0000
     1.0000   1.0000   1.0000   0.0000   0.0000

          k = 0.1667 0.3849 0.1033 (  2851 PWs)   bands (ev):

   -77.3969 -77.3722 -40.7583 -40.7164 -40.6751 -40.6257 -40.5742 -40.5607
    13.4589  14.4891  14.6477  15.0898  15.8554  16.2386  16.2985  17.1612
    17.7239  17.8493  18.5828  23.2867  28.1559

     occupation numbers 
     1.0000   1.0000   1.0000   1.0000   1.0000   1.0000   1.0000   1.0000
     1.0000   1.0000   1.0000   1.0000   1.0000   1.0000   1.0000   1.0000
     1.0000   1.0000   1.0000   0.0000   0.0000

          k = 0.1667 0.3849 0.2066 (  2848 PWs)   bands (ev):

   -77.3917 -77.3774 -40.7705 -40.7380 -40.6390 -40.6224 -40.5819 -40.5586
    13.6788  14.2879  14.8963  15.3267  15.7754  16.0690  16.4319  17.1230
    17.6236  18.0025  18.7664  21.0692  29.1194

     occupation numbers 
     1.0000   1.0000   1.0000   1.0000   1.0000   1.0000   1.0000   1.0000
     1.0000   1.0000   1.0000   1.0000   1.0000   1.0000   1.0000   1.0000
     1.0000   1.0000   0.0000   0.0000   0.0000

          k = 0.1667 0.3849-0.3099 (  2844 PWs)   bands (ev):

   -77.3846 -77.3846 -40.7616 -40.7616 -40.6214 -40.6214 -40.5722 -40.5722
    13.9822  13.9822  15.2413  15.2413  15.8507  15.8507  16.7060  16.7060
    17.9926  17.9926  19.4654  19.4654  30.2779

     occupation numbers 
     1.0000   1.0000   1.0000   1.0000   1.0000   1.0000   1.0000   1.0000
     1.0000   1.0000   1.0000   1.0000   1.0000   1.0000   1.0000   1.0000
     1.0000   1.0000   0.0000   0.0000   0.0000

          k = 0.1667 0.4811 0.0000 (  2864 PWs)   bands (ev):

   -77.3886 -77.3697 -40.7567 -40.7144 -40.7014 -40.6453 -40.5931 -40.5811
    14.0789  14.3355  14.3462  15.3081  15.7580  16.1375  16.4604  17.5365
    17.9407  17.9793  19.6571  24.3169  27.7540

     occupation numbers 
     1.0000   1.0000   1.0000   1.0000   1.0000   1.0000   1.0000   1.0000
     1.0000   1.0000   1.0000   1.0000   1.0000   1.0000   1.0000   1.0000
     1.0000   1.0000   0.0000   0.0000   0.0000

          k = 0.1667 0.4811 0.1033 (  2863 PWs)   bands (ev):

   -77.3873 -77.3710 -40.7721 -40.7343 -40.6771 -40.6398 -40.5950 -40.5737
    13.9287  14.4108  14.5932  15.1344  15.8089  16.2677  16.5267  17.5203
    17.7423  18.0424  19.7412  23.7780  26.5434

     occupation numbers 
     1.0000   1.0000   1.0000   1.0000   1.0000   1.0000   1.0000   1.0000
     1.0000   1.0000   1.0000   1.0000   1.0000   1.0000   1.0000   1.0000
     1.0000   1.0000   0.0000   0.0000   0.0000

          k = 0.1667 0.4811 0.2066 (  2856 PWs)   bands (ev):

   -77.3839 -77.3744 -40.7880 -40.7627 -40.6574 -40.6230 -40.5954 -40.5651
    13.8916  14.3330  14.7934  15.3420  15.7011  16.3881  16.7401  17.2123
    17.7087  18.1207  20.0541  22.2679  26.6073

     occupation numbers 
     1.0000   1.0000   1.0000   1.0000   1.0000   1.0000   1.0000   1.0000
     1.0000   1.0000   1.0000   1.0000   1.0000   1.0000   1.0000   1.0000
     1.0000   1.0000   0.0000   0.0000   0.0000

          k = 0.1667 0.4811-0.3099 (  2844 PWs)   bands (ev):

   -77.3791 -77.3791 -40.7846 -40.7846 -40.6375 -40.6375 -40.5736 -40.5736
    14.0499  14.0499  15.1423  15.1423  16.1106  16.1106  16.8938  16.8938
    17.9978  17.9978  20.8623  20.8623  27.4878

     occupation numbers 
     1.0000   1.0000   1.0000   1.0000   1.0000   1.0000   1.0000   1.0000
     1.0000   1.0000   1.0000   1.0000   1.0000   1.0000   1.0000   1.0000
     1.0000   1.0000   0.0000   0.0000   0.0000

          k = 0.1667 0.5774 0.0000 (  2868 PWs)   bands (ev):

   -77.3840 -77.3703 -40.7698 -40.7190 -40.6848 -40.6562 -40.6062 -40.5859
    14.2492  14.2549  14.2604  15.5258  15.7756  16.0290  16.5463  17.8122
    17.9394  17.9575  20.9108  22.4780  28.8746

     occupation numbers 
     1.0000   1.0000   1.0000   1.0000   1.0000   1.0000   1.0000   1.0000
     1.0000   1.0000   1.0000   1.0000   1.0000   1.0000   1.0000   1.0000
     1.0000   1.0000   0.0000   0.0000   0.0000

          k = 0.1667 0.5774 0.1033 (  2872 PWs)   bands (ev):

   -77.3831 -77.3712 -40.7819 -40.7374 -40.6806 -40.6349 -40.6078 -40.5792
    13.9559  14.3254  14.7588  15.1158  15.7316  16.3863  16.6170  17.7134
    17.8085  18.0121  21.0109  22.4295  27.8444

     occupation numbers 
     1.0000   1.0000   1.0000   1.0000   1.0000   1.0000   1.0000   1.0000
     1.0000   1.0000   1.0000   1.0000   1.0000   1.0000   1.0000   1.0000
     1.0000   1.0000   0.0000   0.0000   0.0000

          k = 0.1667 0.5774 0.2066 (  2862 PWs)   bands (ev):

   -77.3806 -77.3737 -40.7963 -40.7703 -40.6654 -40.6221 -40.5989 -40.5684
    13.8901  14.3451  14.8305  15.3001  15.6174  16.5891  16.8609  17.2826
    17.8245  18.0522  21.3186  22.2340  26.5603

     occupation numbers 
     1.0000   1.0000   1.0000   1.0000   1.0000   1.0000   1.0000   1.0000
     1.0000   1.0000   1.0000   1.0000   1.0000   1.0000   1.0000   1.0000
     1.0000   1.0000   0.0000   0.0000   0.0000

          k = 0.1667 0.5774-0.3099 (  2846 PWs)   bands (ev):

   -77.3772 -77.3772 -40.7932 -40.7932 -40.6437 -40.6437 -40.5737 -40.5737
    14.0530  14.0530  15.1023  15.1023  16.1510  16.1510  17.0963  17.0963
    17.9364  17.9364  21.8099  21.8099  26.0718

     occupation numbers 
     1.0000   1.0000   1.0000   1.0000   1.0000   1.0000   1.0000   1.0000
     1.0000   1.0000   1.0000   1.0000   1.0000   1.0000   1.0000   1.0000
     1.0000   1.0000   0.0000   0.0000   0.0000

          k = 0.2500 0.4330 0.0000 (  2866 PWs)   bands (ev):

   -77.3886 -77.3697 -40.7372 -40.7160 -40.7016 -40.6457 -40.5990 -40.5929
    14.2065  14.3993  14.7368  14.7888  15.6932  16.1533  16.4678  17.3094
    17.9002  17.9851  19.6655  26.0773  26.8246

     occupation numbers 
     1.0000   1.0000   1.0000   1.0000   1.0000   1.0000   1.0000   1.0000
     1.0000   1.0000   1.0000   1.0000   1.0000   1.0000   1.0000   1.0000
     1.0000   1.0000   0.0000   0.0000   0.0000

          k = 0.2500 0.4330 0.1033 (  2860 PWs)   bands (ev):

   -77.3873 -77.3710 -40.7497 -40.7412 -40.6622 -40.6591 -40.6018 -40.5782
    14.2140  14.3505  14.8017  14.9194  15.8436  16.0081  16.4588  17.3427
    17.6905  18.0504  19.7923  24.5720  27.1094

     occupation numbers 
     1.0000   1.0000   1.0000   1.0000   1.0000   1.0000   1.0000   1.0000
     1.0000   1.0000   1.0000   1.0000   1.0000   1.0000   1.0000   1.0000
     1.0000   1.0000   0.0000   0.0000   0.0000

          k = 0.2500 0.4330 0.2066 (  2851 PWs)   bands (ev):

   -77.3839 -77.3744 -40.7722 -40.7570 -40.6636 -40.6392 -40.5947 -40.5652
    14.2211  14.2968  14.9694  15.3069  15.6818  15.9551  16.4884  17.1265
    17.6782  18.1278  20.1704  22.5475  27.8962

     occupation numbers 
     1.0000   1.0000   1.0000   1.0000   1.0000   1.0000   1.0000   1.0000
     1.0000   1.0000   1.0000   1.0000   1.0000   1.0000   1.0000   1.0000
     1.0000   1.0000   0.0000   0.0000   0.0000

          k = 0.2500 0.4330-0.3099 (  2852 PWs)   bands (ev):

   -77.3791 -77.3791 -40.7730 -40.7730 -40.6508 -40.6508 -40.5720 -40.5720
    14.2504  14.2504  15.2918  15.2918  15.7373  15.7373  16.6964  16.6964
    18.0174  18.0174  21.0196  21.0196  28.9272

     occupation numbers 
     1.0000   1.0000   1.0000   1.0000   1.0000   1.0000   1.0000   1.0000
     1.0000   1.0000   1.0000   1.0000   1.0000   1.0000   1.0000   1.0000
     1.0000   1.0000   0.0000   0.0000   0.0000

          k = 0.2500 0.5292 0.0000 (  2875 PWs)   bands (ev):

   -77.3809 -77.3711 -40.7500 -40.7068 -40.6747 -40.6724 -40.6190 -40.6165
    14.3240  14.5024  14.6033  15.0948  15.7117  15.9547  16.6353  17.5837
    17.8746  17.9299  21.3098  23.8617  26.1759

     occupation numbers 
     1.0000   1.0000   1.0000   1.0000   1.0000   1.0000   1.0000   1.0000
     1.0000   1.0000   1.0000   1.0000   1.0000   1.0000   1.0000   1.0000
     1.0000   1.0000   0.0000   0.0000   0.0000

          k = 0.2500 0.5292 0.1033 (  2867 PWs)   bands (ev):

   -77.3802 -77.3718 -40.7565 -40.7303 -40.6934 -40.6419 -40.6231 -40.5941
    14.2658  14.6324  14.7283  14.9960  15.7397  15.9538  16.6394  17.5915
    17.6652  17.9744  21.4993  23.8844  26.2229

     occupation numbers 
     1.0000   1.0000   1.0000   1.0000   1.0000   1.0000   1.0000   1.0000
     1.0000   1.0000   1.0000   1.0000   1.0000   1.0000   1.0000   1.0000
     1.0000   1.0000   0.0000   0.0000   0.0000

          k = 0.2500 0.5292 0.2066 (  2855 PWs)   bands (ev):

   -77.3784 -77.3736 -40.7729 -40.7583 -40.6920 -40.6508 -40.5925 -40.5725
    14.2839  14.6354  14.8933  15.1853  15.6065  15.9692  16.6821  17.1559
    17.7459  18.0153  21.9984  23.6013  26.1652

     occupation numbers 
     1.0000   1.0000   1.0000   1.0000   1.0000   1.0000   1.0000   1.0000
     1.0000   1.0000   1.0000   1.0000   1.0000   1.0000   1.0000   1.0000
     1.0000   1.0000   0.0000   0.0000   0.0000

          k = 0.2500 0.5292-0.3099 (  2856 PWs)   bands (ev):

   -77.3760 -77.3760 -40.7756 -40.7756 -40.6727 -40.6727 -40.5710 -40.5710
    14.4217  14.4217  15.1871  15.1871  15.7441  15.7441  16.8115  16.8115
    17.9272  17.9272  22.7668  22.7668  26.7099

     occupation numbers 
     1.0000   1.0000   1.0000   1.0000   1.0000   1.0000   1.0000   1.0000
     1.0000   1.0000   1.0000   1.0000   1.0000   1.0000   1.0000   1.0000
     1.0000   1.0000   0.0000   0.0000   0.0000

          k = 0.3333 0.5774 0.0000 (  2868 PWs)   bands (ev):

   -77.3749 -77.3749 -40.7414 -40.6931 -40.6931 -40.6434 -40.6434 -40.6424
    14.3308  14.6966  14.6966  14.9825  15.7864  15.7864  16.7338  17.7291
    17.7291  17.8482  23.0388  23.8583  23.8583

     occupation numbers 
     1.0000   1.0000   1.0000   1.0000   1.0000   1.0000   1.0000   1.0000
     1.0000   1.0000   1.0000   1.0000   1.0000   1.0000   1.0000   1.0000
     1.0000   1.0000   0.0000   0.0000   0.0000

          k = 0.3333 0.5774 0.1033 (  2859 PWs)   bands (ev):

   -77.3749 -77.3749 -40.7348 -40.7217 -40.7217 -40.6490 -40.6147 -40.6147
    14.4257  14.7212  14.7212  15.0026  15.7598  15.7598  16.7053  17.6109
    17.7687  17.7687  23.4416  23.9339  23.9339

     occupation numbers 
     1.0000   1.0000   1.0000   1.0000   1.0000   1.0000   1.0000   1.0000
     1.0000   1.0000   1.0000   1.0000   1.0000   1.0000   1.0000   1.0000
     1.0000   1.0000   0.0000   0.0000   0.0000

          k = 0.3333 0.5774 0.2066 (  2871 PWs)   bands (ev):

   -77.3749 -77.3749 -40.7538 -40.7538 -40.7168 -40.6672 -40.5823 -40.5823
    14.6682  14.7690  14.7690  15.0195  15.7129  15.7129  16.6670  17.1267
    17.8437  17.8437  24.1219  24.1219  24.4697

     occupation numbers 
     1.0000   1.0000   1.0000   1.0000   1.0000   1.0000   1.0000   1.0000
     1.0000   1.0000   1.0000   1.0000   1.0000   1.0000   1.0000   1.0000
     1.0000   1.0000   0.0000   0.0000   0.0000

          k = 0.3333 0.5774-0.3099 (  2874 PWs)   bands (ev):

   -77.3749 -77.3749 -40.7660 -40.7660 -40.6920 -40.6920 -40.5700 -40.5700
    14.7919  14.7919  14.9186  14.9186  15.6927  15.6927  16.7636  16.7636
    17.8792  17.8792  24.2436  24.2436  25.8813

     occupation numbers 
     1.0000   1.0000   1.0000   1.0000   1.0000   1.0000   1.0000   1.0000
     1.0000   1.0000   1.0000   1.0000   1.0000   1.0000   1.0000   1.0000
     1.0000   1.0000   0.0000   0.0000   0.0000

 ------ SPIN DOWN ----------


          k = 0.0000 0.0000 0.0000 (  2863 PWs)   bands (ev):

   -75.3274 -75.2660 -38.8034 -38.4929 -38.4929 -38.4438 -38.4409 -38.4409
     9.6852  14.4636  17.7350  17.7536  17.7536  18.1273  18.1273  18.4128
    18.5316  18.5316  19.7745  19.7745  26.0754

     occupation numbers 
     1.0000   1.0000   1.0000   1.0000   1.0000   1.0000   1.0000   1.0000
     1.0000   1.0000   1.0000   1.0000   1.0000   1.0000   1.0000   1.0000
     1.0000   1.0000   0.0000   0.0000   0.0000

          k = 0.0000 0.0000 0.1033 (  2833 PWs)   bands (ev):

   -75.3233 -75.2701 -38.7796 -38.4894 -38.4894 -38.4682 -38.4443 -38.4443
     9.9650  14.2321  17.6409  17.6826  17.6826  17.8203  18.0404  18.0404
    18.7159  18.7159  19.7602  19.7602  27.3994

     occupation numbers 
     1.0000   1.0000   1.0000   1.0000   1.0000   1.0000   1.0000   1.0000
     1.0000   1.0000   1.0000   1.0000   1.0000   1.0000   1.0000   1.0000
     0.0000   0.0000   0.0000   0.0000   0.0000

          k = 0.0000 0.0000 0.2066 (  2852 PWs)   bands (ev):

[...]
    19.9291  19.9983  21.1095  23.6071  28.5430

     occupation numbers 
     1.0000   1.0000   1.0000   1.0000   1.0000   1.0000   1.0000   1.0000
     1.0000   1.0000   1.0000   1.0000   1.0000   1.0000   1.0000   0.0000
     0.0000   0.0000   0.0000   0.0000   0.0000

          k = 0.0833 0.5292 0.1033 (  2860 PWs)   bands (ev):

   -75.2687 -75.2512 -38.7550 -38.7023 -38.6228 -38.5706 -38.5269 -38.4993
    14.6348  15.2651  15.8076  16.3325  17.5629  18.0770  18.1320  19.7181
    19.8830  19.9701  20.9729  23.2751  27.4754

     occupation numbers 
     1.0000   1.0000   1.0000   1.0000   1.0000   1.0000   1.0000   1.0000
     1.0000   1.0000   1.0000   1.0000   1.0000   1.0000   1.0000   0.0000
     0.0000   0.0000   0.0000   0.0000   0.0000

          k = 0.0833 0.5292 0.2066 (  2854 PWs)   bands (ev):

   -75.2650 -75.2549 -38.7705 -38.7375 -38.5848 -38.5477 -38.5324 -38.5038
    14.6170  15.1016  16.1108  16.4324  17.6174  18.3795  18.5837  19.2499
    19.8322  20.0625  20.7550  22.3463  26.9166

     occupation numbers 
     1.0000   1.0000   1.0000   1.0000   1.0000   1.0000   1.0000   1.0000
     1.0000   1.0000   1.0000   1.0000   1.0000   1.0000   1.0000   0.0000
     0.0000   0.0000   0.0000   0.0000   0.0000

          k = 0.0833 0.5292-0.3099 (  2860 PWs)   bands (ev):

   -75.2600 -75.2600 -38.7645 -38.7645 -38.5556 -38.5556 -38.5182 -38.5182
    14.7973  14.7973  16.3845  16.3845  18.1178  18.1178  18.8915  18.8915
    19.9135  19.9135  21.2922  21.2922  27.1703

     occupation numbers 
     1.0000   1.0000   1.0000   1.0000   1.0000   1.0000   1.0000   1.0000
     1.0000   1.0000   1.0000   1.0000   1.0000   1.0000   0.0000   0.0000
     0.0000   0.0000   0.0000   0.0000   0.0000

          k = 0.1667 0.2887 0.0000 (  2852 PWs)   bands (ev):

   -75.2942 -75.2533 -38.7216 -38.6257 -38.6162 -38.5345 -38.4864 -38.4832
    12.3504  15.7596  16.0971  16.4559  17.6186  17.7149  18.1956  18.6122
    19.1422  19.5043  19.9129  24.6666  26.5172

     occupation numbers 
     1.0000   1.0000   1.0000   1.0000   1.0000   1.0000   1.0000   1.0000
     1.0000   1.0000   1.0000   1.0000   1.0000   1.0000   1.0000   0.9988
     0.0000   0.0000   0.0000   0.0000   0.0000

          k = 0.1667 0.2887 0.1033 (  2846 PWs)   bands (ev):

   -75.2915 -75.2561 -38.7214 -38.6238 -38.6081 -38.5420 -38.4908 -38.4816
    12.5648  15.6959  15.9947  16.5224  17.5378  17.7421  18.0822  18.6886
    19.2718  19.3819  19.9213  23.0143  28.7159

     occupation numbers 
     1.0000   1.0000   1.0000   1.0000   1.0000   1.0000   1.0000   1.0000
     1.0000   1.0000   1.0000   1.0000   1.0000   1.0000   1.0000   0.0000
     0.0000   0.0000   0.0000   0.0000   0.0000

          k = 0.1667 0.2887 0.2066 (  2845 PWs)   bands (ev):

   -75.2840 -75.2636 -38.7116 -38.6505 -38.5708 -38.5447 -38.5016 -38.4890
    13.1729  15.0088  16.2473  16.6921  17.2888  17.5713  18.1370  18.7430
    19.3880  19.5011  19.8728  21.2873  31.9675

     occupation numbers 
     1.0000   1.0000   1.0000   1.0000   1.0000   1.0000   1.0000   1.0000
     1.0000   1.0000   1.0000   1.0000   1.0000   1.0000   1.0000   0.0000
     0.0000   0.0000   0.0000   0.0000   0.0000

          k = 0.1667 0.2887-0.3099 (  2858 PWs)   bands (ev):

   -75.2738 -75.2738 -38.6856 -38.6856 -38.5435 -38.5435 -38.5051 -38.5051
    14.0590  14.0590  16.6281  16.6281  17.2515  17.2515  18.4439  18.4439
    19.6945  19.6945  20.1063  20.1063  33.6586

     occupation numbers 
     1.0000   1.0000   1.0000   1.0000   1.0000   1.0000   1.0000   1.0000
     1.0000   1.0000   1.0000   1.0000   1.0000   1.0000   1.0000   1.0000
     0.0000   0.0000   0.0000   0.0000   0.0000

          k = 0.1667 0.3849 0.0000 (  2855 PWs)   bands (ev):

   -75.2812 -75.2505 -38.6845 -38.6754 -38.6513 -38.5643 -38.5080 -38.5056
    13.6016  15.7911  15.8351  16.2591  17.4197  17.8522  17.9650  18.9516
    19.6487  19.9101  20.2218  26.4353  26.7276

     occupation numbers 
     1.0000   1.0000   1.0000   1.0000   1.0000   1.0000   1.0000   1.0000
     1.0000   1.0000   1.0000   1.0000   1.0000   1.0000   1.0000   0.0000
     0.0000   0.0000   0.0000   0.0000   0.0000

          k = 0.1667 0.3849 0.1033 (  2851 PWs)   bands (ev):

   -75.2791 -75.2525 -38.7134 -38.6705 -38.6231 -38.5706 -38.5146 -38.4969
    13.7517  15.6539  15.9403  16.3635  17.4026  17.8074  17.9240  18.9840
    19.6384  19.7517  20.3341  24.1067  28.7753

     occupation numbers 
     1.0000   1.0000   1.0000   1.0000   1.0000   1.0000   1.0000   1.0000
     1.0000   1.0000   1.0000   1.0000   1.0000   1.0000   1.0000   0.0000
     0.0000   0.0000   0.0000   0.0000   0.0000

          k = 0.1667 0.3849 0.2066 (  2848 PWs)   bands (ev):

   -75.2735 -75.2581 -38.7275 -38.6934 -38.5837 -38.5662 -38.5231 -38.4952
    14.1627  15.2718  16.2280  16.5837  17.2731  17.5200  18.1115  18.9270
    19.4983  19.9376  20.4167  22.1050  29.7230

     occupation numbers 
     1.0000   1.0000   1.0000   1.0000   1.0000   1.0000   1.0000   1.0000
     1.0000   1.0000   1.0000   1.0000   1.0000   1.0000   1.0000   0.0000
     0.0000   0.0000   0.0000   0.0000   0.0000

          k = 0.1667 0.3849-0.3099 (  2844 PWs)   bands (ev):

   -75.2658 -75.2658 -38.7184 -38.7184 -38.5652 -38.5652 -38.5109 -38.5109
    14.7227  14.7227  16.5747  16.5747  17.2446  17.2446  18.4742  18.4742
    19.9384  19.9384  20.7726  20.7726  30.8387

     occupation numbers 
     1.0000   1.0000   1.0000   1.0000   1.0000   1.0000   1.0000   1.0000
     1.0000   1.0000   1.0000   1.0000   1.0000   1.0000   1.0000   1.0000
     0.0000   0.0000   0.0000   0.0000   0.0000

          k = 0.1667 0.4811 0.0000 (  2864 PWs)   bands (ev):

   -75.2701 -75.2498 -38.7148 -38.6683 -38.6486 -38.5926 -38.5307 -38.5227
    14.7077  15.6111  15.6172  16.3018  17.3611  17.7068  18.0878  19.4009
    19.9067  19.9112  21.1249  25.0728  28.3384

     occupation numbers 
     1.0000   1.0000   1.0000   1.0000   1.0000   1.0000   1.0000   1.0000
     1.0000   1.0000   1.0000   1.0000   1.0000   1.0000   1.0000   0.0000
     0.0000   0.0000   0.0000   0.0000   0.0000

          k = 0.1667 0.4811 0.1033 (  2863 PWs)   bands (ev):

   -75.2688 -75.2512 -38.7305 -38.6894 -38.6243 -38.5854 -38.5361 -38.5119
    14.7268  15.5660  15.7830  16.3424  17.3781  17.6887  18.1416  19.3875
    19.6679  19.9871  21.1774  24.4743  27.3030

     occupation numbers 
     1.0000   1.0000   1.0000   1.0000   1.0000   1.0000   1.0000   1.0000
     1.0000   1.0000   1.0000   1.0000   1.0000   1.0000   1.0000   0.0000
     0.0000   0.0000   0.0000   0.0000   0.0000

          k = 0.1667 0.4811 0.2066 (  2856 PWs)   bands (ev):

   -75.2651 -75.2549 -38.7474 -38.7201 -38.6044 -38.5666 -38.5366 -38.5021
    14.8350  15.3630  16.1203  16.6270  17.2138  17.6620  18.3439  19.0538
    19.6031  20.0848  21.3292  23.0398  27.4157

     occupation numbers 
     1.0000   1.0000   1.0000   1.0000   1.0000   1.0000   1.0000   1.0000
     1.0000   1.0000   1.0000   1.0000   1.0000   1.0000   1.0000   0.0000
     0.0000   0.0000   0.0000   0.0000   0.0000

          k = 0.1667 0.4811-0.3099 (  2844 PWs)   bands (ev):

   -75.2600 -75.2600 -38.7438 -38.7438 -38.5831 -38.5831 -38.5117 -38.5117
    15.0659  15.0659  16.5376  16.5376  17.3919  17.3919  18.6182  18.6182
    19.9308  19.9308  21.8598  21.8598  28.2255

     occupation numbers 
     1.0000   1.0000   1.0000   1.0000   1.0000   1.0000   1.0000   1.0000
     1.0000   1.0000   1.0000   1.0000   1.0000   1.0000   0.9919   0.9919
     0.0000   0.0000   0.0000   0.0000   0.0000

          k = 0.1667 0.5774 0.0000 (  2868 PWs)   bands (ev):

   -75.2652 -75.2505 -38.7291 -38.6733 -38.6305 -38.6045 -38.5449 -38.5279
    15.1768  15.4805  15.5525  16.3590  17.3996  17.5521  18.1933  19.7161
    19.8935  19.9050  22.0242  23.5070  29.2926

     occupation numbers 
     1.0000   1.0000   1.0000   1.0000   1.0000   1.0000   1.0000   1.0000
     1.0000   1.0000   1.0000   1.0000   1.0000   1.0000   1.0000   0.0000
     0.0000   0.0000   0.0000   0.0000   0.0000

          k = 0.1667 0.5774 0.1033 (  2872 PWs)   bands (ev):

   -75.2642 -75.2515 -38.7415 -38.6929 -38.6284 -38.5794 -38.5493 -38.5184
    15.0279  15.5268  15.9257  16.1870  17.3336  17.7251  18.2564  19.6369
    19.7134  19.9576  22.0554  23.4105  28.4474

     occupation numbers 
     1.0000   1.0000   1.0000   1.0000   1.0000   1.0000   1.0000   1.0000
     1.0000   1.0000   1.0000   1.0000   1.0000   1.0000   1.0000   0.0000
     0.0000   0.0000   0.0000   0.0000   0.0000

          k = 0.1667 0.5774 0.2066 (  2862 PWs)   bands (ev):

   -75.2615 -75.2542 -38.7567 -38.7283 -38.6132 -38.5661 -38.5393 -38.5058
    14.9889  15.4221  16.1844  16.5416  17.1239  17.8359  18.4911  19.1271
    19.7369  20.0023  22.1859  23.0890  27.3615

     occupation numbers 
     1.0000   1.0000   1.0000   1.0000   1.0000   1.0000   1.0000   1.0000
     1.0000   1.0000   1.0000   1.0000   1.0000   1.0000   1.0000   0.0000
     0.0000   0.0000   0.0000   0.0000   0.0000

          k = 0.1667 0.5774-0.3099 (  2846 PWs)   bands (ev):

   -75.2578 -75.2578 -38.7532 -38.7532 -38.5899 -38.5899 -38.5116 -38.5116
    15.1474  15.1474  16.5284  16.5284  17.4434  17.4434  18.7832  18.7832
    19.8658  19.8658  22.5818  22.5818  26.9698

     occupation numbers 
     1.0000   1.0000   1.0000   1.0000   1.0000   1.0000   1.0000   1.0000
     1.0000   1.0000   1.0000   1.0000   1.0000   1.0000   0.0000   0.0000
     0.0000   0.0000   0.0000   0.0000   0.0000

          k = 0.2500 0.4330 0.0000 (  2866 PWs)   bands (ev):

   -75.2702 -75.2498 -38.6935 -38.6699 -38.6489 -38.5931 -38.5422 -38.5304
    14.7136  15.6848  15.9597  15.9798  17.2701  17.7320  18.0912  19.1614
    19.8600  19.9157  21.1627  26.6422  27.4398

     occupation numbers 
     1.0000   1.0000   1.0000   1.0000   1.0000   1.0000   1.0000   1.0000
     1.0000   1.0000   1.0000   1.0000   1.0000   1.0000   1.0000   0.0000
     0.0000   0.0000   0.0000   0.0000   0.0000

          k = 0.2500 0.4330 0.1033 (  2860 PWs)   bands (ev):

   -75.2688 -75.2512 -38.7048 -38.6976 -38.6080 -38.6069 -38.5451 -38.5154
    14.7953  15.6027  16.0288  16.1685  17.3168  17.5560  18.0891  19.1949
    19.6113  19.9960  21.2690  25.2213  27.7303

     occupation numbers 
     1.0000   1.0000   1.0000   1.0000   1.0000   1.0000   1.0000   1.0000
     1.0000   1.0000   1.0000   1.0000   1.0000   1.0000   1.0000   0.0000
     0.0000   0.0000   0.0000   0.0000   0.0000

          k = 0.2500 0.4330 0.2066 (  2851 PWs)   bands (ev):

   -75.2651 -75.2549 -38.7296 -38.7141 -38.6118 -38.5845 -38.5357 -38.5019
    15.0039  15.4620  16.2529  16.5334  17.1713  17.2961  18.1616  18.9569
    19.5626  20.0932  21.5068  23.3585  28.5165

     occupation numbers 
     1.0000   1.0000   1.0000   1.0000   1.0000   1.0000   1.0000   1.0000
     1.0000   1.0000   1.0000   1.0000   1.0000   1.0000   1.0000   0.0000
     0.0000   0.0000   0.0000   0.0000   0.0000

          k = 0.2500 0.4330-0.3099 (  2852 PWs)   bands (ev):

   -75.2600 -75.2600 -38.7309 -38.7309 -38.5980 -38.5980 -38.5098 -38.5098
    15.2542  15.2542  16.5974  16.5974  17.0648  17.0648  18.4543  18.4543
    19.9544  19.9544  22.0748  22.0748  29.5337

     occupation numbers 
     1.0000   1.0000   1.0000   1.0000   1.0000   1.0000   1.0000   1.0000
     1.0000   1.0000   1.0000   1.0000   1.0000   1.0000   1.0000   1.0000
     0.0000   0.0000   0.0000   0.0000   0.0000

          k = 0.2500 0.5292 0.0000 (  2875 PWs)   bands (ev):

   -75.2619 -75.2514 -38.7074 -38.6600 -38.6249 -38.6170 -38.5640 -38.5561
    15.4344  15.6485  15.7978  16.0619  17.2724  17.4915  18.2913  19.4667
    19.8304  19.8596  22.4346  24.6709  26.7552

     occupation numbers 
     1.0000   1.0000   1.0000   1.0000   1.0000   1.0000   1.0000   1.0000
     1.0000   1.0000   1.0000   1.0000   1.0000   1.0000   1.0000   0.0000
     0.0000   0.0000   0.0000   0.0000   0.0000

          k = 0.2500 0.5292 0.1033 (  2867 PWs)   bands (ev):

   -75.2612 -75.2521 -38.7138 -38.6847 -38.6441 -38.5865 -38.5670 -38.5330
    15.3979  15.7660  15.8841  16.1290  17.2514  17.3935  18.2963  19.4805
    19.5780  19.9131  22.5989  24.6509  26.8302

     occupation numbers 
     1.0000   1.0000   1.0000   1.0000   1.0000   1.0000   1.0000   1.0000
     1.0000   1.0000   1.0000   1.0000   1.0000   1.0000   1.0000   0.0000
     0.0000   0.0000   0.0000   0.0000   0.0000

          k = 0.2500 0.5292 0.2066 (  2855 PWs)   bands (ev):

   -75.2592 -75.2540 -38.7307 -38.7149 -38.6431 -38.5981 -38.5320 -38.5098
    15.4379  15.7299  16.1635  16.4774  17.0073  17.2521  18.3571  18.9968
    19.6496  19.9594  22.9838  24.2993  26.9173

     occupation numbers 
     1.0000   1.0000   1.0000   1.0000   1.0000   1.0000   1.0000   1.0000
     1.0000   1.0000   1.0000   1.0000   1.0000   1.0000   1.0000   0.0000
     0.0000   0.0000   0.0000   0.0000   0.0000

          k = 0.2500 0.5292-0.3099 (  2856 PWs)   bands (ev):

   -75.2566 -75.2566 -38.7336 -38.7336 -38.6222 -38.6222 -38.5084 -38.5084
    15.5726  15.5726  16.5609  16.5609  16.9663  16.9663  18.5607  18.5607
    19.8532  19.8532  23.5754  23.5754  27.4641

     occupation numbers 
     1.0000   1.0000   1.0000   1.0000   1.0000   1.0000   1.0000   1.0000
     1.0000   1.0000   1.0000   1.0000   1.0000   1.0000   1.0000   1.0000
     0.0000   0.0000   0.0000   0.0000   0.0000

          k = 0.3333 0.5774 0.0000 (  2868 PWs)   bands (ev):

   -75.2554 -75.2554 -38.6978 -38.6451 -38.6451 -38.5894 -38.5854 -38.5854
    15.6795  15.7867  15.7867  15.9916  17.3177  17.3177  18.3994  19.6346
    19.6346  19.8001  23.8716  24.6618  24.6618

     occupation numbers 
     1.0000   1.0000   1.0000   1.0000   1.0000   1.0000   1.0000   1.0000
     1.0000   1.0000   1.0000   1.0000   1.0000   1.0000   1.0000   0.0000
     0.0000   0.0000   0.0000   0.0000   0.0000

          k = 0.3333 0.5774 0.1033 (  2859 PWs)   bands (ev):

   -75.2554 -75.2554 -38.6906 -38.6750 -38.6750 -38.5967 -38.5554 -38.5554
    15.7545  15.8621  15.8621  16.0244  17.2332  17.2332  18.3763  19.5211
    19.6799  19.6799  24.2905  24.7126  24.7126

     occupation numbers 
     1.0000   1.0000   1.0000   1.0000   1.0000   1.0000   1.0000   1.0000
     1.0000   1.0000   1.0000   1.0000   1.0000   1.0000   1.0000   0.0000
     0.0000   0.0000   0.0000   0.0000   0.0000

          k = 0.3333 0.5774 0.2066 (  2871 PWs)   bands (ev):

   -75.2554 -75.2554 -38.7096 -38.7096 -38.6708 -38.6166 -38.5205 -38.5205
    15.9303  16.0412  16.0412  16.0850  17.0438  17.0438  18.3683  18.9696
    19.7619  19.7619  24.8384  24.8384  25.3047

     occupation numbers 
     1.0000   1.0000   1.0000   1.0000   1.0000   1.0000   1.0000   1.0000
     1.0000   1.0000   1.0000   1.0000   1.0000   1.0000   1.0000   0.0000
     0.0000   0.0000   0.0000   0.0000   0.0000

          k = 0.3333 0.5774-0.3099 (  2874 PWs)   bands (ev):

   -75.2554 -75.2554 -38.7228 -38.7228 -38.6438 -38.6438 -38.5071 -38.5071
    16.0732  16.0732  16.1574  16.1574  16.9261  16.9261  18.5336  18.5336
    19.7991  19.7991  24.9183  24.9183  26.6389

     occupation numbers 
     1.0000   1.0000   1.0000   1.0000   1.0000   1.0000   1.0000   1.0000
     1.0000   1.0000   1.0000   1.0000   1.0000   1.0000   1.0000   1.0000
     0.0000   0.0000   0.0000   0.0000   0.0000

     the Fermi energy is    18.6414 ev

!    total energy              =    -753.45520022 Ry
     total all-electron energy =     -5573.811891 Ry
     estimated scf accuracy    <       0.00000050 Ry
     smearing contrib. (-TS)   =      -0.00001892 Ry
     internal energy E=F+TS    =    -753.45518130 Ry

     The total energy is F=E-TS. E is the sum of the following terms:
     one-electron contribution =    -282.93614217 Ry
     hartree contribution      =     165.08326001 Ry
     xc contribution           =     -61.39880177 Ry
     ewald contribution        =    -399.02874975 Ry
     one-center paw contrib.   =    -175.17474762 Ry
      -> PAW hartree energy AE =     222.00067395 Ry
      -> PAW hartree energy PS =    -220.94511674 Ry
      -> PAW xc energy AE      =    -117.67006103 Ry
      -> PAW xc energy PS      =      29.02713002 Ry
      -> total E_H with PAW    =     166.13881721 Ry
      -> total E_XC with PAW   =    -150.04173279 Ry

     total magnetization       =     3.31 Bohr mag/cell
     absolute magnetization    =     3.63 Bohr mag/cell

     convergence has been achieved in  13 iterations

     Writing all to output data dir ./out/Co.save/
 
     init_run     :      0.40s CPU      0.51s WALL (       1 calls)
     electrons    :     32.28s CPU     33.91s WALL (       1 calls)

     Called by init_run:
     wfcinit      :      0.27s CPU      0.36s WALL (       1 calls)
     potinit      :      0.09s CPU      0.10s WALL (       1 calls)
     hinit0       :      0.03s CPU      0.03s WALL (       1 calls)

     Called by electrons:
     c_bands      :     28.76s CPU     30.04s WALL (      13 calls)
     sum_band     :      2.38s CPU      2.51s WALL (      13 calls)
     v_of_rho     :      0.04s CPU      0.04s WALL (      14 calls)
     v_h          :      0.00s CPU      0.00s WALL (      14 calls)
     v_xc         :      0.04s CPU      0.04s WALL (      14 calls)
     newd         :      0.05s CPU      0.06s WALL (      14 calls)
     PAW_pot      :      1.11s CPU      1.32s WALL (      14 calls)
     mix_rho      :      0.01s CPU      0.01s WALL (      13 calls)

     Called by c_bands:
     init_us_2    :      0.14s CPU      0.14s WALL (    3952 calls)
     init_us_2:cp :      0.14s CPU      0.14s WALL (    3952 calls)
     cegterg      :     27.90s CPU     29.04s WALL (    2109 calls)

     Called by sum_band:
     sum_band:wei :      0.02s CPU      0.02s WALL (      13 calls)
     sum_band:loo :      2.26s CPU      2.39s WALL (      13 calls)
     sum_band:buf :      0.01s CPU      0.01s WALL (    1976 calls)
     sum_band:ini :      0.08s CPU      0.07s WALL (    1976 calls)
     sum_band:cal :      0.20s CPU      0.19s WALL (    1976 calls)
     sum_band:bec :      0.00s CPU      0.02s WALL (    1976 calls)
     addusdens    :      0.08s CPU      0.09s WALL (      13 calls)
                                        0.00s GPU  (      13 calls)
     addusd:skk   :      0.00s CPU      0.00s WALL (      13 calls)
                                        0.00s GPU  (      13 calls)

     Called by *egterg:
     cdiaghg      :      6.86s CPU      7.02s WALL (   13672 calls)
     cegterg:over :      0.92s CPU      0.90s WALL (   11848 calls)
     cegterg:upda :      0.11s CPU      0.22s WALL (   11848 calls)
     cegterg:last :      0.40s CPU      0.42s WALL (    8319 calls)
     h_psi        :     18.43s CPU     19.30s WALL (   13957 calls)
     s_psi        :      0.36s CPU      0.31s WALL (   13957 calls)
     g_psi        :      0.06s CPU      0.07s WALL (   11848 calls)

     Called by h_psi:
     h_psi:calbec :      0.96s CPU      0.94s WALL (   13957 calls)
     vloc_psi     :     17.21s CPU     17.96s WALL (   13957 calls)
     add_vuspsi   :      0.21s CPU      0.32s WALL (   13957 calls)

     General routines
     calbec       :      1.14s CPU      1.11s WALL (   15933 calls)
     fft          :      0.02s CPU      0.02s WALL (     344 calls)
     ffts         :      0.00s CPU      0.00s WALL (      54 calls)
     fftw         :     18.25s CPU     18.66s WALL (  419640 calls)
     interpolate  :      0.00s CPU      0.00s WALL (      28 calls)
 
     Parallel routines

     PAW routines
     PAW_pot      :      1.11s CPU      1.32s WALL (      14 calls)
     PAW_symme    :      0.01s CPU      0.01s WALL (      26 calls)
 
     PWSCF        :     33.00s CPU     35.20s WALL

 
   This run was terminated on:   8:33:13  22Mar2024            

=------------------------------------------------------------------------------=
   JOB DONE.
=------------------------------------------------------------------------------=
