
     Program PWSCF v.7.2 starts on 22Mar2024 at  9:55:40 

     This program is part of the open-source Quantum ESPRESSO suite
     for quantum simulation of materials; please cite
         "P. Giannozzi et al., J. Phys.:Condens. Matter 21 395502 (2009);
         "P. Giannozzi et al., J. Phys.:Condens. Matter 29 465901 (2017);
         "P. Giannozzi et al., J. Chem. Phys. 152 154105 (2020);
          URL http://www.quantum-espresso.org", 
     in publications or presentations arising from this work. More details at
     http://www.quantum-espresso.org/quote

     Parallel version (MPI), running on    20 processors

     MPI processes distributed on     1 nodes
     241303 MiB available memory on the printing compute node when the environment starts
 
     Waiting for input...
     Reading input from standard input

     Current dimensions of program PWSCF are:
     Max number of different atomic species (ntypx) = 10
     Max number of k-points (npk) = 120000
     Max angular momentum in pseudopotentials (lmaxx) =  4
     file Co.pbe-spn-kjpaw_psl.0.3.1.UPF: wavefunction(s)  3P 3D renormalized
 
     R & G space division:  proc/nbgrp/npool/nimage =      20
     Subspace diagonalization in iterative solution of the eigenvalue problem:
     a serial algorithm will be used

 
     Parallelization info
     --------------------
     sticks:   dense  smooth     PW     G-vecs:    dense   smooth      PW
     Min          33      33      9                 1159     1121     181
     Max          35      34     10                 1169     1127     186
     Sum         673     661    199                23247    22479    3693
 
     Using Slab Decomposition
 


     bravais-lattice index     =            4
     lattice parameter (alat)  =       4.6582  a.u.
     unit-cell volume          =     143.9965 (a.u.)^3
     number of atoms/cell      =            2
     number of atomic types    =            1
     number of electrons       =        34.00
     number of Kohn-Sham states=           21
     kinetic-energy cutoff     =     110.0000  Ry
     charge density cutoff     =     450.0000  Ry
     scf convergence threshold =      1.0E-06
     mixing beta               =       0.7000
     number of iterations used =            8  plain     mixing
     Exchange-correlation= SLA  PW   PBX  PBC
                           (   1   4   3   4   0   0   0)

     celldm(1)=   4.658175  celldm(2)=   0.000000  celldm(3)=   1.645030
     celldm(4)=   0.000000  celldm(5)=   0.000000  celldm(6)=   0.000000

     crystal axes: (cart. coord. in units of alat)
               a(1) = (   1.000000   0.000000   0.000000 )  
               a(2) = (  -0.500000   0.866025   0.000000 )  
               a(3) = (   0.000000   0.000000   1.645030 )  

     reciprocal axes: (cart. coord. in units 2 pi/alat)
               b(1) = (  1.000000  0.577350  0.000000 )  
               b(2) = (  0.000000  1.154701  0.000000 )  
               b(3) = (  0.000000  0.000000  0.607891 )  


     PseudoPot. # 1 for Co read from file:
     /truba/home/amuhaymin/ZnS/pseudo/QE/Co.pbe-spn-kjpaw_psl.0.3.1.UPF
     MD5 check sum: b0a1ad65bf214e88c1f3d33b20c7d919
     Pseudo is Projector augmented-wave + core cor, Zval = 17.0
     Generated using &quot;atomic&quot; code by A. Dal Corso  v.6.2.2
     Shape of augmentation charge: PSQ
     Using radial grid of 1193 points,  6 beta functions with: 
                l(1) =   0
                l(2) =   0
                l(3) =   1
                l(4) =   1
                l(5) =   2
                l(6) =   2
     Q(r) pseudized with 0 coefficients 


     atomic species   valence    mass     pseudopotential
        Co            17.00    58.93300     Co( 1.00)

     Starting magnetic structure 
     atomic species   magnetization
        Co           0.294

     24 Sym. Ops., with inversion, found (12 have fractional translation)


                                    s                        frac. trans.

      isym =  1     identity                                     

 cryst.   s( 1) = (     1          0          0      )
                  (     0          1          0      )
                  (     0          0          1      )

 cart.    s( 1) = (  1.0000000  0.0000000  0.0000000 )
                  (  0.0000000  1.0000000  0.0000000 )
                  (  0.0000000  0.0000000  1.0000000 )


      isym =  2     180 deg rotation - cart. axis [0,0,1]        

 cryst.   s( 2) = (    -1          0          0      )    f =(  0.0000000 )
                  (     0         -1          0      )       (  0.0000000 )
                  (     0          0          1      )       ( -0.5000000 )

 cart.    s( 2) = ( -1.0000000  0.0000000  0.0000000 )    f =(  0.0000000 )
                  (  0.0000000 -1.0000000  0.0000000 )       (  0.0000000 )
                  (  0.0000000  0.0000000  1.0000000 )       ( -0.8225152 )


      isym =  3     180 deg rotation - cart. axis [0,1,0]        

 cryst.   s( 3) = (    -1          0          0      )    f =(  0.0000000 )
                  (     1          1          0      )       (  0.0000000 )
                  (     0          0         -1      )       (  0.5000000 )

 cart.    s( 3) = ( -1.0000000  0.0000000  0.0000000 )    f =(  0.0000000 )
                  (  0.0000000  1.0000000  0.0000000 )       (  0.0000000 )
                  (  0.0000000  0.0000000 -1.0000000 )       (  0.8225152 )


      isym =  4     180 deg rotation - cart. axis [1,0,0]        

 cryst.   s( 4) = (     1          0          0      )
                  (    -1         -1          0      )
                  (     0          0         -1      )

 cart.    s( 4) = (  1.0000000  0.0000000  0.0000000 )
                  (  0.0000000 -1.0000000  0.0000000 )
                  (  0.0000000  0.0000000 -1.0000000 )


      isym =  5      60 deg rotation - cryst. axis [0,0,1]       

 cryst.   s( 5) = (     1          1          0      )    f =(  0.0000000 )
                  (    -1          0          0      )       ( -0.0000000 )
                  (     0          0          1      )       ( -0.5000000 )

 cart.    s( 5) = (  0.5000000 -0.8660254  0.0000000 )    f =(  0.0000000 )
                  (  0.8660254  0.5000000  0.0000000 )       ( -0.0000000 )
                  (  0.0000000  0.0000000  1.0000000 )       ( -0.8225152 )


      isym =  6      60 deg rotation - cryst. axis [0,0,-1]      

 cryst.   s( 6) = (     0         -1          0      )    f =(  0.0000000 )
                  (     1          1          0      )       ( -0.0000000 )
                  (     0          0          1      )       ( -0.5000000 )

 cart.    s( 6) = (  0.5000000  0.8660254  0.0000000 )    f =(  0.0000000 )
                  ( -0.8660254  0.5000000  0.0000000 )       ( -0.0000000 )
                  (  0.0000000  0.0000000  1.0000000 )       ( -0.8225152 )


      isym =  7     120 deg rotation - cryst. axis [0,0,1]       

 cryst.   s( 7) = (     0          1          0      )
                  (    -1         -1          0      )
                  (     0          0          1      )

 cart.    s( 7) = ( -0.5000000 -0.8660254  0.0000000 )
                  (  0.8660254 -0.5000000  0.0000000 )
                  (  0.0000000  0.0000000  1.0000000 )


      isym =  8     120 deg rotation - cryst. axis [0,0,-1]      

 cryst.   s( 8) = (    -1         -1          0      )
                  (     1          0          0      )
                  (     0          0          1      )

 cart.    s( 8) = ( -0.5000000  0.8660254  0.0000000 )
                  ( -0.8660254 -0.5000000  0.0000000 )
                  (  0.0000000  0.0000000  1.0000000 )


      isym =  9     180 deg rotation - cryst. axis [1,-1,0]      

 cryst.   s( 9) = (     0         -1          0      )    f =(  0.0000000 )
                  (    -1          0          0      )       (  0.0000000 )
                  (     0          0         -1      )       (  0.5000000 )

 cart.    s( 9) = (  0.5000000 -0.8660254  0.0000000 )    f =(  0.0000000 )
                  ( -0.8660254 -0.5000000  0.0000000 )       (  0.0000000 )
                  (  0.0000000  0.0000000 -1.0000000 )       (  0.8225152 )


      isym = 10     180 deg rotation - cryst. axis [2,1,0]       

 cryst.   s(10) = (     1          1          0      )    f =(  0.0000000 )
                  (     0         -1          0      )       ( -0.0000000 )
                  (     0          0         -1      )       (  0.5000000 )

 cart.    s(10) = (  0.5000000  0.8660254  0.0000000 )    f =(  0.0000000 )
                  (  0.8660254 -0.5000000  0.0000000 )       ( -0.0000000 )
                  (  0.0000000  0.0000000 -1.0000000 )       (  0.8225152 )


      isym = 11     180 deg rotation - cryst. axis [0,1,0]       

 cryst.   s(11) = (    -1         -1          0      )
                  (     0          1          0      )
                  (     0          0         -1      )

 cart.    s(11) = ( -0.5000000 -0.8660254  0.0000000 )
                  ( -0.8660254  0.5000000  0.0000000 )
                  (  0.0000000  0.0000000 -1.0000000 )


      isym = 12     180 deg rotation - cryst. axis [1,1,0]       

 cryst.   s(12) = (     0          1          0      )
                  (     1          0          0      )
                  (     0          0         -1      )

 cart.    s(12) = ( -0.5000000  0.8660254  0.0000000 )
                  (  0.8660254  0.5000000  0.0000000 )
                  (  0.0000000  0.0000000 -1.0000000 )


      isym = 13     inversion                                    

 cryst.   s(13) = (    -1          0          0      )
                  (     0         -1          0      )
                  (     0          0         -1      )

 cart.    s(13) = ( -1.0000000  0.0000000  0.0000000 )
                  (  0.0000000 -1.0000000  0.0000000 )
                  (  0.0000000  0.0000000 -1.0000000 )


      isym = 14     inv. 180 deg rotation - cart. axis [0,0,1]   

 cryst.   s(14) = (     1          0          0      )    f =(  0.0000000 )
                  (     0          1          0      )       (  0.0000000 )
                  (     0          0         -1      )       (  0.5000000 )

 cart.    s(14) = (  1.0000000  0.0000000  0.0000000 )    f =(  0.0000000 )
                  (  0.0000000  1.0000000  0.0000000 )       (  0.0000000 )
                  (  0.0000000  0.0000000 -1.0000000 )       (  0.8225152 )


      isym = 15     inv. 180 deg rotation - cart. axis [0,1,0]   

 cryst.   s(15) = (     1          0          0      )    f =(  0.0000000 )
                  (    -1         -1          0      )       (  0.0000000 )
                  (     0          0          1      )       ( -0.5000000 )

 cart.    s(15) = (  1.0000000  0.0000000  0.0000000 )    f =(  0.0000000 )
                  (  0.0000000 -1.0000000  0.0000000 )       (  0.0000000 )
                  (  0.0000000  0.0000000  1.0000000 )       ( -0.8225152 )


      isym = 16     inv. 180 deg rotation - cart. axis [1,0,0]   

 cryst.   s(16) = (    -1          0          0      )
                  (     1          1          0      )
                  (     0          0          1      )

 cart.    s(16) = ( -1.0000000  0.0000000  0.0000000 )
                  (  0.0000000  1.0000000  0.0000000 )
                  (  0.0000000  0.0000000  1.0000000 )


      isym = 17     inv.  60 deg rotation - cryst. axis [0,0,1]  

 cryst.   s(17) = (    -1         -1          0      )    f =(  0.0000000 )
                  (     1          0          0      )       (  0.0000000 )
                  (     0          0         -1      )       (  0.5000000 )

 cart.    s(17) = ( -0.5000000  0.8660254  0.0000000 )    f =(  0.0000000 )
                  ( -0.8660254 -0.5000000  0.0000000 )       (  0.0000000 )
                  (  0.0000000  0.0000000 -1.0000000 )       (  0.8225152 )


      isym = 18     inv.  60 deg rotation - cryst. axis [0,0,-1] 

 cryst.   s(18) = (     0          1          0      )    f =(  0.0000000 )
                  (    -1         -1          0      )       ( -0.0000000 )
                  (     0          0         -1      )       (  0.5000000 )

 cart.    s(18) = ( -0.5000000 -0.8660254  0.0000000 )    f =(  0.0000000 )
                  (  0.8660254 -0.5000000  0.0000000 )       ( -0.0000000 )
                  (  0.0000000  0.0000000 -1.0000000 )       (  0.8225152 )


      isym = 19     inv. 120 deg rotation - cryst. axis [0,0,1]  

 cryst.   s(19) = (     0         -1          0      )
                  (     1          1          0      )
                  (     0          0         -1      )

 cart.    s(19) = (  0.5000000  0.8660254  0.0000000 )
                  ( -0.8660254  0.5000000  0.0000000 )
                  (  0.0000000  0.0000000 -1.0000000 )


      isym = 20     inv. 120 deg rotation - cryst. axis [0,0,-1] 

 cryst.   s(20) = (     1          1          0      )
                  (    -1          0          0      )
                  (     0          0         -1      )

 cart.    s(20) = (  0.5000000 -0.8660254  0.0000000 )
                  (  0.8660254  0.5000000  0.0000000 )
                  (  0.0000000  0.0000000 -1.0000000 )


      isym = 21     inv. 180 deg rotation - cryst. axis [1,-1,0] 

 cryst.   s(21) = (     0          1          0      )    f =(  0.0000000 )
                  (     1          0          0      )       ( -0.0000000 )
                  (     0          0          1      )       ( -0.5000000 )

 cart.    s(21) = ( -0.5000000  0.8660254  0.0000000 )    f =(  0.0000000 )
                  (  0.8660254  0.5000000  0.0000000 )       ( -0.0000000 )
                  (  0.0000000  0.0000000  1.0000000 )       ( -0.8225152 )


      isym = 22     inv. 180 deg rotation - cryst. axis [2,1,0]  

 cryst.   s(22) = (    -1         -1          0      )    f =(  0.0000000 )
                  (     0          1          0      )       ( -0.0000000 )
                  (     0          0          1      )       ( -0.5000000 )

 cart.    s(22) = ( -0.5000000 -0.8660254  0.0000000 )    f =(  0.0000000 )
                  ( -0.8660254  0.5000000  0.0000000 )       ( -0.0000000 )
                  (  0.0000000  0.0000000  1.0000000 )       ( -0.8225152 )


      isym = 23     inv. 180 deg rotation - cryst. axis [0,1,0]  

 cryst.   s(23) = (     1          1          0      )
                  (     0         -1          0      )
                  (     0          0          1      )

 cart.    s(23) = (  0.5000000  0.8660254  0.0000000 )
                  (  0.8660254 -0.5000000  0.0000000 )
                  (  0.0000000  0.0000000  1.0000000 )


      isym = 24     inv. 180 deg rotation - cryst. axis [1,1,0]  

 cryst.   s(24) = (     0         -1          0      )
                  (    -1          0          0      )
                  (     0          0          1      )

 cart.    s(24) = (  0.5000000 -0.8660254  0.0000000 )
                  ( -0.8660254 -0.5000000  0.0000000 )
                  (  0.0000000  0.0000000  1.0000000 )


     point group D_6h(6/mmm)
     there are 12 classes
     the character table:

       E     2C6   2C3   C2    3C2'  3C2'' i     2S3   2S6   s_h   3s_d  3s_v 
A_1g   1.00  1.00  1.00  1.00  1.00  1.00  1.00  1.00  1.00  1.00  1.00  1.00
A_2g   1.00  1.00  1.00  1.00 -1.00 -1.00  1.00  1.00  1.00  1.00 -1.00 -1.00
B_1g   1.00 -1.00  1.00 -1.00  1.00 -1.00  1.00 -1.00  1.00 -1.00  1.00 -1.00
B_2g   1.00 -1.00  1.00 -1.00 -1.00  1.00  1.00 -1.00  1.00 -1.00 -1.00  1.00
E_1g   2.00  1.00 -1.00 -2.00  0.00  0.00  2.00  1.00 -1.00 -2.00  0.00  0.00
E_2g   2.00 -1.00 -1.00  2.00  0.00  0.00  2.00 -1.00 -1.00  2.00  0.00  0.00
A_1u   1.00  1.00  1.00  1.00  1.00  1.00 -1.00 -1.00 -1.00 -1.00 -1.00 -1.00
A_2u   1.00  1.00  1.00  1.00 -1.00 -1.00 -1.00 -1.00 -1.00 -1.00  1.00  1.00
B_1u   1.00 -1.00  1.00 -1.00  1.00 -1.00 -1.00  1.00 -1.00  1.00 -1.00  1.00
B_2u   1.00 -1.00  1.00 -1.00 -1.00  1.00 -1.00  1.00 -1.00  1.00  1.00 -1.00
E_1u   2.00  1.00 -1.00 -2.00  0.00  0.00 -2.00 -1.00  1.00  2.00  0.00  0.00
E_2u   2.00 -1.00 -1.00  2.00  0.00  0.00 -2.00  1.00  1.00 -2.00  0.00  0.00

     the symmetry operations in each class and the name of the first element:

     E        1
          identity                                               
     2C6      5    6
           60 deg rotation - cryst. axis [0,0,1]                 
     2C3      7    8
          120 deg rotation - cryst. axis [0,0,1]                 
     C2       2
          180 deg rotation - cart. axis [0,0,1]                  
     3C2'     4   12   11
          180 deg rotation - cart. axis [1,0,0]                  
     3C2''    3    9   10
          180 deg rotation - cart. axis [0,1,0]                  
     i       13
          inversion                                              
     2S3     17   18
          inv.  60 deg rotation - cryst. axis [0,0,1]            
     2S6     19   20
          inv. 120 deg rotation - cryst. axis [0,0,1]            
     s_h     14
          inv. 180 deg rotation - cart. axis [0,0,1]             
     3s_d    16   24   23
          inv. 180 deg rotation - cart. axis [1,0,0]             
     3s_v    15   21   22
          inv. 180 deg rotation - cart. axis [0,1,0]             

   Cartesian axes

     site n.     atom                  positions (alat units)
         1           Co  tau(   1) = (  -0.0000000   0.5773503   0.4112576  )
         2           Co  tau(   2) = (   0.5000000   0.2886751   1.2337728  )

   Crystallographic axes

     site n.     atom                  positions (cryst. coord.)
         1           Co  tau(   1) = (  0.3333333  0.6666667  0.2500000  )
         2           Co  tau(   2) = (  0.6666667  0.3333333  0.7500000  )

     number of k points=    76  Gaussian smearing, width (Ry)=  0.0010
                       cart. coord. in units 2pi/alat
        k(    1) = (   0.0000000   0.0000000   0.0000000), wk =   0.0011574
        k(    2) = (   0.0000000   0.0000000   0.1013152), wk =   0.0023148
        k(    3) = (   0.0000000   0.0000000   0.2026305), wk =   0.0023148
        k(    4) = (   0.0000000   0.0000000  -0.3039457), wk =   0.0011574
        k(    5) = (   0.0000000   0.0962250   0.0000000), wk =   0.0069444
        k(    6) = (   0.0000000   0.0962250   0.1013152), wk =   0.0138889
        k(    7) = (   0.0000000   0.0962250   0.2026305), wk =   0.0138889
        k(    8) = (   0.0000000   0.0962250  -0.3039457), wk =   0.0069444
        k(    9) = (   0.0000000   0.1924501   0.0000000), wk =   0.0069444
        k(   10) = (   0.0000000   0.1924501   0.1013152), wk =   0.0138889
        k(   11) = (   0.0000000   0.1924501   0.2026305), wk =   0.0138889
        k(   12) = (   0.0000000   0.1924501  -0.3039457), wk =   0.0069444
        k(   13) = (   0.0000000   0.2886751   0.0000000), wk =   0.0069444
        k(   14) = (   0.0000000   0.2886751   0.1013152), wk =   0.0138889
        k(   15) = (   0.0000000   0.2886751   0.2026305), wk =   0.0138889
        k(   16) = (   0.0000000   0.2886751  -0.3039457), wk =   0.0069444
        k(   17) = (   0.0000000   0.3849002   0.0000000), wk =   0.0069444
        k(   18) = (   0.0000000   0.3849002   0.1013152), wk =   0.0138889
        k(   19) = (   0.0000000   0.3849002   0.2026305), wk =   0.0138889
        k(   20) = (   0.0000000   0.3849002  -0.3039457), wk =   0.0069444
        k(   21) = (   0.0000000   0.4811252   0.0000000), wk =   0.0069444
        k(   22) = (   0.0000000   0.4811252   0.1013152), wk =   0.0138889
        k(   23) = (   0.0000000   0.4811252   0.2026305), wk =   0.0138889
        k(   24) = (   0.0000000   0.4811252  -0.3039457), wk =   0.0069444
        k(   25) = (   0.0000000  -0.5773503   0.0000000), wk =   0.0034722
        k(   26) = (   0.0000000  -0.5773503   0.1013152), wk =   0.0069444
        k(   27) = (   0.0000000  -0.5773503   0.2026305), wk =   0.0069444
        k(   28) = (   0.0000000  -0.5773503  -0.3039457), wk =   0.0034722
        k(   29) = (   0.0833333   0.1443376   0.0000000), wk =   0.0069444
        k(   30) = (   0.0833333   0.1443376   0.1013152), wk =   0.0138889
        k(   31) = (   0.0833333   0.1443376   0.2026305), wk =   0.0138889
        k(   32) = (   0.0833333   0.1443376  -0.3039457), wk =   0.0069444
        k(   33) = (   0.0833333   0.2405626   0.0000000), wk =   0.0138889
        k(   34) = (   0.0833333   0.2405626   0.1013152), wk =   0.0277778
        k(   35) = (   0.0833333   0.2405626   0.2026305), wk =   0.0277778
        k(   36) = (   0.0833333   0.2405626  -0.3039457), wk =   0.0138889
        k(   37) = (   0.0833333   0.3367877   0.0000000), wk =   0.0138889
        k(   38) = (   0.0833333   0.3367877   0.1013152), wk =   0.0277778
        k(   39) = (   0.0833333   0.3367877   0.2026305), wk =   0.0277778
        k(   40) = (   0.0833333   0.3367877  -0.3039457), wk =   0.0138889
        k(   41) = (   0.0833333   0.4330127   0.0000000), wk =   0.0138889
        k(   42) = (   0.0833333   0.4330127   0.1013152), wk =   0.0277778
        k(   43) = (   0.0833333   0.4330127   0.2026305), wk =   0.0277778
        k(   44) = (   0.0833333   0.4330127  -0.3039457), wk =   0.0138889
        k(   45) = (   0.0833333   0.5292377   0.0000000), wk =   0.0138889
        k(   46) = (   0.0833333   0.5292377   0.1013152), wk =   0.0277778
        k(   47) = (   0.0833333   0.5292377   0.2026305), wk =   0.0277778
        k(   48) = (   0.0833333   0.5292377  -0.3039457), wk =   0.0138889
        k(   49) = (   0.1666667   0.2886751   0.0000000), wk =   0.0069444
        k(   50) = (   0.1666667   0.2886751   0.1013152), wk =   0.0138889
        k(   51) = (   0.1666667   0.2886751   0.2026305), wk =   0.0138889
        k(   52) = (   0.1666667   0.2886751  -0.3039457), wk =   0.0069444
        k(   53) = (   0.1666667   0.3849002   0.0000000), wk =   0.0138889
        k(   54) = (   0.1666667   0.3849002   0.1013152), wk =   0.0277778
        k(   55) = (   0.1666667   0.3849002   0.2026305), wk =   0.0277778
        k(   56) = (   0.1666667   0.3849002  -0.3039457), wk =   0.0138889
        k(   57) = (   0.1666667   0.4811252   0.0000000), wk =   0.0138889
        k(   58) = (   0.1666667   0.4811252   0.1013152), wk =   0.0277778
        k(   59) = (   0.1666667   0.4811252   0.2026305), wk =   0.0277778
        k(   60) = (   0.1666667   0.4811252  -0.3039457), wk =   0.0138889
        k(   61) = (   0.1666667   0.5773503   0.0000000), wk =   0.0069444
        k(   62) = (   0.1666667   0.5773503   0.1013152), wk =   0.0138889
        k(   63) = (   0.1666667   0.5773503   0.2026305), wk =   0.0138889
        k(   64) = (   0.1666667   0.5773503  -0.3039457), wk =   0.0069444
        k(   65) = (   0.2500000   0.4330127   0.0000000), wk =   0.0069444
        k(   66) = (   0.2500000   0.4330127   0.1013152), wk =   0.0138889
        k(   67) = (   0.2500000   0.4330127   0.2026305), wk =   0.0138889
        k(   68) = (   0.2500000   0.4330127  -0.3039457), wk =   0.0069444
        k(   69) = (   0.2500000   0.5292377   0.0000000), wk =   0.0138889
        k(   70) = (   0.2500000   0.5292377   0.1013152), wk =   0.0277778
        k(   71) = (   0.2500000   0.5292377   0.2026305), wk =   0.0277778
        k(   72) = (   0.2500000   0.5292377  -0.3039457), wk =   0.0138889
        k(   73) = (   0.3333333   0.5773503   0.0000000), wk =   0.0023148
        k(   74) = (   0.3333333   0.5773503   0.1013152), wk =   0.0046296
        k(   75) = (   0.3333333   0.5773503   0.2026305), wk =   0.0046296
        k(   76) = (   0.3333333   0.5773503  -0.3039457), wk =   0.0023148

                       cryst. coord.
        k(    1) = (   0.0000000   0.0000000   0.0000000), wk =   0.0011574
        k(    2) = (   0.0000000   0.0000000   0.1666667), wk =   0.0023148
        k(    3) = (   0.0000000   0.0000000   0.3333333), wk =   0.0023148
        k(    4) = (   0.0000000   0.0000000  -0.5000000), wk =   0.0011574
        k(    5) = (   0.0000000   0.0833333   0.0000000), wk =   0.0069444
        k(    6) = (   0.0000000   0.0833333   0.1666667), wk =   0.0138889
        k(    7) = (   0.0000000   0.0833333   0.3333333), wk =   0.0138889
        k(    8) = (   0.0000000   0.0833333  -0.5000000), wk =   0.0069444
        k(    9) = (   0.0000000   0.1666667   0.0000000), wk =   0.0069444
        k(   10) = (   0.0000000   0.1666667   0.1666667), wk =   0.0138889
        k(   11) = (   0.0000000   0.1666667   0.3333333), wk =   0.0138889
        k(   12) = (   0.0000000   0.1666667  -0.5000000), wk =   0.0069444
        k(   13) = (   0.0000000   0.2500000   0.0000000), wk =   0.0069444
        k(   14) = (   0.0000000   0.2500000   0.1666667), wk =   0.0138889
        k(   15) = (   0.0000000   0.2500000   0.3333333), wk =   0.0138889
        k(   16) = (   0.0000000   0.2500000  -0.5000000), wk =   0.0069444
        k(   17) = (   0.0000000   0.3333333   0.0000000), wk =   0.0069444
        k(   18) = (   0.0000000   0.3333333   0.1666667), wk =   0.0138889
        k(   19) = (   0.0000000   0.3333333   0.3333333), wk =   0.0138889
        k(   20) = (   0.0000000   0.3333333  -0.5000000), wk =   0.0069444
        k(   21) = (   0.0000000   0.4166667   0.0000000), wk =   0.0069444
        k(   22) = (   0.0000000   0.4166667   0.1666667), wk =   0.0138889
        k(   23) = (   0.0000000   0.4166667   0.3333333), wk =   0.0138889
        k(   24) = (   0.0000000   0.4166667  -0.5000000), wk =   0.0069444
        k(   25) = (   0.0000000  -0.5000000   0.0000000), wk =   0.0034722
        k(   26) = (   0.0000000  -0.5000000   0.1666667), wk =   0.0069444
        k(   27) = (   0.0000000  -0.5000000   0.3333333), wk =   0.0069444
        k(   28) = (   0.0000000  -0.5000000  -0.5000000), wk =   0.0034722
        k(   29) = (   0.0833333   0.0833333   0.0000000), wk =   0.0069444
        k(   30) = (   0.0833333   0.0833333   0.1666667), wk =   0.0138889
        k(   31) = (   0.0833333   0.0833333   0.3333333), wk =   0.0138889
        k(   32) = (   0.0833333   0.0833333  -0.5000000), wk =   0.0069444
        k(   33) = (   0.0833333   0.1666667   0.0000000), wk =   0.0138889
        k(   34) = (   0.0833333   0.1666667   0.1666667), wk =   0.0277778
        k(   35) = (   0.0833333   0.1666667   0.3333333), wk =   0.0277778
        k(   36) = (   0.0833333   0.1666667  -0.5000000), wk =   0.0138889
        k(   37) = (   0.0833333   0.2500000   0.0000000), wk =   0.0138889
        k(   38) = (   0.0833333   0.2500000   0.1666667), wk =   0.0277778
        k(   39) = (   0.0833333   0.2500000   0.3333333), wk =   0.0277778
        k(   40) = (   0.0833333   0.2500000  -0.5000000), wk =   0.0138889
        k(   41) = (   0.0833333   0.3333333   0.0000000), wk =   0.0138889
        k(   42) = (   0.0833333   0.3333333   0.1666667), wk =   0.0277778
        k(   43) = (   0.0833333   0.3333333   0.3333333), wk =   0.0277778
        k(   44) = (   0.0833333   0.3333333  -0.5000000), wk =   0.0138889
        k(   45) = (   0.0833333   0.4166667   0.0000000), wk =   0.0138889
        k(   46) = (   0.0833333   0.4166667   0.1666667), wk =   0.0277778
        k(   47) = (   0.0833333   0.4166667   0.3333333), wk =   0.0277778
        k(   48) = (   0.0833333   0.4166667  -0.5000000), wk =   0.0138889
        k(   49) = (   0.1666667   0.1666667   0.0000000), wk =   0.0069444
        k(   50) = (   0.1666667   0.1666667   0.1666667), wk =   0.0138889
        k(   51) = (   0.1666667   0.1666667   0.3333333), wk =   0.0138889
        k(   52) = (   0.1666667   0.1666667  -0.5000000), wk =   0.0069444
        k(   53) = (   0.1666667   0.2500000   0.0000000), wk =   0.0138889
        k(   54) = (   0.1666667   0.2500000   0.1666667), wk =   0.0277778
        k(   55) = (   0.1666667   0.2500000   0.3333333), wk =   0.0277778
        k(   56) = (   0.1666667   0.2500000  -0.5000000), wk =   0.0138889
        k(   57) = (   0.1666667   0.3333333   0.0000000), wk =   0.0138889
        k(   58) = (   0.1666667   0.3333333   0.1666667), wk =   0.0277778
        k(   59) = (   0.1666667   0.3333333   0.3333333), wk =   0.0277778
        k(   60) = (   0.1666667   0.3333333  -0.5000000), wk =   0.0138889
        k(   61) = (   0.1666667   0.4166667   0.0000000), wk =   0.0069444
        k(   62) = (   0.1666667   0.4166667   0.1666667), wk =   0.0138889
        k(   63) = (   0.1666667   0.4166667   0.3333333), wk =   0.0138889
        k(   64) = (   0.1666667   0.4166667  -0.5000000), wk =   0.0069444
        k(   65) = (   0.2500000   0.2500000   0.0000000), wk =   0.0069444
        k(   66) = (   0.2500000   0.2500000   0.1666667), wk =   0.0138889
        k(   67) = (   0.2500000   0.2500000   0.3333333), wk =   0.0138889
        k(   68) = (   0.2500000   0.2500000  -0.5000000), wk =   0.0069444
        k(   69) = (   0.2500000   0.3333333   0.0000000), wk =   0.0138889
        k(   70) = (   0.2500000   0.3333333   0.1666667), wk =   0.0277778
        k(   71) = (   0.2500000   0.3333333   0.3333333), wk =   0.0277778
        k(   72) = (   0.2500000   0.3333333  -0.5000000), wk =   0.0138889
        k(   73) = (   0.3333333   0.3333333   0.0000000), wk =   0.0023148
        k(   74) = (   0.3333333   0.3333333   0.1666667), wk =   0.0046296
        k(   75) = (   0.3333333   0.3333333   0.3333333), wk =   0.0046296
        k(   76) = (   0.3333333   0.3333333  -0.5000000), wk =   0.0023148

     Dense  grid:    23247 G-vectors     FFT dimensions: (  32,  32,  54)

     Smooth grid:    22479 G-vectors     FFT dimensions: (  32,  32,  54)

     Dynamical RAM for                 wfc:       0.04 MB

     Dynamical RAM for     wfc (w. buffer):       6.86 MB

     Dynamical RAM for           str. fact:       0.02 MB

     Dynamical RAM for           local pot:       0.00 MB

     Dynamical RAM for          nlocal pot:       0.08 MB

     Dynamical RAM for                qrad:       1.70 MB

     Dynamical RAM for          rho,v,vnew:       0.25 MB

     Dynamical RAM for               rhoin:       0.08 MB

     Dynamical RAM for            rho*nmix:       0.57 MB

     Dynamical RAM for           G-vectors:       0.08 MB

     Dynamical RAM for          h,s,v(r/c):       0.08 MB

     Dynamical RAM for          <psi|beta>:       0.01 MB

     Dynamical RAM for                 psi:       0.09 MB

     Dynamical RAM for                hpsi:       0.09 MB

     Dynamical RAM for                spsi:       0.09 MB

     Dynamical RAM for      wfcinit/wfcrot:       0.10 MB

     Dynamical RAM for           addusdens:       3.36 MB

     Estimated static dynamical RAM per process >       9.24 MB

     Estimated max dynamical RAM per process >      13.17 MB

     Estimated total dynamical RAM >     263.48 MB

     Check: negative core charge=   -0.000043
     Generating pointlists ...
     new r_m :   0.4125 (alat units)  1.9215 (a.u.) for type    1

     The initial density is read from file :
     ./out2/Co.save/charge-density


     starting charge      34.0420, renormalised to      34.0000

     negative rho (up, down):  8.667E-02 7.310E-02
     Starting wfcs from file
     Checking if some PAW data can be deallocated... 

     total cpu time spent up to now is        0.6 secs

     Self-consistent Calculation

     iteration #  1     ecut=   110.00 Ry     beta= 0.70
     Davidson diagonalization with overlap

---- Real-time Memory Report at c_bands before calling an iterative solver
            56 MiB given to the printing process from OS
             0 MiB allocation reported by mallinfo(arena+hblkhd)
        240731 MiB available memory on the node where the printing process lives
------------------
     c_bands:  1 eigenvalues not converged
     ethr =  1.00E-05,  avg # of iterations = 17.3

     negative rho (up, down):  8.746E-04 3.310E-04

     total cpu time spent up to now is        8.9 secs

     total energy              =    -753.32908462 Ry
     estimated scf accuracy    <       0.04388886 Ry

     total magnetization       =     3.34 Bohr mag/cell
     absolute magnetization    =     3.60 Bohr mag/cell

     iteration #  2     ecut=   110.00 Ry     beta= 0.70
     Davidson diagonalization with overlap

---- Real-time Memory Report at c_bands before calling an iterative solver
            77 MiB given to the printing process from OS
             0 MiB allocation reported by mallinfo(arena+hblkhd)
        240511 MiB available memory on the node where the printing process lives
------------------
     ethr =  1.29E-04,  avg # of iterations =  2.0

     total cpu time spent up to now is       10.5 secs

     total energy              =    -753.44419642 Ry
     estimated scf accuracy    <       0.00699949 Ry

     total magnetization       =     3.26 Bohr mag/cell
     absolute magnetization    =     3.53 Bohr mag/cell

     iteration #  3     ecut=   110.00 Ry     beta= 0.70
     Davidson diagonalization with overlap

---- Real-time Memory Report at c_bands before calling an iterative solver
            79 MiB given to the printing process from OS
             0 MiB allocation reported by mallinfo(arena+hblkhd)
        240499 MiB available memory on the node where the printing process lives
------------------
     ethr =  2.06E-05,  avg # of iterations =  5.5

     total cpu time spent up to now is       13.1 secs

     total energy              =    -753.45221875 Ry
     estimated scf accuracy    <       0.04346209 Ry

     total magnetization       =     3.29 Bohr mag/cell
     absolute magnetization    =     3.59 Bohr mag/cell

     iteration #  4     ecut=   110.00 Ry     beta= 0.70
     Davidson diagonalization with overlap

---- Real-time Memory Report at c_bands before calling an iterative solver
            80 MiB given to the printing process from OS
             0 MiB allocation reported by mallinfo(arena+hblkhd)
        240489 MiB available memory on the node where the printing process lives
------------------
     ethr =  2.06E-05,  avg # of iterations =  4.1

     total cpu time spent up to now is       15.0 secs

     total energy              =    -753.45350022 Ry
     estimated scf accuracy    <       0.00638038 Ry

     total magnetization       =     3.28 Bohr mag/cell
     absolute magnetization    =     3.57 Bohr mag/cell

     iteration #  5     ecut=   110.00 Ry     beta= 0.70
     Davidson diagonalization with overlap

---- Real-time Memory Report at c_bands before calling an iterative solver
            81 MiB given to the printing process from OS
             0 MiB allocation reported by mallinfo(arena+hblkhd)
        240481 MiB available memory on the node where the printing process lives
------------------
     ethr =  1.88E-05,  avg # of iterations =  2.0

     total cpu time spent up to now is       16.5 secs

     total energy              =    -753.45414909 Ry
     estimated scf accuracy    <       0.00061350 Ry

     total magnetization       =     3.26 Bohr mag/cell
     absolute magnetization    =     3.56 Bohr mag/cell

     iteration #  6     ecut=   110.00 Ry     beta= 0.70
     Davidson diagonalization with overlap

---- Real-time Memory Report at c_bands before calling an iterative solver
            81 MiB given to the printing process from OS
             0 MiB allocation reported by mallinfo(arena+hblkhd)
        240475 MiB available memory on the node where the printing process lives
------------------
     ethr =  1.80E-06,  avg # of iterations =  4.3

     total cpu time spent up to now is       18.5 secs

     total energy              =    -753.45457289 Ry
     estimated scf accuracy    <       0.00002822 Ry

     total magnetization       =     3.25 Bohr mag/cell
     absolute magnetization    =     3.56 Bohr mag/cell

     iteration #  7     ecut=   110.00 Ry     beta= 0.70
     Davidson diagonalization with overlap

---- Real-time Memory Report at c_bands before calling an iterative solver
            82 MiB given to the printing process from OS
             0 MiB allocation reported by mallinfo(arena+hblkhd)
        240466 MiB available memory on the node where the printing process lives
------------------
     ethr =  8.30E-08,  avg # of iterations =  5.8

     total cpu time spent up to now is       20.9 secs

     total energy              =    -753.45459476 Ry
     estimated scf accuracy    <       0.00000628 Ry

     total magnetization       =     3.26 Bohr mag/cell
     absolute magnetization    =     3.57 Bohr mag/cell

     iteration #  8     ecut=   110.00 Ry     beta= 0.70
     Davidson diagonalization with overlap

---- Real-time Memory Report at c_bands before calling an iterative solver
            83 MiB given to the printing process from OS
             0 MiB allocation reported by mallinfo(arena+hblkhd)
        240459 MiB available memory on the node where the printing process lives
------------------
     ethr =  1.85E-08,  avg # of iterations =  4.5

     total cpu time spent up to now is       22.9 secs

     total energy              =    -753.45459635 Ry
     estimated scf accuracy    <       0.00000367 Ry

     total magnetization       =     3.26 Bohr mag/cell
     absolute magnetization    =     3.57 Bohr mag/cell

     iteration #  9     ecut=   110.00 Ry     beta= 0.70
     Davidson diagonalization with overlap

---- Real-time Memory Report at c_bands before calling an iterative solver
            83 MiB given to the printing process from OS
             0 MiB allocation reported by mallinfo(arena+hblkhd)
        240446 MiB available memory on the node where the printing process lives
------------------
     ethr =  1.08E-08,  avg # of iterations =  3.2
 
     Magnetic moment per site  (integrated on atomic sphere of radius R)
     atom   1 (R=0.413)  charge= 15.5797  magn=  1.7042
     atom   2 (R=0.413)  charge= 15.5797  magn=  1.7042

     total cpu time spent up to now is       24.6 secs

     End of self-consistent calculation

 ------ SPIN UP ------------


          k = 0.0000 0.0000 0.0000 (  2779 PWs)   bands (ev):

   -77.0635 -77.0070 -40.4702 -40.1553 -40.1553 -40.1379 -40.1096 -40.1096
     9.9649  13.7794  16.3150  16.4373  16.4373  16.7408  16.7408  17.1528
    17.1528  18.2236  18.2236  18.6246  25.2666

     occupation numbers 
     1.0000   1.0000   1.0000   1.0000   1.0000   1.0000   1.0000   1.0000
     1.0000   1.0000   1.0000   1.0000   1.0000   1.0000   1.0000   1.0000
     1.0000   1.0000   1.0000   1.0000   0.0000

          k = 0.0000 0.0000 0.1013 (  2803 PWs)   bands (ev):

   -77.0598 -77.0108 -40.4483 -40.1605 -40.1523 -40.1523 -40.1127 -40.1127
    10.2389  13.7003  16.2467  16.3819  16.3819  16.6725  16.6725  17.3035
    17.3035  17.7103  18.2042  18.2042  26.7485

     occupation numbers 
     1.0000   1.0000   1.0000   1.0000   1.0000   1.0000   1.0000   1.0000
     1.0000   1.0000   1.0000   1.0000   1.0000   1.0000   1.0000   1.0000
     1.0000   1.0000   1.0000   1.0000   0.0000

          k = 0.0000 0.0000 0.2026 (  2834 PWs)   bands (ev):

   -77.0494 -77.0212 -40.3881 -40.2219 -40.1439 -40.1439 -40.1211 -40.1211
    11.0246  13.2386  16.0893  16.3340  16.3340  16.4472  16.5206  16.5206
    17.6101  17.6101  18.1126  18.1126  29.9085

     occupation numbers 
     1.0000   1.0000   1.0000   1.0000   1.0000   1.0000   1.0000   1.0000
     1.0000   1.0000   1.0000   1.0000   1.0000   1.0000   1.0000   1.0000
     1.0000   1.0000   1.0000   1.0000   0.0000

          k = 0.0000 0.0000-0.3039 (  2810 PWs)   bands (ev):

   -77.0353 -77.0353 -40.3053 -40.3053 -40.1325 -40.1325 -40.1325 -40.1325
    12.1706  12.1706  16.0154  16.0154  16.3842  16.3842  16.3842  16.3842
    17.9082  17.9082  17.9082  17.9082  33.6953

     occupation numbers 
     1.0000   1.0000   1.0000   1.0000   1.0000   1.0000   1.0000   1.0000
     1.0000   1.0000   1.0000   1.0000   1.0000   1.0000   1.0000   1.0000
     1.0000   1.0000   1.0000   1.0000   0.0000

          k = 0.0000 0.0962 0.0000 (  2805 PWs)   bands (ev):

   -77.0600 -77.0052 -40.4628 -40.1729 -40.1609 -40.1407 -40.1278 -40.1127
    10.2126  13.9332  16.1635  16.5540  16.5560  16.6861  16.8471  16.9646
    17.0801  17.3472  18.2525  19.8500  25.3054

     occupation numbers 
     1.0000   1.0000   1.0000   1.0000   1.0000   1.0000   1.0000   1.0000
     1.0000   1.0000   1.0000   1.0000   1.0000   1.0000   1.0000   1.0000
     1.0000   1.0000   1.0000   0.0000   0.0000

          k = 0.0000 0.0962 0.1013 (  2807 PWs)   bands (ev):

   -77.0563 -77.0089 -40.4420 -40.1697 -40.1662 -40.1577 -40.1268 -40.1159
    10.4824  13.8684  16.1624  16.3938  16.4860  16.4998  16.7731  17.0117
    17.2553  17.3086  18.2260  19.1301  26.8579

     occupation numbers 
     1.0000   1.0000   1.0000   1.0000   1.0000   1.0000   1.0000   1.0000
     1.0000   1.0000   1.0000   1.0000   1.0000   1.0000   1.0000   1.0000
     1.0000   1.0000   1.0000   0.0000   0.0000

          k = 0.0000 0.0962 0.2026 (  2818 PWs)   bands (ev):

   -77.0463 -77.0189 -40.3850 -40.2269 -40.1597 -40.1489 -40.1342 -40.1247
    11.2555  13.4337  16.0385  16.0788  16.2478  16.4305  16.6195  16.6395
    17.5821  17.6235  18.1178  18.4070  30.0655

     occupation numbers 
     1.0000   1.0000   1.0000   1.0000   1.0000   1.0000   1.0000   1.0000
     1.0000   1.0000   1.0000   1.0000   1.0000   1.0000   1.0000   1.0000
     1.0000   1.0000   1.0000   1.0000   0.0000

          k = 0.0000 0.0962-0.3039 (  2808 PWs)   bands (ev):

   -77.0326 -77.0326 -40.3065 -40.3065 -40.1467 -40.1467 -40.1368 -40.1368
    12.3831  12.3831  15.8877  15.8877  16.3768  16.3768  16.4814  16.4814
    17.8958  17.8958  17.9978  17.9978  33.8694

     occupation numbers 
     1.0000   1.0000   1.0000   1.0000   1.0000   1.0000   1.0000   1.0000
     1.0000   1.0000   1.0000   1.0000   1.0000   1.0000   1.0000   1.0000
     1.0000   1.0000   1.0000   1.0000   0.0000

          k = 0.0000 0.1925 0.0000 (  2793 PWs)   bands (ev):

   -77.0502 -77.0004 -40.4416 -40.2211 -40.1768 -40.1758 -40.1490 -40.1213
    10.9286  14.3143  15.9029  16.1475  16.4863  16.8621  16.8916  16.9009
    17.0408  17.1451  18.3129  21.4682  25.4435

     occupation numbers 
     1.0000   1.0000   1.0000   1.0000   1.0000   1.0000   1.0000   1.0000
     1.0000   1.0000   1.0000   1.0000   1.0000   1.0000   1.0000   1.0000
     1.0000   1.0000   1.0000   0.0000   0.0000

          k = 0.0000 0.1925 0.1013 (  2803 PWs)   bands (ev):

   -77.0469 -77.0037 -40.4247 -40.2163 -40.1971 -40.1722 -40.1509 -40.1250
    11.1821  14.2938  15.8745  15.9451  16.3652  16.7188  16.7490  17.0353
    17.2221  17.2889  18.2707  20.3672  27.2156

     occupation numbers 
     1.0000   1.0000   1.0000   1.0000   1.0000   1.0000   1.0000   1.0000
     1.0000   1.0000   1.0000   1.0000   1.0000   1.0000   1.0000   1.0000
     1.0000   1.0000   1.0000   0.0000   0.0000

          k = 0.0000 0.1925 0.2026 (  2806 PWs)   bands (ev):

   -77.0378 -77.0129 -40.3784 -40.2492 -40.2002 -40.1622 -40.1621 -40.1350
    11.9055  13.9378  15.5438  16.0062  16.0802  16.5765  16.6680  16.8928
    17.5501  17.6988  18.1285  19.0476  30.5361

     occupation numbers 
     1.0000   1.0000   1.0000   1.0000   1.0000   1.0000   1.0000   1.0000
     1.0000   1.0000   1.0000   1.0000   1.0000   1.0000   1.0000   1.0000
     1.0000   1.0000   1.0000   0.2255   0.0000

          k = 0.0000 0.1925-0.3039 (  2810 PWs)   bands (ev):

   -77.0253 -77.0253 -40.3144 -40.3144 -40.1807 -40.1807 -40.1486 -40.1486
    12.9547  12.9547  15.6682  15.6682  16.3017  16.3017  16.7406  16.7406
    17.8772  17.8772  18.2401  18.2401  34.3530

     occupation numbers 
     1.0000   1.0000   1.0000   1.0000   1.0000   1.0000   1.0000   1.0000
     1.0000   1.0000   1.0000   1.0000   1.0000   1.0000   1.0000   1.0000
     1.0000   1.0000   1.0000   1.0000   0.0000

          k = 0.0000 0.2887 0.0000 (  2799 PWs)   bands (ev):

   -77.0363 -76.9943 -40.4098 -40.2875 -40.2428 -40.1956 -40.1632 -40.1336
    12.0092  14.6181  15.4085  15.7469  16.3712  16.6854  16.8239  17.3117
    17.3789  17.5735  18.3679  23.2816  25.7175

     occupation numbers 
     1.0000   1.0000   1.0000   1.0000   1.0000   1.0000   1.0000   1.0000
     1.0000   1.0000   1.0000   1.0000   1.0000   1.0000   1.0000   1.0000
     1.0000   1.0000   1.0000   0.0000   0.0000

          k = 0.0000 0.2887 0.1013 (  2795 PWs)   bands (ev):

   -77.0335 -76.9971 -40.4020 -40.2782 -40.2564 -40.1915 -40.1670 -40.1378
    12.2190  14.6508  15.2684  15.8006  16.2238  16.7251  16.8163  17.4184
    17.4461  17.5328  18.3126  21.6544  27.8647

     occupation numbers 
     1.0000   1.0000   1.0000   1.0000   1.0000   1.0000   1.0000   1.0000
     1.0000   1.0000   1.0000   1.0000   1.0000   1.0000   1.0000   1.0000
     1.0000   1.0000   1.0000   0.0000   0.0000

          k = 0.0000 0.2887 0.2026 (  2802 PWs)   bands (ev):

   -77.0258 -77.0048 -40.3783 -40.2985 -40.2447 -40.1825 -40.1801 -40.1492
    12.8034  14.3818  15.2125  15.8114  16.1138  16.6556  16.8482  17.2758
    17.6776  17.8509  18.1542  19.8184  31.2183

     occupation numbers 
     1.0000   1.0000   1.0000   1.0000   1.0000   1.0000   1.0000   1.0000
     1.0000   1.0000   1.0000   1.0000   1.0000   1.0000   1.0000   1.0000
     1.0000   1.0000   1.0000   0.0000   0.0000

          k = 0.0000 0.2887-0.3039 (  2800 PWs)   bands (ev):

   -77.0153 -77.0153 -40.3412 -40.3412 -40.2109 -40.2109 -40.1647 -40.1647
    13.6154  13.6154  15.5091  15.5091  16.3647  16.3647  17.0466  17.0466
    17.9230  17.9230  18.5822  18.5822  33.6817

     occupation numbers 
     1.0000   1.0000   1.0000   1.0000   1.0000   1.0000   1.0000   1.0000
     1.0000   1.0000   1.0000   1.0000   1.0000   1.0000   1.0000   1.0000
     1.0000   1.0000   1.0000   1.0000   0.0000

          k = 0.0000 0.3849 0.0000 (  2810 PWs)   bands (ev):

   -77.0215 -76.9891 -40.3728 -40.3543 -40.3077 -40.2150 -40.1827 -40.1463
    13.1821  14.5428  14.8807  15.8641  16.4912  16.4989  16.6217  17.9000
    18.0367  18.0370  18.4036  25.2554  25.8412

     occupation numbers 
     1.0000   1.0000   1.0000   1.0000   1.0000   1.0000   1.0000   1.0000
     1.0000   1.0000   1.0000   1.0000   1.0000   1.0000   1.0000   1.0000
     1.0000   1.0000   1.0000   0.0000   0.0000

          k = 0.0000 0.3849 0.1013 (  2801 PWs)   bands (ev):

   -77.0194 -76.9912 -40.3939 -40.3303 -40.3096 -40.2104 -40.1837 -40.1509
    13.2754  14.5603  14.9249  15.6994  16.4405  16.5836  16.9781  17.9100
    17.9482  17.9730  18.3578  22.9046  28.1399

     occupation numbers 
     1.0000   1.0000   1.0000   1.0000   1.0000   1.0000   1.0000   1.0000
     1.0000   1.0000   1.0000   1.0000   1.0000   1.0000   1.0000   1.0000
     1.0000   1.0000   1.0000   0.0000   0.0000

          k = 0.0000 0.3849 0.2026 (  2809 PWs)   bands (ev):

   -77.0134 -76.9972 -40.4011 -40.3572 -40.2650 -40.1979 -40.1943 -40.1635
    13.5417  14.3647  15.0796  15.5838  16.5685  16.8440  17.3066  17.6206
    18.0170  18.0851  18.2547  20.7085  29.3717

     occupation numbers 
     1.0000   1.0000   1.0000   1.0000   1.0000   1.0000   1.0000   1.0000
     1.0000   1.0000   1.0000   1.0000   1.0000   1.0000   1.0000   1.0000
     1.0000   1.0000   1.0000   0.0000   0.0000

          k = 0.0000 0.3849-0.3039 (  2802 PWs)   bands (ev):

   -77.0053 -77.0053 -40.3867 -40.3867 -40.2221 -40.2221 -40.1807 -40.1807
    13.9388  13.9388  15.3648  15.3648  16.9911  16.9911  17.2202  17.2202
    18.1324  18.1324  19.0641  19.0641  30.4745

     occupation numbers 
     1.0000   1.0000   1.0000   1.0000   1.0000   1.0000   1.0000   1.0000
     1.0000   1.0000   1.0000   1.0000   1.0000   1.0000   1.0000   1.0000
     1.0000   1.0000   0.0068   0.0068   0.0000

          k = 0.0000 0.4811 0.0000 (  2802 PWs)   bands (ev):

   -77.0095 -76.9864 -40.4035 -40.3544 -40.3387 -40.2289 -40.2039 -40.1558
    13.9425  14.3464  14.5672  16.2313  16.3585  16.4775  16.7181  18.2920
    18.4192  18.4215  19.1953  24.1619  27.2932

     occupation numbers 
     1.0000   1.0000   1.0000   1.0000   1.0000   1.0000   1.0000   1.0000
     1.0000   1.0000   1.0000   1.0000   1.0000   1.0000   1.0000   1.0000
     1.0000   1.0000   0.0000   0.0000   0.0000

          k = 0.0000 0.4811 0.1013 (  2804 PWs)   bands (ev):

   -77.0080 -76.9880 -40.4201 -40.3707 -40.3086 -40.2241 -40.2011 -40.1607
    13.8267  14.3304  14.8884  15.5841  16.4706  16.7306  17.3497  18.1877
    18.3171  18.4699  19.0304  23.3102  26.7602

     occupation numbers 
     1.0000   1.0000   1.0000   1.0000   1.0000   1.0000   1.0000   1.0000
     1.0000   1.0000   1.0000   1.0000   1.0000   1.0000   1.0000   1.0000
     1.0000   1.0000   0.8491   0.0000   0.0000

          k = 0.0000 0.4811 0.2026 (  2809 PWs)   bands (ev):

   -77.0037 -76.9922 -40.4337 -40.4015 -40.2615 -40.2107 -40.2035 -40.1741
    13.7863  14.2530  15.0624  15.3723  16.7886  17.0078  17.7679  18.3471
    18.3512  18.4481  18.6841  21.5623  26.9557

     occupation numbers 
     1.0000   1.0000   1.0000   1.0000   1.0000   1.0000   1.0000   1.0000
     1.0000   1.0000   1.0000   1.0000   1.0000   1.0000   1.0000   1.0000
     1.0000   1.0000   1.0000   0.0000   0.0000

          k = 0.0000 0.4811-0.3039 (  2820 PWs)   bands (ev):

   -76.9980 -76.9980 -40.4267 -40.4267 -40.2234 -40.2234 -40.1924 -40.1924
    13.9656  13.9656  15.2332  15.2332  17.2549  17.2549  17.7347  17.7347
    18.4012  18.4012  19.9058  19.9058  27.7266

     occupation numbers 
     1.0000   1.0000   1.0000   1.0000   1.0000   1.0000   1.0000   1.0000
     1.0000   1.0000   1.0000   1.0000   1.0000   1.0000   1.0000   1.0000
     1.0000   1.0000   0.0000   0.0000   0.0000

          k = 0.0000-0.5774 0.0000 (  2818 PWs)   bands (ev):

   -77.0045 -76.9860 -40.4216 -40.3714 -40.3229 -40.2340 -40.2151 -40.1593
    14.1871  14.2122  14.4634  16.3115  16.4254  16.4926  16.7924  18.4267
    18.4340  18.5738  20.3781  22.4447  28.6168

     occupation numbers 
     1.0000   1.0000   1.0000   1.0000   1.0000   1.0000   1.0000   1.0000
     1.0000   1.0000   1.0000   1.0000   1.0000   1.0000   1.0000   1.0000
     1.0000   1.0000   0.0000   0.0000   0.0000

          k = 0.0000-0.5774 0.1013 (  2806 PWs)   bands (ev):

   -77.0033 -76.9873 -40.4347 -40.3868 -40.2990 -40.2290 -40.2101 -40.1643
    13.9224  14.2333  14.9192  15.5550  16.4293  16.8169  17.5620  18.2337
    18.4652  18.5664  20.1542  22.2506  27.8145

     occupation numbers 
     1.0000   1.0000   1.0000   1.0000   1.0000   1.0000   1.0000   1.0000
     1.0000   1.0000   1.0000   1.0000   1.0000   1.0000   1.0000   1.0000
     1.0000   1.0000   0.0000   0.0000   0.0000

          k = 0.0000-0.5774 0.2026 (  2802 PWs)   bands (ev):

   -76.9999 -76.9907 -40.4479 -40.4177 -40.2568 -40.2154 -40.2079 -40.1780
    13.8037  14.2085  15.0924  15.2725  16.7638  17.1512  17.7958  18.4701
    18.4888  18.5460  19.7901  21.6101  26.8119

     occupation numbers 
     1.0000   1.0000   1.0000   1.0000   1.0000   1.0000   1.0000   1.0000
     1.0000   1.0000   1.0000   1.0000   1.0000   1.0000   1.0000   1.0000
     1.0000   1.0000   0.0000   0.0000   0.0000

          k = 0.0000-0.5774-0.3039 (  2812 PWs)   bands (ev):

   -76.9953 -76.9953 -40.4421 -40.4421 -40.2230 -40.2230 -40.1967 -40.1967
    13.9484  13.9484  15.1827  15.1827  17.2550  17.2550  17.9789  17.9789
    18.5177  18.5177  20.5706  20.5706  26.4538

     occupation numbers 
     1.0000   1.0000   1.0000   1.0000   1.0000   1.0000   1.0000   1.0000
     1.0000   1.0000   1.0000   1.0000   1.0000   1.0000   1.0000   1.0000
     1.0000   1.0000   0.0000   0.0000   0.0000

          k = 0.0833 0.1443 0.0000 (  2799 PWs)   bands (ev):

   -77.0533 -77.0019 -40.4485 -40.2029 -40.1796 -40.1535 -40.1462 -40.1208
    10.6954  14.2070  15.9586  16.4007  16.5723  16.7002  16.7986  16.8584
    17.0789  17.1794  18.2857  21.0167  25.3959

     occupation numbers 
     1.0000   1.0000   1.0000   1.0000   1.0000   1.0000   1.0000   1.0000
     1.0000   1.0000   1.0000   1.0000   1.0000   1.0000   1.0000   1.0000
     1.0000   1.0000   1.0000   0.0000   0.0000

          k = 0.0833 0.1443 0.1013 (  2804 PWs)   bands (ev):

   -77.0499 -77.0053 -40.4302 -40.1983 -40.1886 -40.1682 -40.1424 -40.1243
    10.9551  14.1721  15.9887  16.0660  16.4143  16.6545  16.7342  16.9475
    17.2301  17.2997  18.2511  20.0315  27.0935

     occupation numbers 
     1.0000   1.0000   1.0000   1.0000   1.0000   1.0000   1.0000   1.0000
     1.0000   1.0000   1.0000   1.0000   1.0000   1.0000   1.0000   1.0000
     1.0000   1.0000   1.0000   0.0000   0.0000

          k = 0.0833 0.1443 0.2026 (  2806 PWs)   bands (ev):

   -77.0405 -77.0148 -40.3800 -40.2404 -40.1860 -40.1645 -40.1484 -40.1336
    11.6978  13.7901  15.6675  16.0475  16.0981  16.5631  16.6239  16.8095
    17.5803  17.6487  18.1271  18.8621  30.3820

     occupation numbers 
     1.0000   1.0000   1.0000   1.0000   1.0000   1.0000   1.0000   1.0000
     1.0000   1.0000   1.0000   1.0000   1.0000   1.0000   1.0000   1.0000
     1.0000   1.0000   1.0000   1.0000   0.0000

          k = 0.0833 0.1443-0.3039 (  2818 PWs)   bands (ev):

   -77.0276 -77.0276 -40.3109 -40.3109 -40.1704 -40.1704 -40.1455 -40.1455
    12.7789  12.7789  15.7256  15.7256  16.3050  16.3050  16.6719  16.6719
    17.8828  17.8828  18.1647  18.1647  34.2063

     occupation numbers 
     1.0000   1.0000   1.0000   1.0000   1.0000   1.0000   1.0000   1.0000
     1.0000   1.0000   1.0000   1.0000   1.0000   1.0000   1.0000   1.0000
     1.0000   1.0000   1.0000   1.0000   0.0000

          k = 0.0833 0.2406 0.0000 (  2791 PWs)   bands (ev):

   -77.0415 -76.9964 -40.4219 -40.2561 -40.2270 -40.1817 -40.1576 -40.1346
    11.6028  14.5988  15.6775  15.6882  16.4285  16.6183  16.9696  17.0287
    17.2411  17.5153  18.3246  22.6287  25.6232

     occupation numbers 
     1.0000   1.0000   1.0000   1.0000   1.0000   1.0000   1.0000   1.0000
     1.0000   1.0000   1.0000   1.0000   1.0000   1.0000   1.0000   1.0000
     1.0000   1.0000   1.0000   0.0000   0.0000

          k = 0.0833 0.2406 0.1013 (  2793 PWs)   bands (ev):

   -77.0385 -76.9995 -40.4097 -40.2497 -40.2370 -40.1863 -40.1582 -40.1383
    11.8346  14.6230  15.4681  15.7402  16.3172  16.5950  16.8517  17.1414
    17.4276  17.4906  18.2857  21.2126  27.6183

     occupation numbers 
     1.0000   1.0000   1.0000   1.0000   1.0000   1.0000   1.0000   1.0000
     1.0000   1.0000   1.0000   1.0000   1.0000   1.0000   1.0000   1.0000
     1.0000   1.0000   1.0000   0.0000   0.0000

          k = 0.0833 0.2406 0.2026 (  2795 PWs)   bands (ev):

   -77.0302 -77.0077 -40.3757 -40.2771 -40.2266 -40.1876 -40.1646 -40.1483
    12.4897  14.3221  15.2979  15.8517  16.0377  16.4701  16.8213  17.1431
    17.6700  17.7708  18.1633  19.5520  31.0042

     occupation numbers 
     1.0000   1.0000   1.0000   1.0000   1.0000   1.0000   1.0000   1.0000
     1.0000   1.0000   1.0000   1.0000   1.0000   1.0000   1.0000   1.0000
     1.0000   1.0000   1.0000   0.0000   0.0000

          k = 0.0833 0.2406-0.3039 (  2812 PWs)   bands (ev):

   -77.0190 -77.0190 -40.3275 -40.3275 -40.2019 -40.2019 -40.1607 -40.1607
    13.4253  13.4253  15.5731  15.5731  16.1907  16.1907  16.9658  16.9658
    17.9278  17.9278  18.4603  18.4603  34.6943

     occupation numbers 
     1.0000   1.0000   1.0000   1.0000   1.0000   1.0000   1.0000   1.0000
     1.0000   1.0000   1.0000   1.0000   1.0000   1.0000   1.0000   1.0000
     1.0000   1.0000   1.0000   1.0000   0.0000

          k = 0.0833 0.3368 0.0000 (  2800 PWs)   bands (ev):

   -77.0271 -76.9908 -40.3873 -40.3211 -40.2843 -40.2086 -40.1747 -40.1496
    12.7687  14.7218  15.0996  15.6288  16.4195  16.4243  16.8136  17.4050
    17.7660  18.1061  18.3561  24.4840  25.9840

     occupation numbers 
     1.0000   1.0000   1.0000   1.0000   1.0000   1.0000   1.0000   1.0000
     1.0000   1.0000   1.0000   1.0000   1.0000   1.0000   1.0000   1.0000
     1.0000   1.0000   1.0000   0.0000   0.0000

          k = 0.0833 0.3368 0.1013 (  2800 PWs)   bands (ev):

   -77.0247 -76.9933 -40.3905 -40.3088 -40.2893 -40.2085 -40.1753 -40.1531
    12.9281  14.7747  15.0142  15.6741  16.2258  16.6498  16.7779  17.4433
    17.8498  17.9590  18.3744  22.4848  28.3909

     occupation numbers 
     1.0000   1.0000   1.0000   1.0000   1.0000   1.0000   1.0000   1.0000
     1.0000   1.0000   1.0000   1.0000   1.0000   1.0000   1.0000   1.0000
     1.0000   1.0000   1.0000   0.0000   0.0000

          k = 0.0833 0.3368 0.2026 (  2798 PWs)   bands (ev):

   -77.0180 -76.9999 -40.3855 -40.3315 -40.2581 -40.2056 -40.1820 -40.1632
    13.3604  14.5056  15.1441  15.7241  16.1508  16.6411  16.8774  17.4739
    17.8971  18.0691  18.3476  20.4099  30.9902

     occupation numbers 
     1.0000   1.0000   1.0000   1.0000   1.0000   1.0000   1.0000   1.0000
     1.0000   1.0000   1.0000   1.0000   1.0000   1.0000   1.0000   1.0000
     1.0000   1.0000   1.0000   0.0000   0.0000

          k = 0.0833 0.3368-0.3039 (  2806 PWs)   bands (ev):

   -77.0090 -77.0090 -40.3639 -40.3639 -40.2217 -40.2217 -40.1773 -40.1773
    13.9415  13.9415  15.4802  15.4802  16.3804  16.3804  17.1574  17.1574
    18.1460  18.1460  18.9218  18.9218  32.2051

     occupation numbers 
     1.0000   1.0000   1.0000   1.0000   1.0000   1.0000   1.0000   1.0000
     1.0000   1.0000   1.0000   1.0000   1.0000   1.0000   1.0000   1.0000
     1.0000   1.0000   1.0000   1.0000   0.0000

          k = 0.0833 0.4330 0.0000 (  2810 PWs)   bands (ev):

   -77.0135 -76.9871 -40.3785 -40.3507 -40.3338 -40.2303 -40.1960 -40.1625
    13.7862  14.5356  14.7116  15.8675  16.2974  16.5925  16.6272  17.9574
    18.2120  18.3742  18.9270  25.4578  26.4987

     occupation numbers 
     1.0000   1.0000   1.0000   1.0000   1.0000   1.0000   1.0000   1.0000
     1.0000   1.0000   1.0000   1.0000   1.0000   1.0000   1.0000   1.0000
     1.0000   1.0000   1.0000   0.0000   0.0000

          k = 0.0833 0.4330 0.1013 (  2803 PWs)   bands (ev):

   -77.0118 -76.9888 -40.4010 -40.3522 -40.3111 -40.2273 -40.1944 -40.1658
    13.7713  14.5440  14.8767  15.6003  16.3736  16.6901  16.9375  17.9084
    18.1960  18.2704  18.9232  23.5907  27.3405

     occupation numbers 
     1.0000   1.0000   1.0000   1.0000   1.0000   1.0000   1.0000   1.0000
     1.0000   1.0000   1.0000   1.0000   1.0000   1.0000   1.0000   1.0000
     1.0000   1.0000   1.0000   0.0000   0.0000

          k = 0.0833 0.4330 0.2026 (  2801 PWs)   bands (ev):

   -77.0069 -76.9937 -40.4145 -40.3808 -40.2653 -40.2183 -40.1981 -40.1747
    13.8421  14.4063  15.0711  15.5363  16.4802  16.9215  17.3496  17.6565
    18.0803  18.4176  18.9797  21.4455  28.0860

     occupation numbers 
     1.0000   1.0000   1.0000   1.0000   1.0000   1.0000   1.0000   1.0000
     1.0000   1.0000   1.0000   1.0000   1.0000   1.0000   1.0000   1.0000
     1.0000   1.0000   1.0000   0.0000   0.0000

          k = 0.0833 0.4330-0.3039 (  2814 PWs)   bands (ev):

   -77.0003 -77.0003 -40.4061 -40.4061 -40.2298 -40.2298 -40.1899 -40.1899
    14.0787  14.0787  15.3493  15.3493  16.9213  16.9213  17.3259  17.3259
    18.3638  18.3638  19.7866  19.7866  29.1118

     occupation numbers 
     1.0000   1.0000   1.0000   1.0000   1.0000   1.0000   1.0000   1.0000
     1.0000   1.0000   1.0000   1.0000   1.0000   1.0000   1.0000   1.0000
     1.0000   1.0000   0.0000   0.0000   0.0000

          k = 0.0833 0.5292 0.0000 (  2808 PWs)   bands (ev):

   -77.0046 -76.9860 -40.4117 -40.3623 -40.3231 -40.2424 -40.2149 -40.1700
    14.2296  14.3688  14.5185  16.2462  16.2649  16.4320  16.7906  18.3612
    18.3814  18.4436  20.2241  23.2248  28.4237

     occupation numbers 
     1.0000   1.0000   1.0000   1.0000   1.0000   1.0000   1.0000   1.0000
     1.0000   1.0000   1.0000   1.0000   1.0000   1.0000   1.0000   1.0000
     1.0000   1.0000   0.0000   0.0000   0.0000

          k = 0.0833 0.5292 0.1013 (  2811 PWs)   bands (ev):

   -77.0033 -76.9873 -40.4251 -40.3782 -40.3002 -40.2364 -40.2111 -40.1733
    14.0078  14.3697  14.9600  15.5403  16.3094  16.8699  17.2222  18.1743
    18.3728  18.4718  20.1491  22.9342  27.2471

     occupation numbers 
     1.0000   1.0000   1.0000   1.0000   1.0000   1.0000   1.0000   1.0000
     1.0000   1.0000   1.0000   1.0000   1.0000   1.0000   1.0000   1.0000
     1.0000   1.0000   0.0000   0.0000   0.0000

          k = 0.0833 0.5292 0.2026 (  2814 PWs)   bands (ev):

   -76.9999 -76.9907 -40.4385 -40.4090 -40.2629 -40.2207 -40.2119 -40.1812
    13.9114  14.3396  15.1018  15.3869  16.4807  17.2248  17.6266  17.9134
    18.3324  18.5305  20.1706  22.0311  26.5914

     occupation numbers 
     1.0000   1.0000   1.0000   1.0000   1.0000   1.0000   1.0000   1.0000
     1.0000   1.0000   1.0000   1.0000   1.0000   1.0000   1.0000   1.0000
     1.0000   1.0000   0.0000   0.0000   0.0000

          k = 0.0833 0.5292-0.3039 (  2806 PWs)   bands (ev):

   -76.9953 -76.9953 -40.4330 -40.4330 -40.2334 -40.2334 -40.1956 -40.1956
    14.0655  14.0655  15.2596  15.2596  17.0277  17.0277  17.7680  17.7680
    18.4060  18.4060  20.8941  20.8941  26.8758

     occupation numbers 
     1.0000   1.0000   1.0000   1.0000   1.0000   1.0000   1.0000   1.0000
     1.0000   1.0000   1.0000   1.0000   1.0000   1.0000   1.0000   1.0000
     1.0000   1.0000   0.0000   0.0000   0.0000

          k = 0.1667 0.2887 0.0000 (  2798 PWs)   bands (ev):

   -77.0291 -76.9915 -40.3923 -40.2954 -40.2863 -40.2017 -40.1720 -40.1583
    12.6232  14.9185  15.2161  15.3858  16.3388  16.4324  16.9229  17.1410
    17.7516  18.1326  18.3127  24.2242  26.0186

     occupation numbers 
     1.0000   1.0000   1.0000   1.0000   1.0000   1.0000   1.0000   1.0000
     1.0000   1.0000   1.0000   1.0000   1.0000   1.0000   1.0000   1.0000
     1.0000   1.0000   1.0000   0.0000   0.0000

          k = 0.1667 0.2887 0.1013 (  2793 PWs)   bands (ev):

   -77.0266 -76.9940 -40.3905 -40.2944 -40.2809 -40.2100 -40.1681 -40.1622
    12.8050  15.0114  15.0687  15.4397  16.2870  16.4417  16.8150  17.2519
    17.8654  17.9466  18.3885  22.3478  28.3641

     occupation numbers 
     1.0000   1.0000   1.0000   1.0000   1.0000   1.0000   1.0000   1.0000
     1.0000   1.0000   1.0000   1.0000   1.0000   1.0000   1.0000   1.0000
     1.0000   1.0000   1.0000   0.0000   0.0000

          k = 0.1667 0.2887 0.2026 (  2803 PWs)   bands (ev):

   -77.0197 -77.0009 -40.3790 -40.3202 -40.2492 -40.2153 -40.1715 -40.1712
    13.3035  14.6277  15.2652  15.5930  16.0859  16.3078  16.8240  17.4087
    17.8962  18.0618  18.4248  20.3356  31.7270

     occupation numbers 
     1.0000   1.0000   1.0000   1.0000   1.0000   1.0000   1.0000   1.0000
     1.0000   1.0000   1.0000   1.0000   1.0000   1.0000   1.0000   1.0000
     1.0000   1.0000   1.0000   0.0000   0.0000

          k = 0.1667 0.2887-0.3039 (  2810 PWs)   bands (ev):

   -77.0103 -77.0103 -40.3535 -40.3535 -40.2220 -40.2220 -40.1779 -40.1779
    13.9786  13.9786  15.5829  15.5829  16.0310  16.0310  17.1031  17.1031
    18.1960  18.1960  18.9046  18.9046  33.9328

     occupation numbers 
     1.0000   1.0000   1.0000   1.0000   1.0000   1.0000   1.0000   1.0000
     1.0000   1.0000   1.0000   1.0000   1.0000   1.0000   1.0000   1.0000
     1.0000   1.0000   1.0000   1.0000   0.0000

          k = 0.1667 0.3849 0.0000 (  2805 PWs)   bands (ev):

   -77.0158 -76.9875 -40.3572 -40.3462 -40.3244 -40.2317 -40.1919 -40.1813
    13.7387  14.8604  14.8928  15.3713  16.1694  16.5763  16.7126  17.4736
    18.2053  18.2986  18.9701  26.1026  26.4660

     occupation numbers 
     1.0000   1.0000   1.0000   1.0000   1.0000   1.0000   1.0000   1.0000
     1.0000   1.0000   1.0000   1.0000   1.0000   1.0000   1.0000   1.0000
     1.0000   1.0000   1.0000   0.0000   0.0000

          k = 0.1667 0.3849 0.1013 (  2804 PWs)   bands (ev):

   -77.0139 -76.9894 -40.3819 -40.3421 -40.3004 -40.2382 -40.1903 -40.1797
    13.8097  14.7938  14.9869  15.4510  16.2067  16.5768  16.6707  17.5207
    18.0933  18.2917  19.0472  23.6597  28.7604

     occupation numbers 
     1.0000   1.0000   1.0000   1.0000   1.0000   1.0000   1.0000   1.0000
     1.0000   1.0000   1.0000   1.0000   1.0000   1.0000   1.0000   1.0000
     1.0000   1.0000   0.2367   0.0000   0.0000

          k = 0.1667 0.3849 0.2026 (  2816 PWs)   bands (ev):

   -77.0087 -76.9946 -40.3941 -40.3631 -40.2618 -40.2388 -40.1960 -40.1788
    14.0078  14.5887  15.2301  15.6696  16.1162  16.4250  16.8179  17.5180
    18.0049  18.4385  19.2200  21.4689  29.8160

     occupation numbers 
     1.0000   1.0000   1.0000   1.0000   1.0000   1.0000   1.0000   1.0000
     1.0000   1.0000   1.0000   1.0000   1.0000   1.0000   1.0000   1.0000
     1.0000   1.0000   0.0000   0.0000   0.0000

          k = 0.1667 0.3849-0.3039 (  2808 PWs)   bands (ev):

   -77.0016 -77.0016 -40.3857 -40.3857 -40.2405 -40.2405 -40.1901 -40.1901
    14.2919  14.2919  15.5648  15.5648  16.2074  16.2074  17.1032  17.1032
    18.4127  18.4127  19.8915  19.8915  30.9471

     occupation numbers 
     1.0000   1.0000   1.0000   1.0000   1.0000   1.0000   1.0000   1.0000
     1.0000   1.0000   1.0000   1.0000   1.0000   1.0000   1.0000   1.0000
     1.0000   1.0000   0.0000   0.0000   0.0000

          k = 0.1667 0.4811 0.0000 (  2814 PWs)   bands (ev):

   -77.0046 -76.9860 -40.3862 -40.3446 -40.3235 -40.2593 -40.2145 -40.1971
    14.4347  14.6434  14.6810  15.6967  16.1278  16.4775  16.7861  17.9179
    18.2880  18.4198  20.1761  24.9093  28.1386

     occupation numbers 
     1.0000   1.0000   1.0000   1.0000   1.0000   1.0000   1.0000   1.0000
     1.0000   1.0000   1.0000   1.0000   1.0000   1.0000   1.0000   1.0000
     1.0000   1.0000   0.0000   0.0000   0.0000

          k = 0.1667 0.4811 0.1013 (  2808 PWs)   bands (ev):

   -77.0034 -76.9872 -40.4000 -40.3629 -40.2999 -40.2555 -40.2143 -40.1923
    14.2598  14.7312  14.9284  15.4922  16.1774  16.6223  16.8798  17.9070
    18.0989  18.4794  20.2527  24.2831  27.0980

     occupation numbers 
     1.0000   1.0000   1.0000   1.0000   1.0000   1.0000   1.0000   1.0000
     1.0000   1.0000   1.0000   1.0000   1.0000   1.0000   1.0000   1.0000
     1.0000   1.0000   0.0000   0.0000   0.0000

          k = 0.1667 0.4811 0.2026 (  2813 PWs)   bands (ev):

   -77.0000 -76.9906 -40.4148 -40.3904 -40.2765 -40.2434 -40.2137 -40.1859
    14.2094  14.6446  15.1243  15.6564  16.0735  16.7619  17.1251  17.5979
    18.1025  18.5517  20.5491  22.7249  27.2353

     occupation numbers 
     1.0000   1.0000   1.0000   1.0000   1.0000   1.0000   1.0000   1.0000
     1.0000   1.0000   1.0000   1.0000   1.0000   1.0000   1.0000   1.0000
     1.0000   1.0000   0.0000   0.0000   0.0000

          k = 0.1667 0.4811-0.3039 (  2808 PWs)   bands (ev):

   -76.9953 -76.9953 -40.4115 -40.4115 -40.2564 -40.2564 -40.1945 -40.1945
    14.3616  14.3616  15.4559  15.4559  16.4824  16.4824  17.2902  17.2902
    18.4164  18.4164  21.3343  21.3343  28.1044

     occupation numbers 
     1.0000   1.0000   1.0000   1.0000   1.0000   1.0000   1.0000   1.0000
     1.0000   1.0000   1.0000   1.0000   1.0000   1.0000   1.0000   1.0000
     1.0000   1.0000   0.0000   0.0000   0.0000

          k = 0.1667 0.5774 0.0000 (  2816 PWs)   bands (ev):

   -76.9998 -76.9862 -40.4007 -40.3511 -40.3065 -40.2705 -40.2274 -40.2027
    14.5711  14.5760  14.6070  15.9270  16.1634  16.3411  16.8761  18.2216
    18.2839  18.3829  21.4525  23.0712  29.5809

     occupation numbers 
     1.0000   1.0000   1.0000   1.0000   1.0000   1.0000   1.0000   1.0000
     1.0000   1.0000   1.0000   1.0000   1.0000   1.0000   1.0000   1.0000
     1.0000   1.0000   0.0000   0.0000   0.0000

          k = 0.1667 0.5774 0.1013 (  2812 PWs)   bands (ev):

   -76.9988 -76.9871 -40.4115 -40.3679 -40.3001 -40.2528 -40.2288 -40.1976
    14.2776  14.6464  15.0956  15.4712  16.0971  16.7482  16.9763  18.0720
    18.2188  18.4304  21.5391  23.0083  28.3556

     occupation numbers 
     1.0000   1.0000   1.0000   1.0000   1.0000   1.0000   1.0000   1.0000
     1.0000   1.0000   1.0000   1.0000   1.0000   1.0000   1.0000   1.0000
     1.0000   1.0000   0.0000   0.0000   0.0000

          k = 0.1667 0.5774 0.2026 (  2808 PWs)   bands (ev):

   -76.9964 -76.9896 -40.4246 -40.3990 -40.2841 -40.2419 -40.2196 -40.1892
    14.2042  14.6559  15.1646  15.6070  15.9903  16.9628  17.2579  17.6679
    18.2372  18.4687  21.8207  22.7715  27.1200

     occupation numbers 
     1.0000   1.0000   1.0000   1.0000   1.0000   1.0000   1.0000   1.0000
     1.0000   1.0000   1.0000   1.0000   1.0000   1.0000   1.0000   1.0000
     1.0000   1.0000   0.0000   0.0000   0.0000

          k = 0.1667 0.5774-0.3039 (  2802 PWs)   bands (ev):

   -76.9930 -76.9930 -40.4212 -40.4212 -40.2627 -40.2627 -40.1952 -40.1952
    14.3645  14.3645  15.4146  15.4146  16.5207  16.5207  17.5027  17.5027
    18.3522  18.3522  22.3086  22.3086  26.6578

     occupation numbers 
     1.0000   1.0000   1.0000   1.0000   1.0000   1.0000   1.0000   1.0000
     1.0000   1.0000   1.0000   1.0000   1.0000   1.0000   1.0000   1.0000
     1.0000   1.0000   0.0000   0.0000   0.0000

          k = 0.2500 0.4330 0.0000 (  2814 PWs)   bands (ev):

   -77.0047 -76.9859 -40.3641 -40.3434 -40.3237 -40.2628 -40.2173 -40.2143
    14.5845  14.7163  15.1099  15.1305  16.0452  16.5059  16.7944  17.6613
    18.2396  18.4207  20.1938  26.6385  27.5219

     occupation numbers 
     1.0000   1.0000   1.0000   1.0000   1.0000   1.0000   1.0000   1.0000
     1.0000   1.0000   1.0000   1.0000   1.0000   1.0000   1.0000   1.0000
     1.0000   1.0000   0.0000   0.0000   0.0000

          k = 0.2500 0.4330 0.1013 (  2815 PWs)   bands (ev):

   -77.0034 -76.9872 -40.3744 -40.3684 -40.2873 -40.2755 -40.2196 -40.2000
    14.5797  14.6677  15.1405  15.2861  16.1961  16.3536  16.8011  17.7094
    18.0398  18.4854  20.3120  25.0179  27.7977

     occupation numbers 
     1.0000   1.0000   1.0000   1.0000   1.0000   1.0000   1.0000   1.0000
     1.0000   1.0000   1.0000   1.0000   1.0000   1.0000   1.0000   1.0000
     1.0000   1.0000   0.0000   0.0000   0.0000

          k = 0.2500 0.4330 0.2026 (  2804 PWs)   bands (ev):

   -77.0000 -76.9906 -40.3967 -40.3834 -40.2807 -40.2625 -40.2142 -40.1876
    14.5600  14.6098  15.3058  15.6633  16.0226  16.3037  16.8545  17.5010
    18.0678  18.5602  20.6743  23.0003  28.5614

     occupation numbers 
     1.0000   1.0000   1.0000   1.0000   1.0000   1.0000   1.0000   1.0000
     1.0000   1.0000   1.0000   1.0000   1.0000   1.0000   1.0000   1.0000
     1.0000   1.0000   0.0000   0.0000   0.0000

          k = 0.2500 0.4330-0.3039 (  2804 PWs)   bands (ev):

   -76.9953 -76.9953 -40.3980 -40.3980 -40.2703 -40.2703 -40.1941 -40.1941
    14.5692  14.5692  15.6235  15.6235  16.0918  16.0918  17.0744  17.0744
    18.4366  18.4366  21.4989  21.4989  29.5654

     occupation numbers 
     1.0000   1.0000   1.0000   1.0000   1.0000   1.0000   1.0000   1.0000
     1.0000   1.0000   1.0000   1.0000   1.0000   1.0000   1.0000   1.0000
     1.0000   1.0000   0.0000   0.0000   0.0000

          k = 0.2500 0.5292 0.0000 (  2818 PWs)   bands (ev):

   -76.9965 -76.9868 -40.3771 -40.3347 -40.2950 -40.2939 -40.2406 -40.2376
    14.6534  14.8733  14.9603  15.4705  16.0618  16.2874  16.9672  17.9587
    18.2050  18.3412  21.8819  24.4941  26.8590

     occupation numbers 
     1.0000   1.0000   1.0000   1.0000   1.0000   1.0000   1.0000   1.0000
     1.0000   1.0000   1.0000   1.0000   1.0000   1.0000   1.0000   1.0000
     1.0000   1.0000   0.0000   0.0000   0.0000

          k = 0.2500 0.5292 0.1013 (  2813 PWs)   bands (ev):

   -76.9958 -76.9875 -40.3834 -40.3563 -40.3131 -40.2654 -40.2446 -40.2160
    14.5981  14.9907  15.0810  15.3580  16.0846  16.2962  16.9847  17.9599
    18.0224  18.3880  22.0622  24.4929  26.8625

     occupation numbers 
     1.0000   1.0000   1.0000   1.0000   1.0000   1.0000   1.0000   1.0000
     1.0000   1.0000   1.0000   1.0000   1.0000   1.0000   1.0000   1.0000
     1.0000   1.0000   0.0000   0.0000   0.0000

          k = 0.2500 0.5292 0.2026 (  2801 PWs)   bands (ev):

   -76.9940 -76.9892 -40.3982 -40.3837 -40.3122 -40.2735 -40.2154 -40.1954
    14.6102  14.9700  15.2326  15.5490  15.9342  16.3232  17.0485  17.5190
    18.1484  18.4349  22.5435  24.1454  26.7599

     occupation numbers 
     1.0000   1.0000   1.0000   1.0000   1.0000   1.0000   1.0000   1.0000
     1.0000   1.0000   1.0000   1.0000   1.0000   1.0000   1.0000   1.0000
     1.0000   1.0000   0.0000   0.0000   0.0000

          k = 0.2500 0.5292-0.3039 (  2802 PWs)   bands (ev):

   -76.9916 -76.9916 -40.4004 -40.4004 -40.2944 -40.2944 -40.1943 -40.1943
    14.7459  14.7459  15.5234  15.5234  16.0946  16.0946  17.1846  17.1846
    18.3460  18.3460  23.2955  23.2955  27.3025

     occupation numbers 
     1.0000   1.0000   1.0000   1.0000   1.0000   1.0000   1.0000   1.0000
     1.0000   1.0000   1.0000   1.0000   1.0000   1.0000   1.0000   1.0000
     1.0000   1.0000   0.0000   0.0000   0.0000

          k = 0.3333 0.5774 0.0000 (  2820 PWs)   bands (ev):

   -76.9903 -76.9903 -40.3649 -40.3180 -40.3180 -40.2687 -40.2646 -40.2646
    14.6715  15.0777  15.0777  15.3355  16.1212  16.1212  17.0682  18.1142
    18.1142  18.1720  23.6404  24.5074  24.5074

     occupation numbers 
     1.0000   1.0000   1.0000   1.0000   1.0000   1.0000   1.0000   1.0000
     1.0000   1.0000   1.0000   1.0000   1.0000   1.0000   1.0000   1.0000
     1.0000   1.0000   0.0000   0.0000   0.0000

          k = 0.3333 0.5774 0.1013 (  2829 PWs)   bands (ev):

   -76.9903 -76.9903 -40.3585 -40.3450 -40.3450 -40.2752 -40.2374 -40.2374
    14.7652  15.0922  15.0922  15.3519  16.0979  16.0979  17.0438  17.9463
    18.1622  18.1622  24.0309  24.5711  24.5711

     occupation numbers 
     1.0000   1.0000   1.0000   1.0000   1.0000   1.0000   1.0000   1.0000
     1.0000   1.0000   1.0000   1.0000   1.0000   1.0000   1.0000   1.0000
     1.0000   1.0000   0.0000   0.0000   0.0000

          k = 0.3333 0.5774 0.2026 (  2811 PWs)   bands (ev):

   -76.9903 -76.9903 -40.3763 -40.3763 -40.3409 -40.2928 -40.2059 -40.2059
    15.0041  15.1190  15.1190  15.3598  16.0582  16.0582  17.0161  17.4797
    18.2547  18.2547  24.7284  24.7284  25.0376

     occupation numbers 
     1.0000   1.0000   1.0000   1.0000   1.0000   1.0000   1.0000   1.0000
     1.0000   1.0000   1.0000   1.0000   1.0000   1.0000   1.0000   1.0000
     1.0000   1.0000   0.0000   0.0000   0.0000

          k = 0.3333 0.5774-0.3039 (  2784 PWs)   bands (ev):

   -76.9903 -76.9903 -40.3882 -40.3882 -40.3169 -40.3169 -40.1938 -40.1938
    15.1311  15.1311  15.2525  15.2525  16.0417  16.0417  17.1217  17.1217
    18.2994  18.2994  24.8287  24.8287  26.4297

     occupation numbers 
     1.0000   1.0000   1.0000   1.0000   1.0000   1.0000   1.0000   1.0000
     1.0000   1.0000   1.0000   1.0000   1.0000   1.0000   1.0000   1.0000
     1.0000   1.0000   0.0000   0.0000   0.0000

 ------ SPIN DOWN ----------


          k = 0.0000 0.0000 0.0000 (  2779 PWs)   bands (ev):

   -74.9794 -74.9185 -38.4486 -38.1285 -38.1285 -38.0862 -38.0794 -38.0794
     9.9711  14.7130  17.9505  18.0965  18.0965  18.4527  18.4527  18.5735
    18.9797  18.9797  20.1694  20.1694  26.3276

     occupation numbers 
     1.0000   1.0000   1.0000   1.0000   1.0000   1.0000   1.0000   1.0000
     1.0000   1.0000   1.0000   1.0000   1.0000   1.0000   1.0000   1.0000
     1.0000   1.0000   0.0000   0.0000   0.0000

          k = 0.0000 0.0000 0.1013 (  2803 PWs)   bands (ev):

   -74.9753 -74.9226 -38.4247 -38.1252 -38.1252 -38.1108 -38.0827 -38.0827
    10.2466  14.4718  17.8605  18.0207  18.0412  18.0412  18.3755  18.3755
    19.1431  19.1431  20.1493  20.1493  27.6103

     occupation numbers 
     1.0000   1.0000   1.0000   1.0000   1.0000   1.0000   1.0000   1.0000
     1.0000   1.0000   1.0000   1.0000   1.0000   1.0000   1.0000   1.0000
     0.0000   0.0000   0.0000   0.0000   0.0000

          k = 0.0000 0.0000 0.2026 (  2834 PWs)   bands (ev):

   -74.9642 -74.9338 -38.3591 -38.1779 -38.1163 -38.1163 -38.0917 -38.0917
    11.0432  13.5783  17.4204  17.6326  17.9934  17.9934  18.2045  18.2045
    19.4839  19.4839  20.0488  20.0488  30.5348

     occupation numbers 
     1.0000   1.0000   1.0000   1.0000   1.0000   1.0000   1.0000   1.0000
     1.0000   1.0000   1.0000   1.0000   1.0000   1.0000   1.0000   1.0000
     0.0000   0.0000   0.0000   0.0000   0.0000

          k = 0.0000 0.0000-0.3039 (  2810 PWs)   bands (ev):

   -74.9490 -74.9490 -38.2688 -38.2688 -38.1040 -38.1040 -38.1040 -38.1040
    12.2497  12.2497  17.3988  17.3988  18.0513  18.0513  18.0513  18.0513
    19.8194  19.8194  19.8194  19.8194  34.1420

     occupation numbers 
     1.0000   1.0000   1.0000   1.0000   1.0000   1.0000   1.0000   1.0000
     1.0000   1.0000   1.0000   1.0000   1.0000   1.0000   1.0000   1.0000
     0.0000   0.0000   0.0000   0.0000   0.0000

          k = 0.0000 0.0962 0.0000 (  2805 PWs)   bands (ev):

   -74.9756 -74.9166 -38.4404 -38.1477 -38.1345 -38.0992 -38.0892 -38.0827
    10.2200  14.8876  17.7687  18.0048  18.2240  18.2270  18.3798  18.5695
    18.8922  18.8943  20.2041  20.9690  26.3430

     occupation numbers 
     1.0000   1.0000   1.0000   1.0000   1.0000   1.0000   1.0000   1.0000
     1.0000   1.0000   1.0000   1.0000   1.0000   1.0000   1.0000   1.0000
     1.0000   1.0000   0.0000   0.0000   0.0000

          k = 0.0000 0.0962 0.1013 (  2807 PWs)   bands (ev):

   -74.9716 -74.9205 -38.4179 -38.1439 -38.1311 -38.1218 -38.0936 -38.0862
    10.4918  14.6585  17.5986  17.7643  18.0459  18.1577  18.3843  18.4856
    19.0836  19.0898  20.1752  20.6441  27.6935

     occupation numbers 
     1.0000   1.0000   1.0000   1.0000   1.0000   1.0000   1.0000   1.0000
     1.0000   1.0000   1.0000   1.0000   1.0000   1.0000   1.0000   1.0000
     0.0000   0.0000   0.0000   0.0000   0.0000

          k = 0.0000 0.0962 0.2026 (  2818 PWs)   bands (ev):

   -74.9609 -74.9314 -38.3559 -38.1850 -38.1332 -38.1216 -38.1043 -38.0957
    11.2774  13.7799  17.2158  17.6305  17.8787  18.1008  18.2090  18.3124
    19.4484  19.4795  20.0543  20.2415  30.6757

     occupation numbers 
     1.0000   1.0000   1.0000   1.0000   1.0000   1.0000   1.0000   1.0000
     1.0000   1.0000   1.0000   1.0000   1.0000   1.0000   1.0000   1.0000
     0.0000   0.0000   0.0000   0.0000   0.0000

          k = 0.0000 0.0962-0.3039 (  2808 PWs)   bands (ev):

   -74.9461 -74.9461 -38.2708 -38.2708 -38.1188 -38.1188 -38.1086 -38.1086
    12.4673  12.4673  17.3183  17.3183  17.9986  17.9986  18.1582  18.1582
    19.8032  19.8032  19.8801  19.8801  34.3096

     occupation numbers 
     1.0000   1.0000   1.0000   1.0000   1.0000   1.0000   1.0000   1.0000
     1.0000   1.0000   1.0000   1.0000   1.0000   1.0000   1.0000   1.0000
     0.0000   0.0000   0.0000   0.0000   0.0000

          k = 0.0000 0.1925 0.0000 (  2793 PWs)   bands (ev):

   -74.9650 -74.9114 -38.4171 -38.2002 -38.1526 -38.1507 -38.0982 -38.0920
    10.9438  15.3370  17.1920  17.4302  18.1251  18.5558  18.5979  18.6854
    18.6984  18.8982  20.2757  22.4206  26.4076

     occupation numbers 
     1.0000   1.0000   1.0000   1.0000   1.0000   1.0000   1.0000   1.0000
     1.0000   1.0000   1.0000   1.0000   1.0000   1.0000   1.0000   1.0000
     1.0000   1.0000   0.0000   0.0000   0.0000

          k = 0.0000 0.1925 0.1013 (  2803 PWs)   bands (ev):

   -74.9614 -74.9150 -38.3991 -38.1945 -38.1681 -38.1468 -38.1070 -38.0959
    11.2023  15.1482  16.9526  17.4741  18.0078  18.3180  18.4336  18.7712
    19.0211  19.0509  20.2272  21.6501  27.9754

     occupation numbers 
     1.0000   1.0000   1.0000   1.0000   1.0000   1.0000   1.0000   1.0000
     1.0000   1.0000   1.0000   1.0000   1.0000   1.0000   1.0000   1.0000
     0.9770   0.1356   0.0000   0.0000   0.0000

          k = 0.0000 0.1925 0.2026 (  2806 PWs)   bands (ev):

   -74.9516 -74.9248 -38.3498 -38.2164 -38.1758 -38.1360 -38.1277 -38.1067
[...]
    20.3459  20.3543  21.5623  24.1328  28.9379

     occupation numbers 
     1.0000   1.0000   1.0000   1.0000   1.0000   1.0000   1.0000   1.0000
     1.0000   1.0000   1.0000   1.0000   1.0000   1.0000   1.0000   0.0000
     0.0000   0.0000   0.0000   0.0000   0.0000

          k = 0.0833 0.5292 0.1013 (  2811 PWs)   bands (ev):

   -74.9146 -74.8973 -38.4200 -38.3697 -38.2661 -38.2155 -38.1690 -38.1461
    14.9529  15.5454  16.1095  16.6860  17.9473  18.4233  18.4536  20.1001
    20.2629  20.3818  21.4224  23.7706  27.9743

     occupation numbers 
     1.0000   1.0000   1.0000   1.0000   1.0000   1.0000   1.0000   1.0000
     1.0000   1.0000   1.0000   1.0000   1.0000   1.0000   1.0000   0.0000
     0.0000   0.0000   0.0000   0.0000   0.0000

          k = 0.0833 0.5292 0.2026 (  2814 PWs)   bands (ev):

   -74.9109 -74.9010 -38.4325 -38.4012 -38.2307 -38.1935 -38.1785 -38.1495
    14.9173  15.3898  16.4114  16.7135  17.9877  18.7688  18.9617  19.6430
    20.2172  20.4562  21.2067  22.8015  27.4913

     occupation numbers 
     1.0000   1.0000   1.0000   1.0000   1.0000   1.0000   1.0000   1.0000
     1.0000   1.0000   1.0000   1.0000   1.0000   1.0000   1.0000   0.0000
     0.0000   0.0000   0.0000   0.0000   0.0000

          k = 0.0833 0.5292-0.3039 (  2806 PWs)   bands (ev):

   -74.9060 -74.9060 -38.4263 -38.4263 -38.2022 -38.2022 -38.1643 -38.1643
    15.0900  15.0900  16.6559  16.6559  18.5035  18.5035  19.2947  19.2947
    20.3059  20.3059  21.7354  21.7354  27.7564

     occupation numbers 
     1.0000   1.0000   1.0000   1.0000   1.0000   1.0000   1.0000   1.0000
     1.0000   1.0000   1.0000   1.0000   1.0000   1.0000   0.0000   0.0000
     0.0000   0.0000   0.0000   0.0000   0.0000

          k = 0.1667 0.2887 0.0000 (  2798 PWs)   bands (ev):

   -74.9423 -74.9019 -38.3631 -38.2809 -38.2718 -38.1789 -38.1320 -38.1230
    12.7003  16.0930  16.3640  16.7748  17.9882  18.0014  18.5939  18.8794
    19.5410  19.9019  20.2751  25.0233  26.7817

     occupation numbers 
     1.0000   1.0000   1.0000   1.0000   1.0000   1.0000   1.0000   1.0000
     1.0000   1.0000   1.0000   1.0000   1.0000   1.0000   1.0000   1.0000
     0.0000   0.0000   0.0000   0.0000   0.0000

          k = 0.1667 0.2887 0.1013 (  2793 PWs)   bands (ev):

   -74.9396 -74.9046 -38.3646 -38.2790 -38.2619 -38.1844 -38.1361 -38.1239
    12.9088  15.9837  16.3034  16.8416  17.8852  18.0121  18.4936  19.0040
    19.6676  19.7692  20.2886  23.3763  28.9693

     occupation numbers 
     1.0000   1.0000   1.0000   1.0000   1.0000   1.0000   1.0000   1.0000
     1.0000   1.0000   1.0000   1.0000   1.0000   1.0000   1.0000   0.9999
     0.0000   0.0000   0.0000   0.0000   0.0000

          k = 0.1667 0.2887 0.2026 (  2803 PWs)   bands (ev):

   -74.9322 -74.9120 -38.3572 -38.3027 -38.2225 -38.1877 -38.1460 -38.1341
    13.4999  15.2891  16.5672  17.0124  17.5931  17.8536  18.5498  19.1472
    19.7409  19.8920  20.2471  21.6632  32.2145

     occupation numbers 
     1.0000   1.0000   1.0000   1.0000   1.0000   1.0000   1.0000   1.0000
     1.0000   1.0000   1.0000   1.0000   1.0000   1.0000   1.0000   0.0000
     0.0000   0.0000   0.0000   0.0000   0.0000

          k = 0.1667 0.2887-0.3039 (  2810 PWs)   bands (ev):

   -74.9221 -74.9221 -38.3341 -38.3341 -38.1913 -38.1913 -38.1498 -38.1498
    14.3619  14.3619  16.9456  16.9456  17.5437  17.5437  18.8568  18.8568
    20.0785  20.0785  20.4754  20.4754  34.3561

     occupation numbers 
     1.0000   1.0000   1.0000   1.0000   1.0000   1.0000   1.0000   1.0000
     1.0000   1.0000   1.0000   1.0000   1.0000   1.0000   1.0000   1.0000
     0.0000   0.0000   0.0000   0.0000   0.0000

          k = 0.1667 0.3849 0.0000 (  2805 PWs)   bands (ev):

   -74.9280 -74.8976 -38.3367 -38.3247 -38.3127 -38.2115 -38.1569 -38.1446
    13.9712  16.0738  16.1592  16.5993  17.7850  18.1223  18.3399  19.2446
    20.0581  20.2588  20.6616  26.8109  27.0861

     occupation numbers 
     1.0000   1.0000   1.0000   1.0000   1.0000   1.0000   1.0000   1.0000
     1.0000   1.0000   1.0000   1.0000   1.0000   1.0000   1.0000   0.0000
     0.0000   0.0000   0.0000   0.0000   0.0000

          k = 0.1667 0.3849 0.1013 (  2804 PWs)   bands (ev):

   -74.9259 -74.8996 -38.3642 -38.3301 -38.2751 -38.2158 -38.1626 -38.1393
    14.1128  15.9357  16.2601  16.7019  17.7390  18.1090  18.2955  19.3036
    20.0013  20.1602  20.7579  24.4888  29.3706

     occupation numbers 
     1.0000   1.0000   1.0000   1.0000   1.0000   1.0000   1.0000   1.0000
     1.0000   1.0000   1.0000   1.0000   1.0000   1.0000   1.0000   0.0000
     0.0000   0.0000   0.0000   0.0000   0.0000

          k = 0.1667 0.3849 0.2026 (  2816 PWs)   bands (ev):

   -74.9204 -74.9052 -38.3794 -38.3507 -38.2329 -38.2131 -38.1703 -38.1406
    14.5009  15.5599  16.5381  16.9119  17.5819  17.8447  18.4883  19.3160
    19.8460  20.3429  20.8394  22.5048  30.4146

     occupation numbers 
     1.0000   1.0000   1.0000   1.0000   1.0000   1.0000   1.0000   1.0000
     1.0000   1.0000   1.0000   1.0000   1.0000   1.0000   1.0000   0.0000
     0.0000   0.0000   0.0000   0.0000   0.0000

          k = 0.1667 0.3849-0.3039 (  2808 PWs)   bands (ev):

   -74.9128 -74.9128 -38.3725 -38.3725 -38.2133 -38.2133 -38.1577 -38.1577
    15.0326  15.0326  16.8799  16.8799  17.5667  17.5667  18.8631  18.8631
    20.3261  20.3261  21.1855  21.1855  31.5049

     occupation numbers 
     1.0000   1.0000   1.0000   1.0000   1.0000   1.0000   1.0000   1.0000
     1.0000   1.0000   1.0000   1.0000   1.0000   1.0000   1.0000   1.0000
     0.0000   0.0000   0.0000   0.0000   0.0000

          k = 0.1667 0.4811 0.0000 (  2814 PWs)   bands (ev):

   -74.9160 -74.8959 -38.3803 -38.3346 -38.2878 -38.2415 -38.1740 -38.1691
    15.0730  15.9080  15.9235  16.6746  17.7211  18.0537  18.3645  19.7331
    20.2464  20.3122  21.6094  25.6446  28.7372

     occupation numbers 
     1.0000   1.0000   1.0000   1.0000   1.0000   1.0000   1.0000   1.0000
     1.0000   1.0000   1.0000   1.0000   1.0000   1.0000   1.0000   0.0000
     0.0000   0.0000   0.0000   0.0000   0.0000

          k = 0.1667 0.4811 0.1013 (  2808 PWs)   bands (ev):

   -74.9147 -74.8973 -38.3918 -38.3520 -38.2700 -38.2327 -38.1847 -38.1558
    15.0749  15.8637  16.0973  16.6942  17.7302  18.0240  18.4603  19.7337
    20.0138  20.3864  21.6561  24.9709  27.8610

     occupation numbers 
     1.0000   1.0000   1.0000   1.0000   1.0000   1.0000   1.0000   1.0000
     1.0000   1.0000   1.0000   1.0000   1.0000   1.0000   1.0000   0.0000
     0.0000   0.0000   0.0000   0.0000   0.0000

          k = 0.1667 0.4811 0.2026 (  2813 PWs)   bands (ev):

   -74.9110 -74.9009 -38.4057 -38.3804 -38.2524 -38.2160 -38.1845 -38.1478
    15.1569  15.6645  16.4257  16.9429  17.5519  18.0119  18.7077  19.4274
    19.9607  20.4818  21.8019  23.4992  28.0345

     occupation numbers 
     1.0000   1.0000   1.0000   1.0000   1.0000   1.0000   1.0000   1.0000
     1.0000   1.0000   1.0000   1.0000   1.0000   1.0000   1.0000   0.0000
     0.0000   0.0000   0.0000   0.0000   0.0000

          k = 0.1667 0.4811-0.3039 (  2808 PWs)   bands (ev):

   -74.9060 -74.9060 -38.4021 -38.4021 -38.2324 -38.2324 -38.1588 -38.1588
    15.3720  15.3720  16.8268  16.8268  17.7504  17.7504  18.9938  18.9938
    20.3168  20.3168  22.3250  22.3250  28.8367

     occupation numbers 
     1.0000   1.0000   1.0000   1.0000   1.0000   1.0000   1.0000   1.0000
     1.0000   1.0000   1.0000   1.0000   1.0000   1.0000   1.0000   1.0000
     0.0000   0.0000   0.0000   0.0000   0.0000

          k = 0.1667 0.5774 0.0000 (  2816 PWs)   bands (ev):

   -74.9108 -74.8962 -38.3961 -38.3417 -38.2692 -38.2536 -38.1831 -38.1800
    15.5253  15.7803  15.8552  16.7575  17.7897  17.8559  18.4723  20.0786
    20.2415  20.2766  22.5401  24.0731  30.0590

     occupation numbers 
     1.0000   1.0000   1.0000   1.0000   1.0000   1.0000   1.0000   1.0000
     1.0000   1.0000   1.0000   1.0000   1.0000   1.0000   1.0000   0.0000
     0.0000   0.0000   0.0000   0.0000   0.0000

          k = 0.1667 0.5774 0.1013 (  2812 PWs)   bands (ev):

   -74.9098 -74.8972 -38.4054 -38.3581 -38.2731 -38.2260 -38.1972 -38.1638
    15.3495  15.8242  16.2510  16.5520  17.6893  18.0583  18.5766  19.9887
    20.0790  20.3353  22.5626  23.9644  28.9623

     occupation numbers 
     1.0000   1.0000   1.0000   1.0000   1.0000   1.0000   1.0000   1.0000
     1.0000   1.0000   1.0000   1.0000   1.0000   1.0000   1.0000   0.0000
     0.0000   0.0000   0.0000   0.0000   0.0000

          k = 0.1667 0.5774 0.2026 (  2808 PWs)   bands (ev):

   -74.9071 -74.8998 -38.4173 -38.3897 -38.2615 -38.2165 -38.1863 -38.1518
    15.2957  15.7263  16.4986  16.8539  17.4636  18.1927  18.8602  19.4950
    20.1114  20.3849  22.6798  23.6113  27.9082

     occupation numbers 
     1.0000   1.0000   1.0000   1.0000   1.0000   1.0000   1.0000   1.0000
     1.0000   1.0000   1.0000   1.0000   1.0000   1.0000   1.0000   0.0000
     0.0000   0.0000   0.0000   0.0000   0.0000

          k = 0.1667 0.5774-0.3039 (  2802 PWs)   bands (ev):

   -74.9035 -74.9035 -38.4131 -38.4131 -38.2399 -38.2399 -38.1585 -38.1585
    15.4504  15.4504  16.8146  16.8146  17.8088  17.8088  19.1614  19.1614
    20.2507  20.2507  23.0771  23.0771  27.5486

     occupation numbers 
     1.0000   1.0000   1.0000   1.0000   1.0000   1.0000   1.0000   1.0000
     1.0000   1.0000   1.0000   1.0000   1.0000   1.0000   0.0000   0.0000
     0.0000   0.0000   0.0000   0.0000   0.0000

          k = 0.2500 0.4330 0.0000 (  2814 PWs)   bands (ev):

   -74.9160 -74.8959 -38.3562 -38.3332 -38.2880 -38.2454 -38.1959 -38.1688
    15.0957  15.9893  16.2806  16.3309  17.6195  18.0851  18.3701  19.4640
    20.1911  20.3103  21.6572  27.1976  28.1300

     occupation numbers 
     1.0000   1.0000   1.0000   1.0000   1.0000   1.0000   1.0000   1.0000
     1.0000   1.0000   1.0000   1.0000   1.0000   1.0000   1.0000   0.0000
     0.0000   0.0000   0.0000   0.0000   0.0000

          k = 0.2500 0.4330 0.1013 (  2815 PWs)   bands (ev):

   -74.9147 -74.8973 -38.3600 -38.3599 -38.2563 -38.2559 -38.1977 -38.1576
    15.1666  15.9062  16.3474  16.5138  17.6593  17.8961  18.3907  19.5212
    19.9499  20.3927  21.7555  25.6770  28.4114

     occupation numbers 
     1.0000   1.0000   1.0000   1.0000   1.0000   1.0000   1.0000   1.0000
     1.0000   1.0000   1.0000   1.0000   1.0000   1.0000   1.0000   0.0000
     0.0000   0.0000   0.0000   0.0000   0.0000

          k = 0.2500 0.4330 0.2026 (  2804 PWs)   bands (ev):

   -74.9110 -74.9009 -38.3839 -38.3733 -38.2610 -38.2371 -38.1842 -38.1476
    15.3483  15.7637  16.5664  16.8661  17.5002  17.6256  18.4978  19.3211
    19.9170  20.4917  21.9866  23.8155  29.1756

     occupation numbers 
     1.0000   1.0000   1.0000   1.0000   1.0000   1.0000   1.0000   1.0000
     1.0000   1.0000   1.0000   1.0000   1.0000   1.0000   1.0000   0.0000
     0.0000   0.0000   0.0000   0.0000   0.0000

          k = 0.2500 0.4330-0.3039 (  2804 PWs)   bands (ev):

   -74.9060 -74.9060 -38.3866 -38.3866 -38.2496 -38.2496 -38.1572 -38.1572
    15.5704  15.5704  16.9064  16.9064  17.3988  17.3988  18.8129  18.8129
    20.3417  20.3417  22.5461  22.5461  30.1683

     occupation numbers 
     1.0000   1.0000   1.0000   1.0000   1.0000   1.0000   1.0000   1.0000
     1.0000   1.0000   1.0000   1.0000   1.0000   1.0000   1.0000   1.0000
     0.0000   0.0000   0.0000   0.0000   0.0000

          k = 0.2500 0.5292 0.0000 (  2818 PWs)   bands (ev):

   -74.9072 -74.8968 -38.3702 -38.3239 -38.2805 -38.2555 -38.2212 -38.1942
    15.8042  15.9706  16.1245  16.4283  17.6179  17.8208  18.5745  19.7933
    20.1515  20.2256  22.9832  25.2887  27.4335

     occupation numbers 
     1.0000   1.0000   1.0000   1.0000   1.0000   1.0000   1.0000   1.0000
     1.0000   1.0000   1.0000   1.0000   1.0000   1.0000   1.0000   0.0000
     0.0000   0.0000   0.0000   0.0000   0.0000

          k = 0.2500 0.5292 0.1013 (  2813 PWs)   bands (ev):

   -74.9065 -74.8975 -38.3749 -38.3437 -38.2955 -38.2382 -38.2168 -38.1762
    15.7399  16.1089  16.2056  16.4866  17.5889  17.7195  18.5973  19.8231
    19.9082  20.2851  23.1396  25.2466  27.4689

     occupation numbers 
     1.0000   1.0000   1.0000   1.0000   1.0000   1.0000   1.0000   1.0000
     1.0000   1.0000   1.0000   1.0000   1.0000   1.0000   1.0000   0.0000
     0.0000   0.0000   0.0000   0.0000   0.0000

          k = 0.2500 0.5292 0.2026 (  2801 PWs)   bands (ev):

   -74.9046 -74.8994 -38.3875 -38.3719 -38.2960 -38.2544 -38.1793 -38.1558
    15.7608  16.0563  16.4849  16.8282  17.3191  17.5862  18.6869  19.3444
    20.0177  20.3451  23.5141  24.8411  27.5092

     occupation numbers 
     1.0000   1.0000   1.0000   1.0000   1.0000   1.0000   1.0000   1.0000
     1.0000   1.0000   1.0000   1.0000   1.0000   1.0000   1.0000   0.0000
     0.0000   0.0000   0.0000   0.0000   0.0000

          k = 0.2500 0.5292-0.3039 (  2802 PWs)   bands (ev):

   -74.9020 -74.9020 -38.3892 -38.3892 -38.2775 -38.2775 -38.1556 -38.1556
    15.8897  15.8897  16.8780  16.8780  17.3023  17.3023  18.9064  18.9064
    20.2424  20.2424  24.0996  24.0996  28.0515

     occupation numbers 
     1.0000   1.0000   1.0000   1.0000   1.0000   1.0000   1.0000   1.0000
     1.0000   1.0000   1.0000   1.0000   1.0000   1.0000   1.0000   1.0000
     0.0000   0.0000   0.0000   0.0000   0.0000

          k = 0.3333 0.5774 0.0000 (  2820 PWs)   bands (ev):

   -74.9006 -74.9006 -38.3568 -38.3057 -38.3057 -38.2516 -38.2236 -38.2236
    16.0157  16.1524  16.1524  16.3310  17.6469  17.6469  18.6852  19.9721
    19.9722  20.1138  24.4609  25.2978  25.2978

     occupation numbers 
     1.0000   1.0000   1.0000   1.0000   1.0000   1.0000   1.0000   1.0000
     1.0000   1.0000   1.0000   1.0000   1.0000   1.0000   1.0000   0.0000
     0.0000   0.0000   0.0000   0.0000   0.0000

          k = 0.3333 0.5774 0.1013 (  2829 PWs)   bands (ev):

   -74.9006 -74.9006 -38.3498 -38.3301 -38.3301 -38.2587 -38.1991 -38.1991
    16.0890  16.2203  16.2203  16.3607  17.5594  17.5594  18.6689  19.8465
    20.0307  20.0307  24.8668  25.3375  25.3375

     occupation numbers 
     1.0000   1.0000   1.0000   1.0000   1.0000   1.0000   1.0000   1.0000
     1.0000   1.0000   1.0000   1.0000   1.0000   1.0000   1.0000   0.0000
     0.0000   0.0000   0.0000   0.0000   0.0000

          k = 0.3333 0.5774 0.2026 (  2811 PWs)   bands (ev):

   -74.9006 -74.9006 -38.3618 -38.3618 -38.3306 -38.2780 -38.1670 -38.1670
    16.2603  16.3818  16.3818  16.4145  17.3671  17.3671  18.6790  19.3061
    20.1398  20.1398  25.4356  25.4356  25.8635

     occupation numbers 
     1.0000   1.0000   1.0000   1.0000   1.0000   1.0000   1.0000   1.0000
     1.0000   1.0000   1.0000   1.0000   1.0000   1.0000   1.0000   0.0000
     0.0000   0.0000   0.0000   0.0000   0.0000

          k = 0.3333 0.5774-0.3039 (  2784 PWs)   bands (ev):

   -74.9006 -74.9006 -38.3742 -38.3742 -38.3043 -38.3043 -38.1544 -38.1544
    16.3994  16.3994  16.4863  16.4863  17.2507  17.2507  18.8640  18.8640
    20.1909  20.1909  25.4974  25.4974  27.1862

     occupation numbers 
     1.0000   1.0000   1.0000   1.0000   1.0000   1.0000   1.0000   1.0000
     1.0000   1.0000   1.0000   1.0000   1.0000   1.0000   1.0000   1.0000
     0.0000   0.0000   0.0000   0.0000   0.0000

     the Fermi energy is    19.0403 ev

!    total energy              =    -753.45459790 Ry
     total all-electron energy =     -5573.811289 Ry
     estimated scf accuracy    <       0.00000063 Ry
     smearing contrib. (-TS)   =      -0.00002967 Ry
     internal energy E=F+TS    =    -753.45456823 Ry

     The total energy is F=E-TS. E is the sum of the following terms:
     one-electron contribution =    -279.33843879 Ry
     hartree contribution      =     163.75600104 Ry
     xc contribution           =     -61.42194198 Ry
     ewald contribution        =    -401.27404216 Ry
     one-center paw contrib.   =    -175.17614633 Ry
      -> PAW hartree energy AE =     222.12327783 Ry
      -> PAW hartree energy PS =    -221.06739341 Ry
      -> PAW xc energy AE      =    -117.67638822 Ry
      -> PAW xc energy PS      =      29.03243064 Ry
      -> total E_H with PAW    =     164.81188547 Ry
      -> total E_XC with PAW   =    -150.06589957 Ry

     total magnetization       =     3.27 Bohr mag/cell
     absolute magnetization    =     3.58 Bohr mag/cell

     convergence has been achieved in   9 iterations

     Writing all to output data dir ./out2/Co.save/
 
     init_run     :      0.37s CPU      0.50s WALL (       1 calls)
     electrons    :     22.69s CPU     24.03s WALL (       1 calls)

     Called by init_run:
     wfcinit      :      0.22s CPU      0.31s WALL (       1 calls)
     potinit      :      0.10s CPU      0.13s WALL (       1 calls)
     hinit0       :      0.03s CPU      0.04s WALL (       1 calls)

     Called by electrons:
     c_bands      :     20.00s CPU     21.02s WALL (       9 calls)
     sum_band     :      1.75s CPU      1.86s WALL (       9 calls)
     v_of_rho     :      0.03s CPU      0.03s WALL (      10 calls)
     v_h          :      0.00s CPU      0.00s WALL (      10 calls)
     v_xc         :      0.03s CPU      0.03s WALL (      10 calls)
     newd         :      0.04s CPU      0.05s WALL (      10 calls)
     PAW_pot      :      0.95s CPU      1.18s WALL (      10 calls)
     mix_rho      :      0.01s CPU      0.01s WALL (       9 calls)

     Called by c_bands:
     init_us_2    :      0.11s CPU      0.12s WALL (    2736 calls)
     init_us_2:cp :      0.11s CPU      0.11s WALL (    2736 calls)
     cegterg      :     19.30s CPU     20.18s WALL (    1368 calls)

     Called by sum_band:
     sum_band:wei :      0.01s CPU      0.01s WALL (       9 calls)
     sum_band:loo :      1.65s CPU      1.75s WALL (       9 calls)
     sum_band:buf :      0.01s CPU      0.01s WALL (    1368 calls)
     sum_band:ini :      0.07s CPU      0.06s WALL (    1368 calls)
     sum_band:cal :      0.13s CPU      0.13s WALL (    1368 calls)
     sum_band:bec :      0.00s CPU      0.01s WALL (    1368 calls)
     addusdens    :      0.08s CPU      0.08s WALL (       9 calls)
                                        0.00s GPU  (       9 calls)
     addusd:skk   :      0.00s CPU      0.00s WALL (       9 calls)
                                        0.00s GPU  (       9 calls)

     Called by *egterg:
     cdiaghg      :      5.00s CPU      5.12s WALL (    8605 calls)
     cegterg:over :      0.67s CPU      0.65s WALL (    7389 calls)
     cegterg:upda :      0.09s CPU      0.17s WALL (    7389 calls)
     cegterg:last :      0.31s CPU      0.34s WALL (    5478 calls)
     h_psi        :     12.34s CPU     13.03s WALL (    8757 calls)
     s_psi        :      0.26s CPU      0.22s WALL (    8757 calls)
     g_psi        :      0.05s CPU      0.05s WALL (    7389 calls)

     Called by h_psi:
     h_psi:calbec :      0.64s CPU      0.60s WALL (    8757 calls)
     vloc_psi     :     11.49s CPU     12.10s WALL (    8757 calls)
     add_vuspsi   :      0.18s CPU      0.26s WALL (    8757 calls)

     General routines
     calbec       :      0.76s CPU      0.71s WALL (   10125 calls)
     fft          :      0.02s CPU      0.02s WALL (     244 calls)
     ffts         :      0.00s CPU      0.00s WALL (      38 calls)
     fftw         :     12.10s CPU     12.57s WALL (  274744 calls)
     interpolate  :      0.00s CPU      0.00s WALL (      20 calls)
 
     Parallel routines

     PAW routines
     PAW_pot      :      0.95s CPU      1.18s WALL (      10 calls)
     PAW_symme    :      0.01s CPU      0.01s WALL (      18 calls)
 
     PWSCF        :     23.37s CPU     25.30s WALL

 
   This run was terminated on:   9:56: 6  22Mar2024            

=------------------------------------------------------------------------------=
   JOB DONE.
=------------------------------------------------------------------------------=
