
     Program PWSCF v.7.2 starts on 22Mar2024 at  7:17:44 

     This program is part of the open-source Quantum ESPRESSO suite
     for quantum simulation of materials; please cite
         "P. Giannozzi et al., J. Phys.:Condens. Matter 21 395502 (2009);
         "P. Giannozzi et al., J. Phys.:Condens. Matter 29 465901 (2017);
         "P. Giannozzi et al., J. Chem. Phys. 152 154105 (2020);
          URL http://www.quantum-espresso.org", 
     in publications or presentations arising from this work. More details at
     http://www.quantum-espresso.org/quote

     Parallel version (MPI), running on    20 processors

     MPI processes distributed on     1 nodes
     352098 MiB available memory on the printing compute node when the environment starts
 
     Waiting for input...
     Reading input from standard input

     Current dimensions of program PWSCF are:
     Max number of different atomic species (ntypx) = 10
     Max number of k-points (npk) = 120000
     Max angular momentum in pseudopotentials (lmaxx) =  4
     file Co.pbe-spn-kjpaw_psl.0.3.1.UPF: wavefunction(s)  3P 3D renormalized
 
     R & G space division:  proc/nbgrp/npool/nimage =      20
     Subspace diagonalization in iterative solution of the eigenvalue problem:
     a serial algorithm will be used

 
     Parallelization info
     --------------------
     sticks:   dense  smooth     PW     G-vecs:    dense   smooth      PW
     Min          34      33      9                 1192     1157     185
     Max          36      34     10                 1212     1164     192
     Sum         685     673    199                23957    23223    3791
 
     Using Slab Decomposition
 


     bravais-lattice index     =            4
     lattice parameter (alat)  =       4.7243  a.u.
     unit-cell volume          =     149.0278 (a.u.)^3
     number of atoms/cell      =            2
     number of atomic types    =            1
     number of electrons       =        34.00
     number of Kohn-Sham states=           21
     kinetic-energy cutoff     =     110.0000  Ry
     charge density cutoff     =     450.0000  Ry
     scf convergence threshold =      1.0E-06
     mixing beta               =       0.7000
     number of iterations used =            8  plain     mixing
     Exchange-correlation= SLA  PW   PBX  PBC
                           (   1   4   3   4   0   0   0)

     celldm(1)=   4.724315  celldm(2)=   0.000000  celldm(3)=   1.632000
     celldm(4)=   0.000000  celldm(5)=   0.000000  celldm(6)=   0.000000

     crystal axes: (cart. coord. in units of alat)
               a(1) = (   1.000000   0.000000   0.000000 )  
               a(2) = (  -0.500000   0.866025   0.000000 )  
               a(3) = (   0.000000   0.000000   1.632000 )  

     reciprocal axes: (cart. coord. in units 2 pi/alat)
               b(1) = (  1.000000  0.577350  0.000000 )  
               b(2) = (  0.000000  1.154701  0.000000 )  
               b(3) = (  0.000000  0.000000  0.612745 )  


     PseudoPot. # 1 for Co read from file:
     /truba/home/amuhaymin/ZnS/pseudo/QE/Co.pbe-spn-kjpaw_psl.0.3.1.UPF
     MD5 check sum: b0a1ad65bf214e88c1f3d33b20c7d919
     Pseudo is Projector augmented-wave + core cor, Zval = 17.0
     Generated using &quot;atomic&quot; code by A. Dal Corso  v.6.2.2
     Shape of augmentation charge: PSQ
     Using radial grid of 1193 points,  6 beta functions with: 
                l(1) =   0
                l(2) =   0
                l(3) =   1
                l(4) =   1
                l(5) =   2
                l(6) =   2
     Q(r) pseudized with 0 coefficients 


     atomic species   valence    mass     pseudopotential
        Co            17.00    58.93300     Co( 1.00)

     Starting magnetic structure 
     atomic species   magnetization
        Co           0.294

     24 Sym. Ops., with inversion, found (12 have fractional translation)


                                    s                        frac. trans.

      isym =  1     identity                                     

 cryst.   s( 1) = (     1          0          0      )
                  (     0          1          0      )
                  (     0          0          1      )

 cart.    s( 1) = (  1.0000000  0.0000000  0.0000000 )
                  (  0.0000000  1.0000000  0.0000000 )
                  (  0.0000000  0.0000000  1.0000000 )


      isym =  2     180 deg rotation - cart. axis [0,0,1]        

 cryst.   s( 2) = (    -1          0          0      )    f =(  0.0000000 )
                  (     0         -1          0      )       ( -0.0000000 )
                  (     0          0          1      )       ( -0.5000000 )

 cart.    s( 2) = ( -1.0000000  0.0000000  0.0000000 )    f =(  0.0000000 )
                  (  0.0000000 -1.0000000  0.0000000 )       ( -0.0000000 )
                  (  0.0000000  0.0000000  1.0000000 )       ( -0.8160000 )


      isym =  3     180 deg rotation - cart. axis [0,1,0]        

 cryst.   s( 3) = (    -1          0          0      )    f =(  0.0000000 )
                  (     1          1          0      )       (  0.0000000 )
                  (     0          0         -1      )       (  0.5000000 )

 cart.    s( 3) = ( -1.0000000  0.0000000  0.0000000 )    f =(  0.0000000 )
                  (  0.0000000  1.0000000  0.0000000 )       (  0.0000000 )
                  (  0.0000000  0.0000000 -1.0000000 )       (  0.8160000 )


      isym =  4     180 deg rotation - cart. axis [1,0,0]        

 cryst.   s( 4) = (     1          0          0      )
                  (    -1         -1          0      )
                  (     0          0         -1      )

 cart.    s( 4) = (  1.0000000  0.0000000  0.0000000 )
                  (  0.0000000 -1.0000000  0.0000000 )
                  (  0.0000000  0.0000000 -1.0000000 )


      isym =  5      60 deg rotation - cryst. axis [0,0,1]       

 cryst.   s( 5) = (     1          1          0      )    f =(  0.0000000 )
                  (    -1          0          0      )       ( -0.0000000 )
                  (     0          0          1      )       ( -0.5000000 )

 cart.    s( 5) = (  0.5000000 -0.8660254  0.0000000 )    f =(  0.0000000 )
                  (  0.8660254  0.5000000  0.0000000 )       ( -0.0000000 )
                  (  0.0000000  0.0000000  1.0000000 )       ( -0.8160000 )


      isym =  6      60 deg rotation - cryst. axis [0,0,-1]      

 cryst.   s( 6) = (     0         -1          0      )    f =(  0.0000000 )
                  (     1          1          0      )       ( -0.0000000 )
                  (     0          0          1      )       ( -0.5000000 )

 cart.    s( 6) = (  0.5000000  0.8660254  0.0000000 )    f =(  0.0000000 )
                  ( -0.8660254  0.5000000  0.0000000 )       ( -0.0000000 )
                  (  0.0000000  0.0000000  1.0000000 )       ( -0.8160000 )


      isym =  7     120 deg rotation - cryst. axis [0,0,1]       

 cryst.   s( 7) = (     0          1          0      )
                  (    -1         -1          0      )
                  (     0          0          1      )

 cart.    s( 7) = ( -0.5000000 -0.8660254  0.0000000 )
                  (  0.8660254 -0.5000000  0.0000000 )
                  (  0.0000000  0.0000000  1.0000000 )


      isym =  8     120 deg rotation - cryst. axis [0,0,-1]      

 cryst.   s( 8) = (    -1         -1          0      )
                  (     1          0          0      )
                  (     0          0          1      )

 cart.    s( 8) = ( -0.5000000  0.8660254  0.0000000 )
                  ( -0.8660254 -0.5000000  0.0000000 )
                  (  0.0000000  0.0000000  1.0000000 )


      isym =  9     180 deg rotation - cryst. axis [1,-1,0]      

 cryst.   s( 9) = (     0         -1          0      )    f =( -0.0000000 )
                  (    -1          0          0      )       ( -0.0000000 )
                  (     0          0         -1      )       (  0.5000000 )

 cart.    s( 9) = (  0.5000000 -0.8660254  0.0000000 )    f =( -0.0000000 )
                  ( -0.8660254 -0.5000000  0.0000000 )       ( -0.0000000 )
                  (  0.0000000  0.0000000 -1.0000000 )       (  0.8160000 )


      isym = 10     180 deg rotation - cryst. axis [2,1,0]       

 cryst.   s(10) = (     1          1          0      )    f =(  0.0000000 )
                  (     0         -1          0      )       ( -0.0000000 )
                  (     0          0         -1      )       (  0.5000000 )

 cart.    s(10) = (  0.5000000  0.8660254  0.0000000 )    f =(  0.0000000 )
                  (  0.8660254 -0.5000000  0.0000000 )       ( -0.0000000 )
                  (  0.0000000  0.0000000 -1.0000000 )       (  0.8160000 )


      isym = 11     180 deg rotation - cryst. axis [0,1,0]       

 cryst.   s(11) = (    -1         -1          0      )
                  (     0          1          0      )
                  (     0          0         -1      )

 cart.    s(11) = ( -0.5000000 -0.8660254  0.0000000 )
                  ( -0.8660254  0.5000000  0.0000000 )
                  (  0.0000000  0.0000000 -1.0000000 )


      isym = 12     180 deg rotation - cryst. axis [1,1,0]       

 cryst.   s(12) = (     0          1          0      )
                  (     1          0          0      )
                  (     0          0         -1      )

 cart.    s(12) = ( -0.5000000  0.8660254  0.0000000 )
                  (  0.8660254  0.5000000  0.0000000 )
                  (  0.0000000  0.0000000 -1.0000000 )


      isym = 13     inversion                                    

 cryst.   s(13) = (    -1          0          0      )
                  (     0         -1          0      )
                  (     0          0         -1      )

 cart.    s(13) = ( -1.0000000  0.0000000  0.0000000 )
                  (  0.0000000 -1.0000000  0.0000000 )
                  (  0.0000000  0.0000000 -1.0000000 )


      isym = 14     inv. 180 deg rotation - cart. axis [0,0,1]   

 cryst.   s(14) = (     1          0          0      )    f =(  0.0000000 )
                  (     0          1          0      )       (  0.0000000 )
                  (     0          0         -1      )       (  0.5000000 )

 cart.    s(14) = (  1.0000000  0.0000000  0.0000000 )    f =(  0.0000000 )
                  (  0.0000000  1.0000000  0.0000000 )       (  0.0000000 )
                  (  0.0000000  0.0000000 -1.0000000 )       (  0.8160000 )


      isym = 15     inv. 180 deg rotation - cart. axis [0,1,0]   

 cryst.   s(15) = (     1          0          0      )    f =(  0.0000000 )
                  (    -1         -1          0      )       ( -0.0000000 )
                  (     0          0          1      )       ( -0.5000000 )

 cart.    s(15) = (  1.0000000  0.0000000  0.0000000 )    f =(  0.0000000 )
                  (  0.0000000 -1.0000000  0.0000000 )       ( -0.0000000 )
                  (  0.0000000  0.0000000  1.0000000 )       ( -0.8160000 )


      isym = 16     inv. 180 deg rotation - cart. axis [1,0,0]   

 cryst.   s(16) = (    -1          0          0      )
                  (     1          1          0      )
                  (     0          0          1      )

 cart.    s(16) = ( -1.0000000  0.0000000  0.0000000 )
                  (  0.0000000  1.0000000  0.0000000 )
                  (  0.0000000  0.0000000  1.0000000 )


      isym = 17     inv.  60 deg rotation - cryst. axis [0,0,1]  

 cryst.   s(17) = (    -1         -1          0      )    f =(  0.0000000 )
                  (     1          0          0      )       ( -0.0000000 )
                  (     0          0         -1      )       (  0.5000000 )

 cart.    s(17) = ( -0.5000000  0.8660254  0.0000000 )    f =(  0.0000000 )
                  ( -0.8660254 -0.5000000  0.0000000 )       ( -0.0000000 )
                  (  0.0000000  0.0000000 -1.0000000 )       (  0.8160000 )


      isym = 18     inv.  60 deg rotation - cryst. axis [0,0,-1] 

 cryst.   s(18) = (     0          1          0      )    f =( -0.0000000 )
                  (    -1         -1          0      )       ( -0.0000000 )
                  (     0          0         -1      )       (  0.5000000 )

 cart.    s(18) = ( -0.5000000 -0.8660254  0.0000000 )    f =(  0.0000000 )
                  (  0.8660254 -0.5000000  0.0000000 )       ( -0.0000000 )
                  (  0.0000000  0.0000000 -1.0000000 )       (  0.8160000 )


      isym = 19     inv. 120 deg rotation - cryst. axis [0,0,1]  

 cryst.   s(19) = (     0         -1          0      )
                  (     1          1          0      )
                  (     0          0         -1      )

 cart.    s(19) = (  0.5000000  0.8660254  0.0000000 )
                  ( -0.8660254  0.5000000  0.0000000 )
                  (  0.0000000  0.0000000 -1.0000000 )


      isym = 20     inv. 120 deg rotation - cryst. axis [0,0,-1] 

 cryst.   s(20) = (     1          1          0      )
                  (    -1          0          0      )
                  (     0          0         -1      )

 cart.    s(20) = (  0.5000000 -0.8660254  0.0000000 )
                  (  0.8660254  0.5000000  0.0000000 )
                  (  0.0000000  0.0000000 -1.0000000 )


      isym = 21     inv. 180 deg rotation - cryst. axis [1,-1,0] 

 cryst.   s(21) = (     0          1          0      )    f =(  0.0000000 )
                  (     1          0          0      )       ( -0.0000000 )
                  (     0          0          1      )       ( -0.5000000 )

 cart.    s(21) = ( -0.5000000  0.8660254  0.0000000 )    f =(  0.0000000 )
                  (  0.8660254  0.5000000  0.0000000 )       ( -0.0000000 )
                  (  0.0000000  0.0000000  1.0000000 )       ( -0.8160000 )


      isym = 22     inv. 180 deg rotation - cryst. axis [2,1,0]  

 cryst.   s(22) = (    -1         -1          0      )    f =(  0.0000000 )
                  (     0          1          0      )       ( -0.0000000 )
                  (     0          0          1      )       ( -0.5000000 )

 cart.    s(22) = ( -0.5000000 -0.8660254  0.0000000 )    f =(  0.0000000 )
                  ( -0.8660254  0.5000000  0.0000000 )       ( -0.0000000 )
                  (  0.0000000  0.0000000  1.0000000 )       ( -0.8160000 )


      isym = 23     inv. 180 deg rotation - cryst. axis [0,1,0]  

 cryst.   s(23) = (     1          1          0      )
                  (     0         -1          0      )
                  (     0          0          1      )

 cart.    s(23) = (  0.5000000  0.8660254  0.0000000 )
                  (  0.8660254 -0.5000000  0.0000000 )
                  (  0.0000000  0.0000000  1.0000000 )


      isym = 24     inv. 180 deg rotation - cryst. axis [1,1,0]  

 cryst.   s(24) = (     0         -1          0      )
                  (    -1          0          0      )
                  (     0          0          1      )

 cart.    s(24) = (  0.5000000 -0.8660254  0.0000000 )
                  ( -0.8660254 -0.5000000  0.0000000 )
                  (  0.0000000  0.0000000  1.0000000 )


     point group D_6h(6/mmm)
     there are 12 classes
     the character table:

       E     2C6   2C3   C2    3C2'  3C2'' i     2S3   2S6   s_h   3s_d  3s_v 
A_1g   1.00  1.00  1.00  1.00  1.00  1.00  1.00  1.00  1.00  1.00  1.00  1.00
A_2g   1.00  1.00  1.00  1.00 -1.00 -1.00  1.00  1.00  1.00  1.00 -1.00 -1.00
B_1g   1.00 -1.00  1.00 -1.00  1.00 -1.00  1.00 -1.00  1.00 -1.00  1.00 -1.00
B_2g   1.00 -1.00  1.00 -1.00 -1.00  1.00  1.00 -1.00  1.00 -1.00 -1.00  1.00
E_1g   2.00  1.00 -1.00 -2.00  0.00  0.00  2.00  1.00 -1.00 -2.00  0.00  0.00
E_2g   2.00 -1.00 -1.00  2.00  0.00  0.00  2.00 -1.00 -1.00  2.00  0.00  0.00
A_1u   1.00  1.00  1.00  1.00  1.00  1.00 -1.00 -1.00 -1.00 -1.00 -1.00 -1.00
A_2u   1.00  1.00  1.00  1.00 -1.00 -1.00 -1.00 -1.00 -1.00 -1.00  1.00  1.00
B_1u   1.00 -1.00  1.00 -1.00  1.00 -1.00 -1.00  1.00 -1.00  1.00 -1.00  1.00
B_2u   1.00 -1.00  1.00 -1.00 -1.00  1.00 -1.00  1.00 -1.00  1.00  1.00 -1.00
E_1u   2.00  1.00 -1.00 -2.00  0.00  0.00 -2.00 -1.00  1.00  2.00  0.00  0.00
E_2u   2.00 -1.00 -1.00  2.00  0.00  0.00 -2.00  1.00  1.00 -2.00  0.00  0.00

     the symmetry operations in each class and the name of the first element:

     E        1
          identity                                               
     2C6      5    6
           60 deg rotation - cryst. axis [0,0,1]                 
     2C3      7    8
          120 deg rotation - cryst. axis [0,0,1]                 
     C2       2
          180 deg rotation - cart. axis [0,0,1]                  
     3C2'     4   12   11
          180 deg rotation - cart. axis [1,0,0]                  
     3C2''    3    9   10
          180 deg rotation - cart. axis [0,1,0]                  
     i       13
          inversion                                              
     2S3     17   18
          inv.  60 deg rotation - cryst. axis [0,0,1]            
     2S6     19   20
          inv. 120 deg rotation - cryst. axis [0,0,1]            
     s_h     14
          inv. 180 deg rotation - cart. axis [0,0,1]             
     3s_d    16   24   23
          inv. 180 deg rotation - cart. axis [1,0,0]             
     3s_v    15   21   22
          inv. 180 deg rotation - cart. axis [0,1,0]             

   Cartesian axes

     site n.     atom                  positions (alat units)
         1           Co  tau(   1) = (  -0.0000000   0.5773503   0.4080000  )
         2           Co  tau(   2) = (   0.5000000   0.2886751   1.2240000  )

   Crystallographic axes

     site n.     atom                  positions (cryst. coord.)
         1           Co  tau(   1) = (  0.3333333  0.6666667  0.2500000  )
         2           Co  tau(   2) = (  0.6666667  0.3333333  0.7500000  )

     number of k points=    76  Gaussian smearing, width (Ry)=  0.0010
                       cart. coord. in units 2pi/alat
        k(    1) = (   0.0000000   0.0000000   0.0000000), wk =   0.0011574
        k(    2) = (   0.0000000   0.0000000   0.1021242), wk =   0.0023148
        k(    3) = (   0.0000000   0.0000000   0.2042484), wk =   0.0023148
        k(    4) = (   0.0000000   0.0000000  -0.3063725), wk =   0.0011574
        k(    5) = (   0.0000000   0.0962250   0.0000000), wk =   0.0069444
        k(    6) = (   0.0000000   0.0962250   0.1021242), wk =   0.0138889
        k(    7) = (   0.0000000   0.0962250   0.2042484), wk =   0.0138889
        k(    8) = (   0.0000000   0.0962250  -0.3063725), wk =   0.0069444
        k(    9) = (   0.0000000   0.1924501   0.0000000), wk =   0.0069444
        k(   10) = (   0.0000000   0.1924501   0.1021242), wk =   0.0138889
        k(   11) = (   0.0000000   0.1924501   0.2042484), wk =   0.0138889
        k(   12) = (   0.0000000   0.1924501  -0.3063725), wk =   0.0069444
        k(   13) = (   0.0000000   0.2886751   0.0000000), wk =   0.0069444
        k(   14) = (   0.0000000   0.2886751   0.1021242), wk =   0.0138889
        k(   15) = (   0.0000000   0.2886751   0.2042484), wk =   0.0138889
        k(   16) = (   0.0000000   0.2886751  -0.3063725), wk =   0.0069444
        k(   17) = (   0.0000000   0.3849002   0.0000000), wk =   0.0069444
        k(   18) = (   0.0000000   0.3849002   0.1021242), wk =   0.0138889
        k(   19) = (   0.0000000   0.3849002   0.2042484), wk =   0.0138889
        k(   20) = (   0.0000000   0.3849002  -0.3063725), wk =   0.0069444
        k(   21) = (   0.0000000   0.4811252   0.0000000), wk =   0.0069444
        k(   22) = (   0.0000000   0.4811252   0.1021242), wk =   0.0138889
        k(   23) = (   0.0000000   0.4811252   0.2042484), wk =   0.0138889
        k(   24) = (   0.0000000   0.4811252  -0.3063725), wk =   0.0069444
        k(   25) = (   0.0000000  -0.5773503   0.0000000), wk =   0.0034722
        k(   26) = (   0.0000000  -0.5773503   0.1021242), wk =   0.0069444
        k(   27) = (   0.0000000  -0.5773503   0.2042484), wk =   0.0069444
        k(   28) = (   0.0000000  -0.5773503  -0.3063725), wk =   0.0034722
        k(   29) = (   0.0833333   0.1443376   0.0000000), wk =   0.0069444
        k(   30) = (   0.0833333   0.1443376   0.1021242), wk =   0.0138889
        k(   31) = (   0.0833333   0.1443376   0.2042484), wk =   0.0138889
        k(   32) = (   0.0833333   0.1443376  -0.3063725), wk =   0.0069444
        k(   33) = (   0.0833333   0.2405626   0.0000000), wk =   0.0138889
        k(   34) = (   0.0833333   0.2405626   0.1021242), wk =   0.0277778
        k(   35) = (   0.0833333   0.2405626   0.2042484), wk =   0.0277778
        k(   36) = (   0.0833333   0.2405626  -0.3063725), wk =   0.0138889
        k(   37) = (   0.0833333   0.3367877   0.0000000), wk =   0.0138889
        k(   38) = (   0.0833333   0.3367877   0.1021242), wk =   0.0277778
        k(   39) = (   0.0833333   0.3367877   0.2042484), wk =   0.0277778
        k(   40) = (   0.0833333   0.3367877  -0.3063725), wk =   0.0138889
        k(   41) = (   0.0833333   0.4330127   0.0000000), wk =   0.0138889
        k(   42) = (   0.0833333   0.4330127   0.1021242), wk =   0.0277778
        k(   43) = (   0.0833333   0.4330127   0.2042484), wk =   0.0277778
        k(   44) = (   0.0833333   0.4330127  -0.3063725), wk =   0.0138889
        k(   45) = (   0.0833333   0.5292377   0.0000000), wk =   0.0138889
        k(   46) = (   0.0833333   0.5292377   0.1021242), wk =   0.0277778
        k(   47) = (   0.0833333   0.5292377   0.2042484), wk =   0.0277778
        k(   48) = (   0.0833333   0.5292377  -0.3063725), wk =   0.0138889
        k(   49) = (   0.1666667   0.2886751   0.0000000), wk =   0.0069444
        k(   50) = (   0.1666667   0.2886751   0.1021242), wk =   0.0138889
        k(   51) = (   0.1666667   0.2886751   0.2042484), wk =   0.0138889
        k(   52) = (   0.1666667   0.2886751  -0.3063725), wk =   0.0069444
        k(   53) = (   0.1666667   0.3849002   0.0000000), wk =   0.0138889
        k(   54) = (   0.1666667   0.3849002   0.1021242), wk =   0.0277778
        k(   55) = (   0.1666667   0.3849002   0.2042484), wk =   0.0277778
        k(   56) = (   0.1666667   0.3849002  -0.3063725), wk =   0.0138889
        k(   57) = (   0.1666667   0.4811252   0.0000000), wk =   0.0138889
        k(   58) = (   0.1666667   0.4811252   0.1021242), wk =   0.0277778
        k(   59) = (   0.1666667   0.4811252   0.2042484), wk =   0.0277778
        k(   60) = (   0.1666667   0.4811252  -0.3063725), wk =   0.0138889
        k(   61) = (   0.1666667   0.5773503   0.0000000), wk =   0.0069444
        k(   62) = (   0.1666667   0.5773503   0.1021242), wk =   0.0138889
        k(   63) = (   0.1666667   0.5773503   0.2042484), wk =   0.0138889
        k(   64) = (   0.1666667   0.5773503  -0.3063725), wk =   0.0069444
        k(   65) = (   0.2500000   0.4330127   0.0000000), wk =   0.0069444
        k(   66) = (   0.2500000   0.4330127   0.1021242), wk =   0.0138889
        k(   67) = (   0.2500000   0.4330127   0.2042484), wk =   0.0138889
        k(   68) = (   0.2500000   0.4330127  -0.3063725), wk =   0.0069444
        k(   69) = (   0.2500000   0.5292377   0.0000000), wk =   0.0138889
        k(   70) = (   0.2500000   0.5292377   0.1021242), wk =   0.0277778
        k(   71) = (   0.2500000   0.5292377   0.2042484), wk =   0.0277778
        k(   72) = (   0.2500000   0.5292377  -0.3063725), wk =   0.0138889
        k(   73) = (   0.3333333   0.5773503   0.0000000), wk =   0.0023148
        k(   74) = (   0.3333333   0.5773503   0.1021242), wk =   0.0046296
        k(   75) = (   0.3333333   0.5773503   0.2042484), wk =   0.0046296
        k(   76) = (   0.3333333   0.5773503  -0.3063725), wk =   0.0023148

                       cryst. coord.
        k(    1) = (   0.0000000   0.0000000   0.0000000), wk =   0.0011574
        k(    2) = (   0.0000000   0.0000000   0.1666667), wk =   0.0023148
        k(    3) = (   0.0000000   0.0000000   0.3333333), wk =   0.0023148
        k(    4) = (   0.0000000   0.0000000  -0.5000000), wk =   0.0011574
        k(    5) = (   0.0000000   0.0833333   0.0000000), wk =   0.0069444
        k(    6) = (   0.0000000   0.0833333   0.1666667), wk =   0.0138889
        k(    7) = (   0.0000000   0.0833333   0.3333333), wk =   0.0138889
        k(    8) = (   0.0000000   0.0833333  -0.5000000), wk =   0.0069444
        k(    9) = (   0.0000000   0.1666667   0.0000000), wk =   0.0069444
        k(   10) = (   0.0000000   0.1666667   0.1666667), wk =   0.0138889
        k(   11) = (   0.0000000   0.1666667   0.3333333), wk =   0.0138889
        k(   12) = (   0.0000000   0.1666667  -0.5000000), wk =   0.0069444
        k(   13) = (   0.0000000   0.2500000   0.0000000), wk =   0.0069444
        k(   14) = (   0.0000000   0.2500000   0.1666667), wk =   0.0138889
        k(   15) = (   0.0000000   0.2500000   0.3333333), wk =   0.0138889
        k(   16) = (   0.0000000   0.2500000  -0.5000000), wk =   0.0069444
        k(   17) = (   0.0000000   0.3333333   0.0000000), wk =   0.0069444
        k(   18) = (   0.0000000   0.3333333   0.1666667), wk =   0.0138889
        k(   19) = (   0.0000000   0.3333333   0.3333333), wk =   0.0138889
        k(   20) = (   0.0000000   0.3333333  -0.5000000), wk =   0.0069444
        k(   21) = (   0.0000000   0.4166667   0.0000000), wk =   0.0069444
        k(   22) = (   0.0000000   0.4166667   0.1666667), wk =   0.0138889
        k(   23) = (   0.0000000   0.4166667   0.3333333), wk =   0.0138889
        k(   24) = (   0.0000000   0.4166667  -0.5000000), wk =   0.0069444
        k(   25) = (   0.0000000  -0.5000000   0.0000000), wk =   0.0034722
        k(   26) = (   0.0000000  -0.5000000   0.1666667), wk =   0.0069444
        k(   27) = (   0.0000000  -0.5000000   0.3333333), wk =   0.0069444
        k(   28) = (   0.0000000  -0.5000000  -0.5000000), wk =   0.0034722
        k(   29) = (   0.0833333   0.0833333   0.0000000), wk =   0.0069444
        k(   30) = (   0.0833333   0.0833333   0.1666667), wk =   0.0138889
        k(   31) = (   0.0833333   0.0833333   0.3333333), wk =   0.0138889
        k(   32) = (   0.0833333   0.0833333  -0.5000000), wk =   0.0069444
        k(   33) = (   0.0833333   0.1666667   0.0000000), wk =   0.0138889
        k(   34) = (   0.0833333   0.1666667   0.1666667), wk =   0.0277778
        k(   35) = (   0.0833333   0.1666667   0.3333333), wk =   0.0277778
        k(   36) = (   0.0833333   0.1666667  -0.5000000), wk =   0.0138889
        k(   37) = (   0.0833333   0.2500000   0.0000000), wk =   0.0138889
        k(   38) = (   0.0833333   0.2500000   0.1666667), wk =   0.0277778
        k(   39) = (   0.0833333   0.2500000   0.3333333), wk =   0.0277778
        k(   40) = (   0.0833333   0.2500000  -0.5000000), wk =   0.0138889
        k(   41) = (   0.0833333   0.3333333   0.0000000), wk =   0.0138889
        k(   42) = (   0.0833333   0.3333333   0.1666667), wk =   0.0277778
        k(   43) = (   0.0833333   0.3333333   0.3333333), wk =   0.0277778
        k(   44) = (   0.0833333   0.3333333  -0.5000000), wk =   0.0138889
        k(   45) = (   0.0833333   0.4166667   0.0000000), wk =   0.0138889
        k(   46) = (   0.0833333   0.4166667   0.1666667), wk =   0.0277778
        k(   47) = (   0.0833333   0.4166667   0.3333333), wk =   0.0277778
        k(   48) = (   0.0833333   0.4166667  -0.5000000), wk =   0.0138889
        k(   49) = (   0.1666667   0.1666667   0.0000000), wk =   0.0069444
        k(   50) = (   0.1666667   0.1666667   0.1666667), wk =   0.0138889
        k(   51) = (   0.1666667   0.1666667   0.3333333), wk =   0.0138889
        k(   52) = (   0.1666667   0.1666667  -0.5000000), wk =   0.0069444
        k(   53) = (   0.1666667   0.2500000   0.0000000), wk =   0.0138889
        k(   54) = (   0.1666667   0.2500000   0.1666667), wk =   0.0277778
        k(   55) = (   0.1666667   0.2500000   0.3333333), wk =   0.0277778
        k(   56) = (   0.1666667   0.2500000  -0.5000000), wk =   0.0138889
        k(   57) = (   0.1666667   0.3333333   0.0000000), wk =   0.0138889
        k(   58) = (   0.1666667   0.3333333   0.1666667), wk =   0.0277778
        k(   59) = (   0.1666667   0.3333333   0.3333333), wk =   0.0277778
        k(   60) = (   0.1666667   0.3333333  -0.5000000), wk =   0.0138889
        k(   61) = (   0.1666667   0.4166667   0.0000000), wk =   0.0069444
        k(   62) = (   0.1666667   0.4166667   0.1666667), wk =   0.0138889
        k(   63) = (   0.1666667   0.4166667   0.3333333), wk =   0.0138889
        k(   64) = (   0.1666667   0.4166667  -0.5000000), wk =   0.0069444
        k(   65) = (   0.2500000   0.2500000   0.0000000), wk =   0.0069444
        k(   66) = (   0.2500000   0.2500000   0.1666667), wk =   0.0138889
        k(   67) = (   0.2500000   0.2500000   0.3333333), wk =   0.0138889
        k(   68) = (   0.2500000   0.2500000  -0.5000000), wk =   0.0069444
        k(   69) = (   0.2500000   0.3333333   0.0000000), wk =   0.0138889
        k(   70) = (   0.2500000   0.3333333   0.1666667), wk =   0.0277778
        k(   71) = (   0.2500000   0.3333333   0.3333333), wk =   0.0277778
        k(   72) = (   0.2500000   0.3333333  -0.5000000), wk =   0.0138889
        k(   73) = (   0.3333333   0.3333333   0.0000000), wk =   0.0023148
        k(   74) = (   0.3333333   0.3333333   0.1666667), wk =   0.0046296
        k(   75) = (   0.3333333   0.3333333   0.3333333), wk =   0.0046296
        k(   76) = (   0.3333333   0.3333333  -0.5000000), wk =   0.0023148

     Dense  grid:    23957 G-vectors     FFT dimensions: (  32,  32,  54)

     Smooth grid:    23223 G-vectors     FFT dimensions: (  32,  32,  54)

     Dynamical RAM for                 wfc:       0.05 MB

     Dynamical RAM for     wfc (w. buffer):       7.11 MB

     Dynamical RAM for           str. fact:       0.02 MB

     Dynamical RAM for           local pot:       0.00 MB

     Dynamical RAM for          nlocal pot:       0.08 MB

     Dynamical RAM for                qrad:       1.70 MB

     Dynamical RAM for          rho,v,vnew:       0.25 MB

     Dynamical RAM for               rhoin:       0.08 MB

     Dynamical RAM for            rho*nmix:       0.59 MB

     Dynamical RAM for           G-vectors:       0.08 MB

     Dynamical RAM for          h,s,v(r/c):       0.08 MB

     Dynamical RAM for          <psi|beta>:       0.01 MB

     Dynamical RAM for                 psi:       0.09 MB

     Dynamical RAM for                hpsi:       0.09 MB

     Dynamical RAM for                spsi:       0.09 MB

     Dynamical RAM for      wfcinit/wfcrot:       0.10 MB

     Dynamical RAM for           addusdens:       3.50 MB

     Estimated static dynamical RAM per process >       9.50 MB

     Estimated max dynamical RAM per process >      13.59 MB

     Estimated total dynamical RAM >     271.75 MB

     Check: negative core charge=   -0.000043
     Generating pointlists ...
     new r_m :   0.4123 (alat units)  1.9480 (a.u.) for type    1

     The initial density is read from file :
     ./out/Co.save/charge-density


     starting charge      34.0417, renormalised to      34.0000

     negative rho (up, down):  1.556E-02 1.039E-02
     Starting wfcs from file
     Checking if some PAW data can be deallocated... 

     total cpu time spent up to now is        0.6 secs

     Self-consistent Calculation

     iteration #  1     ecut=   110.00 Ry     beta= 0.70
     Davidson diagonalization with overlap

---- Real-time Memory Report at c_bands before calling an iterative solver
            57 MiB given to the printing process from OS
             0 MiB allocation reported by mallinfo(arena+hblkhd)
        351516 MiB available memory on the node where the printing process lives
------------------
     ethr =  1.00E-05,  avg # of iterations = 11.7

     negative rho (up, down):  8.683E-05 2.612E-05

     total cpu time spent up to now is        5.8 secs

     total energy              =    -753.39036886 Ry
     estimated scf accuracy    <       0.02253855 Ry

     total magnetization       =     3.36 Bohr mag/cell
     absolute magnetization    =     3.60 Bohr mag/cell

     iteration #  2     ecut=   110.00 Ry     beta= 0.70
     Davidson diagonalization with overlap

---- Real-time Memory Report at c_bands before calling an iterative solver
            82 MiB given to the printing process from OS
             0 MiB allocation reported by mallinfo(arena+hblkhd)
        351271 MiB available memory on the node where the printing process lives
------------------
     ethr =  6.63E-05,  avg # of iterations =  5.0

     negative rho (up, down):  5.430E-06 0.000E+00

     total cpu time spent up to now is        8.0 secs

     total energy              =    -753.41611502 Ry
     estimated scf accuracy    <       0.06172496 Ry

     total magnetization       =     3.39 Bohr mag/cell
     absolute magnetization    =     3.69 Bohr mag/cell

     iteration #  3     ecut=   110.00 Ry     beta= 0.70
     Davidson diagonalization with overlap

---- Real-time Memory Report at c_bands before calling an iterative solver
            83 MiB given to the printing process from OS
             0 MiB allocation reported by mallinfo(arena+hblkhd)
        351261 MiB available memory on the node where the printing process lives
------------------
     ethr =  6.63E-05,  avg # of iterations =  4.0

     total cpu time spent up to now is        9.7 secs

     total energy              =    -753.45319963 Ry
     estimated scf accuracy    <       0.00196086 Ry

     total magnetization       =     3.36 Bohr mag/cell
     absolute magnetization    =     3.67 Bohr mag/cell

     iteration #  4     ecut=   110.00 Ry     beta= 0.70
     Davidson diagonalization with overlap

---- Real-time Memory Report at c_bands before calling an iterative solver
            84 MiB given to the printing process from OS
             0 MiB allocation reported by mallinfo(arena+hblkhd)
        351252 MiB available memory on the node where the printing process lives
------------------
     ethr =  5.77E-06,  avg # of iterations =  5.4

     total cpu time spent up to now is       12.1 secs

     total energy              =    -753.45471433 Ry
     estimated scf accuracy    <       0.00112959 Ry

     total magnetization       =     3.36 Bohr mag/cell
     absolute magnetization    =     3.68 Bohr mag/cell

     iteration #  5     ecut=   110.00 Ry     beta= 0.70
     Davidson diagonalization with overlap

---- Real-time Memory Report at c_bands before calling an iterative solver
            86 MiB given to the printing process from OS
             0 MiB allocation reported by mallinfo(arena+hblkhd)
        351243 MiB available memory on the node where the printing process lives
------------------
     ethr =  3.32E-06,  avg # of iterations =  1.6

     total cpu time spent up to now is       13.3 secs

     total energy              =    -753.45459824 Ry
     estimated scf accuracy    <       0.00044951 Ry

     total magnetization       =     3.36 Bohr mag/cell
     absolute magnetization    =     3.68 Bohr mag/cell

     iteration #  6     ecut=   110.00 Ry     beta= 0.70
     Davidson diagonalization with overlap

---- Real-time Memory Report at c_bands before calling an iterative solver
            86 MiB given to the printing process from OS
             0 MiB allocation reported by mallinfo(arena+hblkhd)
        351234 MiB available memory on the node where the printing process lives
------------------
     ethr =  1.32E-06,  avg # of iterations =  3.0

     total cpu time spent up to now is       14.8 secs

     total energy              =    -753.45468247 Ry
     estimated scf accuracy    <       0.00000721 Ry

     total magnetization       =     3.36 Bohr mag/cell
     absolute magnetization    =     3.69 Bohr mag/cell

     iteration #  7     ecut=   110.00 Ry     beta= 0.70
     Davidson diagonalization with overlap

---- Real-time Memory Report at c_bands before calling an iterative solver
            88 MiB given to the printing process from OS
             0 MiB allocation reported by mallinfo(arena+hblkhd)
        351228 MiB available memory on the node where the printing process lives
------------------
     ethr =  2.12E-08,  avg # of iterations =  8.6

     total cpu time spent up to now is       17.7 secs

     total energy              =    -753.45470622 Ry
     estimated scf accuracy    <       0.00006066 Ry

     total magnetization       =     3.36 Bohr mag/cell
     absolute magnetization    =     3.69 Bohr mag/cell

     iteration #  8     ecut=   110.00 Ry     beta= 0.70
     Davidson diagonalization with overlap

---- Real-time Memory Report at c_bands before calling an iterative solver
            89 MiB given to the printing process from OS
             0 MiB allocation reported by mallinfo(arena+hblkhd)
        351219 MiB available memory on the node where the printing process lives
------------------
     ethr =  2.12E-08,  avg # of iterations =  4.4

     total cpu time spent up to now is       19.7 secs

     total energy              =    -753.45470839 Ry
     estimated scf accuracy    <       0.00000596 Ry

     total magnetization       =     3.36 Bohr mag/cell
     absolute magnetization    =     3.69 Bohr mag/cell

     iteration #  9     ecut=   110.00 Ry     beta= 0.70
     Davidson diagonalization with overlap

---- Real-time Memory Report at c_bands before calling an iterative solver
            90 MiB given to the printing process from OS
             0 MiB allocation reported by mallinfo(arena+hblkhd)
        351212 MiB available memory on the node where the printing process lives
------------------
     ethr =  1.75E-08,  avg # of iterations =  4.4

     total cpu time spent up to now is       21.6 secs

     total energy              =    -753.45471147 Ry
     estimated scf accuracy    <       0.00000188 Ry

     total magnetization       =     3.36 Bohr mag/cell
     absolute magnetization    =     3.69 Bohr mag/cell

     iteration # 10     ecut=   110.00 Ry     beta= 0.70
     Davidson diagonalization with overlap

---- Real-time Memory Report at c_bands before calling an iterative solver
            91 MiB given to the printing process from OS
             0 MiB allocation reported by mallinfo(arena+hblkhd)
        351206 MiB available memory on the node where the printing process lives
------------------
     ethr =  5.53E-09,  avg # of iterations =  3.4

     total cpu time spent up to now is       23.1 secs

     total energy              =    -753.45471038 Ry
     estimated scf accuracy    <       0.00000337 Ry

     total magnetization       =     3.36 Bohr mag/cell
     absolute magnetization    =     3.69 Bohr mag/cell

     iteration # 11     ecut=   110.00 Ry     beta= 0.70
     Davidson diagonalization with overlap

---- Real-time Memory Report at c_bands before calling an iterative solver
            92 MiB given to the printing process from OS
             0 MiB allocation reported by mallinfo(arena+hblkhd)
        351203 MiB available memory on the node where the printing process lives
------------------
     ethr =  5.53E-09,  avg # of iterations =  3.4
 
     Magnetic moment per site  (integrated on atomic sphere of radius R)
     atom   1 (R=0.412)  charge= 15.6177  magn=  1.7558
     atom   2 (R=0.412)  charge= 15.6177  magn=  1.7558

     total cpu time spent up to now is       24.7 secs

     End of self-consistent calculation

 ------ SPIN UP ------------


          k = 0.0000 0.0000 0.0000 (  2875 PWs)   bands (ev):

   -77.8392 -77.7890 -41.2322 -40.9504 -40.9504 -40.9325 -40.9078 -40.9078
     9.3953  13.1653  15.6149  15.6933  15.6933  15.9878  15.9878  16.3432
    16.3432  17.3868  17.3868  17.9667  24.2965

     occupation numbers 
     1.0000   1.0000   1.0000   1.0000   1.0000   1.0000   1.0000   1.0000
     1.0000   1.0000   1.0000   1.0000   1.0000   1.0000   1.0000   1.0000
     1.0000   1.0000   1.0000   1.0000   0.0000

          k = 0.0000 0.0000 0.1021 (  2900 PWs)   bands (ev):

   -77.8358 -77.7924 -41.2124 -40.9529 -40.9476 -40.9476 -40.9106 -40.9106
     9.6655  13.0891  15.5484  15.6348  15.6348  15.9196  15.9196  16.4944
    16.4944  17.0310  17.3695  17.3695  25.7957

     occupation numbers 
     1.0000   1.0000   1.0000   1.0000   1.0000   1.0000   1.0000   1.0000
     1.0000   1.0000   1.0000   1.0000   1.0000   1.0000   1.0000   1.0000
     1.0000   1.0000   1.0000   1.0000   0.0000

          k = 0.0000 0.0000 0.2042 (  2894 PWs)   bands (ev):

   -77.8267 -77.8016 -41.1580 -41.0082 -40.9397 -40.9397 -40.9185 -40.9185
    10.4409  12.6352  15.3953  15.5848  15.5848  15.7557  15.7686  15.7686
    16.7962  16.7962  17.2832  17.2832  28.9578

     occupation numbers 
     1.0000   1.0000   1.0000   1.0000   1.0000   1.0000   1.0000   1.0000
     1.0000   1.0000   1.0000   1.0000   1.0000   1.0000   1.0000   1.0000
     1.0000   1.0000   1.0000   1.0000   0.0000

          k = 0.0000 0.0000-0.3064 (  2894 PWs)   bands (ev):

   -77.8141 -77.8141 -41.0834 -41.0834 -40.9291 -40.9291 -40.9291 -40.9291
    11.5754  11.5754  15.3238  15.3238  15.6336  15.6336  15.6336  15.6336
    17.0863  17.0863  17.0863  17.0863  32.7364

     occupation numbers 
     1.0000   1.0000   1.0000   1.0000   1.0000   1.0000   1.0000   1.0000
     1.0000   1.0000   1.0000   1.0000   1.0000   1.0000   1.0000   1.0000
     1.0000   1.0000   1.0000   1.0000   0.0000

          k = 0.0000 0.0962 0.0000 (  2877 PWs)   bands (ev):

   -77.8362 -77.7875 -41.2256 -40.9654 -40.9552 -40.9351 -40.9234 -40.9104
     9.6354  13.3108  15.4464  15.8050  15.8282  15.9388  16.0872  16.1834
    16.2745  16.5992  17.4149  19.0769  24.3378

     occupation numbers 
     1.0000   1.0000   1.0000   1.0000   1.0000   1.0000   1.0000   1.0000
     1.0000   1.0000   1.0000   1.0000   1.0000   1.0000   1.0000   1.0000
     1.0000   1.0000   1.0000   0.0000   0.0000

          k = 0.0000 0.0962 0.1021 (  2896 PWs)   bands (ev):

   -77.8329 -77.7908 -41.2069 -40.9624 -40.9583 -40.9522 -40.9225 -40.9134
     9.9014  13.2489  15.4456  15.6660  15.7312  15.7650  16.0134  16.2811
    16.4508  16.5203  17.3907  18.3171  25.9065

     occupation numbers 
     1.0000   1.0000   1.0000   1.0000   1.0000   1.0000   1.0000   1.0000
     1.0000   1.0000   1.0000   1.0000   1.0000   1.0000   1.0000   1.0000
     1.0000   1.0000   1.0000   0.0001   0.0000

          k = 0.0000 0.0962 0.2042 (  2892 PWs)   bands (ev):

   -77.8241 -77.7997 -41.1554 -41.0129 -40.9532 -40.9440 -40.9294 -40.9216
    10.6648  12.8229  15.3363  15.3805  15.5069  15.6741  15.8609  15.9060
    16.7710  16.8129  17.2887  17.5735  29.1128

     occupation numbers 
     1.0000   1.0000   1.0000   1.0000   1.0000   1.0000   1.0000   1.0000
     1.0000   1.0000   1.0000   1.0000   1.0000   1.0000   1.0000   1.0000
     1.0000   1.0000   1.0000   1.0000   0.0000

          k = 0.0000 0.0962-0.3064 (  2890 PWs)   bands (ev):

   -77.8119 -77.8119 -41.0846 -41.0846 -40.9411 -40.9411 -40.9328 -40.9328
    11.7813  11.7813  15.1915  15.1915  15.6377  15.6377  15.7242  15.7242
    17.0754  17.0754  17.1744  17.1744  32.9058

     occupation numbers 
     1.0000   1.0000   1.0000   1.0000   1.0000   1.0000   1.0000   1.0000
     1.0000   1.0000   1.0000   1.0000   1.0000   1.0000   1.0000   1.0000
     1.0000   1.0000   1.0000   1.0000   0.0000

          k = 0.0000 0.1925 0.0000 (  2877 PWs)   bands (ev):

   -77.8279 -77.7837 -41.2069 -41.0067 -40.9682 -40.9656 -40.9430 -40.9177
    10.3300  13.6713  15.1917  15.4482  15.7593  16.1050  16.1206  16.1220
    16.2695  16.3659  17.4741  20.6409  24.4833

     occupation numbers 
     1.0000   1.0000   1.0000   1.0000   1.0000   1.0000   1.0000   1.0000
     1.0000   1.0000   1.0000   1.0000   1.0000   1.0000   1.0000   1.0000
     1.0000   1.0000   1.0000   0.0000   0.0000

          k = 0.0000 0.1925 0.1021 (  2893 PWs)   bands (ev):

   -77.8250 -77.7867 -41.1916 -41.0023 -40.9850 -40.9649 -40.9436 -40.9211
    10.5807  13.6534  15.1845  15.2312  15.6424  15.9407  16.0149  16.2569
    16.4294  16.5054  17.4348  19.5206  26.2665

     occupation numbers 
     1.0000   1.0000   1.0000   1.0000   1.0000   1.0000   1.0000   1.0000
     1.0000   1.0000   1.0000   1.0000   1.0000   1.0000   1.0000   1.0000
     1.0000   1.0000   1.0000   0.0000   0.0000

          k = 0.0000 0.1925 0.2042 (  2899 PWs)   bands (ev):

   -77.8169 -77.7948 -41.1498 -41.0328 -40.9876 -40.9556 -40.9531 -40.9304
    11.2968  13.3092  14.8589  15.2873  15.3706  15.8459  15.8926  16.1165
    16.7448  16.8934  17.3004  18.2007  29.5765

     occupation numbers 
     1.0000   1.0000   1.0000   1.0000   1.0000   1.0000   1.0000   1.0000
     1.0000   1.0000   1.0000   1.0000   1.0000   1.0000   1.0000   1.0000
     1.0000   1.0000   1.0000   1.0000   0.0000

          k = 0.0000 0.1925-0.3064 (  2890 PWs)   bands (ev):

   -77.8058 -77.8058 -41.0920 -41.0920 -40.9698 -40.9698 -40.9430 -40.9430
    12.3370  12.3370  14.9742  14.9742  15.5756  15.5756  15.9654  15.9654
    17.0598  17.0598  17.4122  17.4122  33.3721

     occupation numbers 
     1.0000   1.0000   1.0000   1.0000   1.0000   1.0000   1.0000   1.0000
     1.0000   1.0000   1.0000   1.0000   1.0000   1.0000   1.0000   1.0000
     1.0000   1.0000   1.0000   1.0000   0.0000

          k = 0.0000 0.2887 0.0000 (  2904 PWs)   bands (ev):

   -77.8162 -77.7789 -41.1788 -41.0636 -41.0224 -40.9855 -40.9563 -40.9282
    11.3827  13.9623  14.7435  15.0377  15.6576  15.9010  16.0694  16.5439
    16.5780  16.7662  17.5291  22.4052  24.7689

     occupation numbers 
     1.0000   1.0000   1.0000   1.0000   1.0000   1.0000   1.0000   1.0000
     1.0000   1.0000   1.0000   1.0000   1.0000   1.0000   1.0000   1.0000
     1.0000   1.0000   1.0000   0.0000   0.0000

          k = 0.0000 0.2887 0.1021 (  2901 PWs)   bands (ev):

   -77.8137 -77.7814 -41.1714 -41.0553 -41.0357 -40.9817 -40.9587 -40.9320
    11.5921  13.9975  14.6058  15.0876  15.5131  15.9389  16.0698  16.6175
    16.6653  16.7247  17.4769  20.7762  26.9148

     occupation numbers 
     1.0000   1.0000   1.0000   1.0000   1.0000   1.0000   1.0000   1.0000
     1.0000   1.0000   1.0000   1.0000   1.0000   1.0000   1.0000   1.0000
     1.0000   1.0000   1.0000   0.0000   0.0000

          k = 0.0000 0.2887 0.2042 (  2912 PWs)   bands (ev):

   -77.8069 -77.7882 -41.1495 -41.0752 -41.0257 -40.9712 -40.9712 -40.9426
    12.1760  13.7450  14.5386  15.1075  15.3979  15.9177  16.0577  16.4753
    16.8664  17.0454  17.3260  18.9575  30.2359

     occupation numbers 
     1.0000   1.0000   1.0000   1.0000   1.0000   1.0000   1.0000   1.0000
     1.0000   1.0000   1.0000   1.0000   1.0000   1.0000   1.0000   1.0000
     1.0000   1.0000   1.0000   0.0000   0.0000

          k = 0.0000 0.2887-0.3064 (  2912 PWs)   bands (ev):

   -77.7976 -77.7976 -41.1151 -41.1151 -40.9958 -40.9958 -40.9569 -40.9569
    12.9862  12.9862  14.8234  14.8234  15.6349  15.6349  16.2508  16.2508
    17.1039  17.1039  17.7480  17.7480  32.4893

     occupation numbers 
     1.0000   1.0000   1.0000   1.0000   1.0000   1.0000   1.0000   1.0000
     1.0000   1.0000   1.0000   1.0000   1.0000   1.0000   1.0000   1.0000
     1.0000   1.0000   1.0000   1.0000   0.0000

          k = 0.0000 0.3849 0.0000 (  2894 PWs)   bands (ev):

   -77.8037 -77.7748 -41.1459 -41.1209 -41.0782 -41.0024 -40.9743 -40.9390
    12.5365  13.8981  14.2374  15.1466  15.7169  15.7763  15.8869  17.0659
    17.1996  17.2233  17.5659  24.3324  24.8950

     occupation numbers 
     1.0000   1.0000   1.0000   1.0000   1.0000   1.0000   1.0000   1.0000
     1.0000   1.0000   1.0000   1.0000   1.0000   1.0000   1.0000   1.0000
     1.0000   1.0000   1.0000   0.0000   0.0000

          k = 0.0000 0.3849 0.1021 (  2896 PWs)   bands (ev):

   -77.8017 -77.7768 -41.1617 -41.1005 -41.0827 -40.9982 -40.9743 -40.9432
    12.6356  13.9219  14.2723  14.9974  15.7105  15.8057  16.2278  17.0795
    17.1119  17.1608  17.5197  22.0058  27.0856

     occupation numbers 
     1.0000   1.0000   1.0000   1.0000   1.0000   1.0000   1.0000   1.0000
     1.0000   1.0000   1.0000   1.0000   1.0000   1.0000   1.0000   1.0000
     1.0000   1.0000   1.0000   0.0000   0.0000

          k = 0.0000 0.3849 0.2042 (  2911 PWs)   bands (ev):

   -77.7965 -77.7821 -41.1672 -41.1254 -41.0443 -40.9866 -40.9824 -40.9549
    12.9120  13.7357  14.4142  14.9020  15.8216  16.0559  16.5378  16.8022
    17.1806  17.2691  17.4164  19.8393  28.2093

     occupation numbers 
     1.0000   1.0000   1.0000   1.0000   1.0000   1.0000   1.0000   1.0000
     1.0000   1.0000   1.0000   1.0000   1.0000   1.0000   1.0000   1.0000
     1.0000   1.0000   1.0000   0.0000   0.0000

          k = 0.0000 0.3849-0.3064 (  2914 PWs)   bands (ev):

   -77.7893 -77.7893 -41.1533 -41.1533 -41.0064 -41.0064 -40.9708 -40.9708
    13.3130  13.3130  14.6933  14.6933  16.2272  16.2272  16.4175  16.4175
    17.2949  17.2949  18.2249  18.2249  29.3075

     occupation numbers 
     1.0000   1.0000   1.0000   1.0000   1.0000   1.0000   1.0000   1.0000
     1.0000   1.0000   1.0000   1.0000   1.0000   1.0000   1.0000   1.0000
     1.0000   1.0000   1.0000   1.0000   0.0000

          k = 0.0000 0.4811 0.0000 (  2914 PWs)   bands (ev):

   -77.7934 -77.7729 -41.1631 -41.1185 -41.1155 -41.0146 -40.9938 -40.9471
    13.3013  13.7131  13.9363  15.4973  15.5911  15.7572  15.9790  17.4311
    17.5573  17.5849  18.3275  23.1685  26.3271

     occupation numbers 
     1.0000   1.0000   1.0000   1.0000   1.0000   1.0000   1.0000   1.0000
     1.0000   1.0000   1.0000   1.0000   1.0000   1.0000   1.0000   1.0000
     1.0000   1.0000   0.0000   0.0000   0.0000

          k = 0.0000 0.4811 0.1021 (  2904 PWs)   bands (ev):

   -77.7921 -77.7743 -41.1805 -41.1343 -41.0857 -41.0101 -40.9903 -40.9516
    13.1973  13.7061  14.2368  14.8901  15.6992  15.9859  16.5815  17.3491
    17.4590  17.6126  18.1738  22.3812  25.6774

     occupation numbers 
     1.0000   1.0000   1.0000   1.0000   1.0000   1.0000   1.0000   1.0000
     1.0000   1.0000   1.0000   1.0000   1.0000   1.0000   1.0000   1.0000
     1.0000   1.0000   1.0000   0.0000   0.0000

          k = 0.0000 0.4811 0.2042 (  2908 PWs)   bands (ev):

   -77.7883 -77.7781 -41.1937 -41.1634 -41.0425 -40.9977 -40.9910 -40.9640
    13.1676  13.6303  14.3988  14.7067  16.0056  16.2403  16.9490  17.4907
    17.5090  17.5876  17.8825  20.6864  25.8298

     occupation numbers 
     1.0000   1.0000   1.0000   1.0000   1.0000   1.0000   1.0000   1.0000
     1.0000   1.0000   1.0000   1.0000   1.0000   1.0000   1.0000   1.0000
     1.0000   1.0000   1.0000   0.0000   0.0000

          k = 0.0000 0.4811-0.3064 (  2904 PWs)   bands (ev):

   -77.7832 -77.7832 -41.1871 -41.1871 -41.0082 -41.0082 -40.9809 -40.9809
    13.3467  13.3467  14.5720  14.5720  16.4550  16.4550  16.9330  16.9330
    17.5402  17.5402  19.0662  19.0662  26.6004

     occupation numbers 
     1.0000   1.0000   1.0000   1.0000   1.0000   1.0000   1.0000   1.0000
     1.0000   1.0000   1.0000   1.0000   1.0000   1.0000   1.0000   1.0000
     1.0000   1.0000   0.0000   0.0000   0.0000

          k = 0.0000-0.5774 0.0000 (  2906 PWs)   bands (ev):

   -77.7892 -77.7728 -41.1786 -41.1331 -41.1014 -41.0190 -41.0040 -40.9501
    13.5664  13.5680  13.8366  15.5466  15.7102  15.7444  16.0513  17.5632
    17.5906  17.7019  19.4820  21.4601  27.6242

     occupation numbers 
     1.0000   1.0000   1.0000   1.0000   1.0000   1.0000   1.0000   1.0000
     1.0000   1.0000   1.0000   1.0000   1.0000   1.0000   1.0000   1.0000
     1.0000   1.0000   0.0000   0.0000   0.0000

          k = 0.0000-0.5774 0.1021 (  2916 PWs)   bands (ev):

   -77.7881 -77.7739 -41.1923 -41.1481 -41.0781 -41.0144 -40.9985 -40.9547
    13.2995  13.6139  14.2692  14.8618  15.6602  16.0692  16.7807  17.3990
    17.5985  17.6947  19.2829  21.2879  26.7712

     occupation numbers 
     1.0000   1.0000   1.0000   1.0000   1.0000   1.0000   1.0000   1.0000
     1.0000   1.0000   1.0000   1.0000   1.0000   1.0000   1.0000   1.0000
     1.0000   1.0000   0.0000   0.0000   0.0000

          k = 0.0000-0.5774 0.2042 (  2900 PWs)   bands (ev):

   -77.7851 -77.7769 -41.2053 -41.1774 -41.0387 -41.0018 -40.9952 -40.9673
    13.1899  13.5887  14.4252  14.6159  15.9828  16.3781  16.9784  17.6191
    17.6243  17.6747  18.9849  20.7059  25.7864

     occupation numbers 
     1.0000   1.0000   1.0000   1.0000   1.0000   1.0000   1.0000   1.0000
     1.0000   1.0000   1.0000   1.0000   1.0000   1.0000   1.0000   1.0000
     1.0000   1.0000   0.0000   0.0000   0.0000

          k = 0.0000-0.5774-0.3064 (  2912 PWs)   bands (ev):

   -77.7810 -77.7810 -41.2001 -41.2001 -41.0081 -41.0081 -40.9846 -40.9846
    13.3325  13.3325  14.5248  14.5248  16.4567  16.4567  17.1639  17.1639
    17.6471  17.6471  19.7328  19.7328  25.3399

     occupation numbers 
     1.0000   1.0000   1.0000   1.0000   1.0000   1.0000   1.0000   1.0000
     1.0000   1.0000   1.0000   1.0000   1.0000   1.0000   1.0000   1.0000
     1.0000   1.0000   0.0000   0.0000   0.0000

          k = 0.0833 0.1443 0.0000 (  2888 PWs)   bands (ev):

   -77.8306 -77.7849 -41.2130 -40.9911 -40.9708 -40.9462 -40.9404 -40.9173
    10.1035  13.5695  15.2460  15.6891  15.8340  15.9728  16.0331  16.0711
    16.3049  16.3932  17.4484  20.2027  24.4331

     occupation numbers 
     1.0000   1.0000   1.0000   1.0000   1.0000   1.0000   1.0000   1.0000
     1.0000   1.0000   1.0000   1.0000   1.0000   1.0000   1.0000   1.0000
     1.0000   1.0000   1.0000   0.0000   0.0000

          k = 0.0833 0.1443 0.1021 (  2877 PWs)   bands (ev):

   -77.8275 -77.7880 -41.1965 -40.9869 -40.9780 -40.9611 -40.9361 -40.9205
    10.3600  13.5374  15.2730  15.3666  15.6865  15.8934  15.9954  16.1742
    16.4436  16.5038  17.4165  19.1940  26.1438

     occupation numbers 
     1.0000   1.0000   1.0000   1.0000   1.0000   1.0000   1.0000   1.0000
     1.0000   1.0000   1.0000   1.0000   1.0000   1.0000   1.0000   1.0000
     1.0000   1.0000   1.0000   0.0000   0.0000

          k = 0.0833 0.1443 0.2042 (  2904 PWs)   bands (ev):

   -77.8192 -77.7963 -41.1513 -41.0252 -40.9755 -40.9569 -40.9419 -40.9292
    11.0945  13.1662  14.9782  15.3317  15.3826  15.8180  15.8691  16.0378
    16.7729  16.8425  17.2993  18.0189  29.4247

     occupation numbers 
     1.0000   1.0000   1.0000   1.0000   1.0000   1.0000   1.0000   1.0000
     1.0000   1.0000   1.0000   1.0000   1.0000   1.0000   1.0000   1.0000
     1.0000   1.0000   1.0000   1.0000   0.0000

          k = 0.0833 0.1443-0.3064 (  2900 PWs)   bands (ev):

   -77.8078 -77.8078 -41.0888 -41.0888 -40.9611 -40.9611 -40.9403 -40.9403
    12.1655  12.1655  15.0300  15.0300  15.5772  15.5772  15.9019  15.9019
    17.0649  17.0649  17.3380  17.3380  33.2328

     occupation numbers 
     1.0000   1.0000   1.0000   1.0000   1.0000   1.0000   1.0000   1.0000
     1.0000   1.0000   1.0000   1.0000   1.0000   1.0000   1.0000   1.0000
     1.0000   1.0000   1.0000   1.0000   0.0000

          k = 0.0833 0.2406 0.0000 (  2890 PWs)   bands (ev):

   -77.8206 -77.7806 -41.1894 -41.0366 -41.0101 -40.9721 -40.9510 -40.9291
    10.9855  13.9401  14.9870  15.0012  15.7062  15.8491  16.2251  16.2473
    16.4488  16.7140  17.4886  21.7684  24.6689

     occupation numbers 
     1.0000   1.0000   1.0000   1.0000   1.0000   1.0000   1.0000   1.0000
     1.0000   1.0000   1.0000   1.0000   1.0000   1.0000   1.0000   1.0000
     1.0000   1.0000   1.0000   0.0000   0.0000

          k = 0.0833 0.2406 0.1021 (  2894 PWs)   bands (ev):

   -77.8179 -77.7833 -41.1784 -41.0308 -41.0194 -40.9771 -40.9506 -40.9325
    11.2157  13.9663  14.7978  15.0355  15.5929  15.8547  16.0723  16.3664
    16.6295  16.6919  17.4523  20.3433  26.6686

     occupation numbers 
     1.0000   1.0000   1.0000   1.0000   1.0000   1.0000   1.0000   1.0000
     1.0000   1.0000   1.0000   1.0000   1.0000   1.0000   1.0000   1.0000
     1.0000   1.0000   1.0000   0.0000   0.0000

          k = 0.0833 0.2406 0.2042 (  2903 PWs)   bands (ev):

   -77.8106 -77.7906 -41.1475 -41.0570 -41.0100 -40.9770 -40.9561 -40.9418
    11.8668  13.6823  14.6199  15.1387  15.3322  15.7449  16.0350  16.3500
    16.8614  16.9644  17.3367  18.6943  30.0358

     occupation numbers 
     1.0000   1.0000   1.0000   1.0000   1.0000   1.0000   1.0000   1.0000
     1.0000   1.0000   1.0000   1.0000   1.0000   1.0000   1.0000   1.0000
     1.0000   1.0000   1.0000   0.0000   0.0000

          k = 0.0833 0.2406-0.3064 (  2904 PWs)   bands (ev):

   -77.8006 -77.8006 -41.1035 -41.1035 -40.9880 -40.9880 -40.9533 -40.9533
    12.7966  12.7966  14.8808  14.8808  15.4731  15.4731  16.1759  16.1759
    17.1093  17.1093  17.6276  17.6276  33.6567

     occupation numbers 
     1.0000   1.0000   1.0000   1.0000   1.0000   1.0000   1.0000   1.0000
     1.0000   1.0000   1.0000   1.0000   1.0000   1.0000   1.0000   1.0000
     1.0000   1.0000   1.0000   1.0000   0.0000

          k = 0.0833 0.3368 0.0000 (  2899 PWs)   bands (ev):

   -77.8084 -77.7762 -41.1587 -41.0923 -41.0587 -40.9962 -40.9669 -40.9419
    12.1251  14.0631  14.4464  14.9244  15.6642  15.7076  16.0497  16.6288
    16.9416  17.2693  17.5219  23.5771  25.0391

     occupation numbers 
     1.0000   1.0000   1.0000   1.0000   1.0000   1.0000   1.0000   1.0000
     1.0000   1.0000   1.0000   1.0000   1.0000   1.0000   1.0000   1.0000
     1.0000   1.0000   1.0000   0.0000   0.0000

          k = 0.0833 0.3368 0.1021 (  2896 PWs)   bands (ev):

   -77.8062 -77.7784 -41.1606 -41.0818 -41.0644 -40.9965 -40.9663 -40.9452
    12.2868  14.1199  14.3591  14.9687  15.5080  15.8855  16.0231  16.6583
    17.0244  17.1314  17.5363  21.5891  27.4279

     occupation numbers 
     1.0000   1.0000   1.0000   1.0000   1.0000   1.0000   1.0000   1.0000
     1.0000   1.0000   1.0000   1.0000   1.0000   1.0000   1.0000   1.0000
     1.0000   1.0000   1.0000   0.0000   0.0000

          k = 0.0833 0.3368 0.2042 (  2901 PWs)   bands (ev):

   -77.8004 -77.7843 -41.1549 -41.1035 -41.0377 -40.9931 -40.9714 -40.9545
    12.7245  13.8688  14.4719  15.0275  15.4308  15.8962  16.0959  16.6654
    17.0798  17.2408  17.5101  19.5393  29.8328

     occupation numbers 
     1.0000   1.0000   1.0000   1.0000   1.0000   1.0000   1.0000   1.0000
     1.0000   1.0000   1.0000   1.0000   1.0000   1.0000   1.0000   1.0000
     1.0000   1.0000   1.0000   0.0000   0.0000

          k = 0.0833 0.3368-0.3064 (  2906 PWs)   bands (ev):

   -77.7923 -77.7923 -41.1342 -41.1342 -41.0058 -41.0058 -40.9676 -40.9676
    13.3088  13.3088  14.7980  14.7980  15.6478  15.6478  16.3598  16.3598
    17.3108  17.3108  18.0802  18.0802  31.0140

     occupation numbers 
     1.0000   1.0000   1.0000   1.0000   1.0000   1.0000   1.0000   1.0000
     1.0000   1.0000   1.0000   1.0000   1.0000   1.0000   1.0000   1.0000
     1.0000   1.0000   1.0000   1.0000   0.0000

          k = 0.0833 0.4330 0.0000 (  2900 PWs)   bands (ev):

   -77.7969 -77.7734 -41.1416 -41.1262 -41.1009 -41.0154 -40.9865 -40.9529
    13.1339  13.8918  14.0733  15.1490  15.5481  15.8497  15.8964  17.1385
    17.3606  17.5418  18.0526  24.4699  25.5467

     occupation numbers 
     1.0000   1.0000   1.0000   1.0000   1.0000   1.0000   1.0000   1.0000
     1.0000   1.0000   1.0000   1.0000   1.0000   1.0000   1.0000   1.0000
     1.0000   1.0000   1.0000   0.0000   0.0000

          k = 0.0833 0.4330 0.1021 (  2907 PWs)   bands (ev):

   -77.7953 -77.7750 -41.1654 -41.1190 -41.0864 -41.0128 -40.9839 -40.9561
    13.1294  13.9080  14.2214  14.9035  15.6234  15.9335  16.1883  17.0895
    17.3708  17.4176  18.0508  22.6749  26.2308

     occupation numbers 
     1.0000   1.0000   1.0000   1.0000   1.0000   1.0000   1.0000   1.0000
     1.0000   1.0000   1.0000   1.0000   1.0000   1.0000   1.0000   1.0000
     1.0000   1.0000   1.0000   0.0000   0.0000

          k = 0.0833 0.4330 0.2042 (  2897 PWs)   bands (ev):

   -77.7910 -77.7792 -41.1778 -41.1458 -41.0454 -41.0042 -40.9859 -40.9645
    13.2127  13.7751  14.4053  14.8591  15.7282  16.1443  16.5747  16.8427
    17.2551  17.5634  18.1163  20.5629  26.9424

     occupation numbers 
     1.0000   1.0000   1.0000   1.0000   1.0000   1.0000   1.0000   1.0000
     1.0000   1.0000   1.0000   1.0000   1.0000   1.0000   1.0000   1.0000
     1.0000   1.0000   1.0000   0.0000   0.0000

          k = 0.0833 0.4330-0.3064 (  2896 PWs)   bands (ev):

   -77.7851 -77.7851 -41.1697 -41.1697 -41.0137 -41.0137 -40.9783 -40.9783
    13.4517  13.4517  14.6798  14.6798  16.1535  16.1535  16.5300  16.5300
    17.5139  17.5139  18.9274  18.9274  27.9672

     occupation numbers 
     1.0000   1.0000   1.0000   1.0000   1.0000   1.0000   1.0000   1.0000
     1.0000   1.0000   1.0000   1.0000   1.0000   1.0000   1.0000   1.0000
     1.0000   1.0000   0.0000   0.0000   0.0000

          k = 0.0833 0.5292 0.0000 (  2910 PWs)   bands (ev):

   -77.7892 -77.7727 -41.1702 -41.1254 -41.1015 -41.0260 -41.0038 -40.9593
    13.5878  13.7302  13.8874  15.5083  15.5097  15.7103  16.0494  17.5070
    17.5501  17.5814  19.3169  22.2256  27.4319

     occupation numbers 
     1.0000   1.0000   1.0000   1.0000   1.0000   1.0000   1.0000   1.0000
     1.0000   1.0000   1.0000   1.0000   1.0000   1.0000   1.0000   1.0000
     1.0000   1.0000   0.0000   0.0000   0.0000

          k = 0.0833 0.5292 0.1021 (  2906 PWs)   bands (ev):

   -77.7881 -77.7738 -41.1841 -41.1409 -41.0790 -41.0206 -40.9991 -40.9625
    13.3789  13.7425  14.3031  14.8463  15.5560  16.1133  16.4546  17.3452
    17.5245  17.6094  19.2546  21.9673  26.1893

     occupation numbers 
     1.0000   1.0000   1.0000   1.0000   1.0000   1.0000   1.0000   1.0000
     1.0000   1.0000   1.0000   1.0000   1.0000   1.0000   1.0000   1.0000
     1.0000   1.0000   0.0000   0.0000   0.0000

          k = 0.0833 0.5292 0.2042 (  2907 PWs)   bands (ev):

   -77.7851 -77.7768 -41.1973 -41.1701 -41.0441 -41.0062 -40.9982 -40.9701
    13.2914  13.7127  14.4333  14.7220  15.7234  16.4387  16.8286  17.0915
    17.4859  17.6718  19.3038  21.1240  25.4836

     occupation numbers 
     1.0000   1.0000   1.0000   1.0000   1.0000   1.0000   1.0000   1.0000
     1.0000   1.0000   1.0000   1.0000   1.0000   1.0000   1.0000   1.0000
     1.0000   1.0000   0.0000   0.0000   0.0000

          k = 0.0833 0.5292-0.3064 (  2902 PWs)   bands (ev):

   -77.7810 -77.7810 -41.1924 -41.1924 -41.0173 -41.0173 -40.9832 -40.9832
    13.4433  13.4433  14.5964  14.5964  16.2495  16.2495  16.9548  16.9548
    17.5539  17.5539  20.0237  20.0237  25.7606

     occupation numbers 
     1.0000   1.0000   1.0000   1.0000   1.0000   1.0000   1.0000   1.0000
     1.0000   1.0000   1.0000   1.0000   1.0000   1.0000   1.0000   1.0000
     1.0000   1.0000   0.0000   0.0000   0.0000

          k = 0.1667 0.2887 0.0000 (  2902 PWs)   bands (ev):

   -77.8101 -77.7767 -41.1632 -41.0701 -41.0615 -40.9893 -40.9644 -40.9495
    11.9798  14.2410  14.5574  14.7018  15.5910  15.7123  16.1478  16.3874
    16.9287  17.2927  17.4827  23.3221  25.0689

     occupation numbers 
     1.0000   1.0000   1.0000   1.0000   1.0000   1.0000   1.0000   1.0000
     1.0000   1.0000   1.0000   1.0000   1.0000   1.0000   1.0000   1.0000
     1.0000   1.0000   1.0000   0.0000   0.0000

          k = 0.1667 0.2887 0.1021 (  2895 PWs)   bands (ev):

   -77.8079 -77.7790 -41.1611 -41.0690 -41.0574 -40.9978 -40.9597 -40.9531
    12.1626  14.3319  14.4164  14.7528  15.5522  15.7221  16.0381  16.4803
    17.0392  17.1209  17.5499  21.4522  27.4058

     occupation numbers 
     1.0000   1.0000   1.0000   1.0000   1.0000   1.0000   1.0000   1.0000
     1.0000   1.0000   1.0000   1.0000   1.0000   1.0000   1.0000   1.0000
     1.0000   1.0000   1.0000   0.0000   0.0000

          k = 0.1667 0.2887 0.2042 (  2904 PWs)   bands (ev):

   -77.8018 -77.7851 -41.1497 -41.0939 -41.0295 -41.0019 -40.9618 -40.9615
    12.6637  13.9853  14.5795  14.8989  15.3722  15.5927  16.0415  16.6046
    17.0835  17.2285  17.5843  19.4632  30.7316

     occupation numbers 
     1.0000   1.0000   1.0000   1.0000   1.0000   1.0000   1.0000   1.0000
     1.0000   1.0000   1.0000   1.0000   1.0000   1.0000   1.0000   1.0000
     1.0000   1.0000   1.0000   0.0000   0.0000

          k = 0.1667 0.2887-0.3064 (  2900 PWs)   bands (ev):

   -77.7934 -77.7934 -41.1254 -41.1254 -41.0060 -41.0060 -40.9677 -40.9677
    13.3403  13.3403  14.8879  14.8879  15.3233  15.3233  16.3097  16.3097
    17.3583  17.3583  18.0613  18.0613  32.7389

     occupation numbers 
     1.0000   1.0000   1.0000   1.0000   1.0000   1.0000   1.0000   1.0000
     1.0000   1.0000   1.0000   1.0000   1.0000   1.0000   1.0000   1.0000
     1.0000   1.0000   1.0000   1.0000   0.0000

          k = 0.1667 0.3849 0.0000 (  2907 PWs)   bands (ev):

   -77.7988 -77.7737 -41.1320 -41.1137 -41.0940 -41.0154 -40.9828 -40.9692
    13.0727  14.2130  14.2259  14.6805  15.4349  15.8499  15.9546  16.6960
    17.3571  17.4739  18.0852  25.1555  25.5034

     occupation numbers 
     1.0000   1.0000   1.0000   1.0000   1.0000   1.0000   1.0000   1.0000
     1.0000   1.0000   1.0000   1.0000   1.0000   1.0000   1.0000   1.0000
     1.0000   1.0000   1.0000   0.0000   0.0000

          k = 0.1667 0.3849 0.1021 (  2903 PWs)   bands (ev):

   -77.7971 -77.7754 -41.1510 -41.1107 -41.0753 -41.0223 -40.9787 -40.9691
    13.1501  14.1470  14.3196  14.7574  15.4799  15.8420  15.9128  16.7343
    17.2741  17.4403  18.1637  22.7381  27.6662

     occupation numbers 
     1.0000   1.0000   1.0000   1.0000   1.0000   1.0000   1.0000   1.0000
     1.0000   1.0000   1.0000   1.0000   1.0000   1.0000   1.0000   1.0000
     1.0000   1.0000   1.0000   0.0000   0.0000

          k = 0.1667 0.3849 0.2042 (  2895 PWs)   bands (ev):

   -77.7925 -77.7800 -41.1611 -41.1308 -41.0415 -41.0223 -40.9831 -40.9682
    13.3605  13.9480  14.5545  14.9732  15.3995  15.6900  16.0502  16.7158
    17.1877  17.5818  18.3396  20.5744  28.6506

     occupation numbers 
     1.0000   1.0000   1.0000   1.0000   1.0000   1.0000   1.0000   1.0000
     1.0000   1.0000   1.0000   1.0000   1.0000   1.0000   1.0000   1.0000
     1.0000   1.0000   0.0000   0.0000   0.0000

          k = 0.1667 0.3849-0.3064 (  2896 PWs)   bands (ev):

   -77.7862 -77.7862 -41.1526 -41.1526 -41.0230 -41.0230 -40.9780 -40.9780
    13.6521  13.6521  14.8788  14.8788  15.4829  15.4829  16.3177  16.3177
    17.5623  17.5623  19.0157  19.0157  29.7803

     occupation numbers 
     1.0000   1.0000   1.0000   1.0000   1.0000   1.0000   1.0000   1.0000
     1.0000   1.0000   1.0000   1.0000   1.0000   1.0000   1.0000   1.0000
     1.0000   1.0000   0.0000   0.0000   0.0000

          k = 0.1667 0.4811 0.0000 (  2905 PWs)   bands (ev):

   -77.7893 -77.7727 -41.1484 -41.1106 -41.1019 -41.0398 -41.0034 -40.9826
    13.7670  14.0022  14.0281  14.9851  15.3949  15.7410  16.0469  17.1069
    17.4670  17.5634  19.2493  23.8780  27.1469

     occupation numbers 
     1.0000   1.0000   1.0000   1.0000   1.0000   1.0000   1.0000   1.0000
     1.0000   1.0000   1.0000   1.0000   1.0000   1.0000   1.0000   1.0000
     1.0000   1.0000   0.0000   0.0000   0.0000

          k = 0.1667 0.4811 0.1021 (  2912 PWs)   bands (ev):

   -77.7882 -77.7738 -41.1629 -41.1288 -41.0776 -41.0370 -41.0004 -40.9798
    13.6138  14.0835  14.2595  14.7970  15.4441  15.8804  16.1255  17.0934
    17.2843  17.6210  19.3289  23.3122  26.0141

     occupation numbers 
     1.0000   1.0000   1.0000   1.0000   1.0000   1.0000   1.0000   1.0000
     1.0000   1.0000   1.0000   1.0000   1.0000   1.0000   1.0000   1.0000
     1.0000   1.0000   0.0000   0.0000   0.0000

          k = 0.1667 0.4811 0.2042 (  2905 PWs)   bands (ev):

   -77.7851 -77.7768 -41.1774 -41.1545 -41.0557 -41.0255 -40.9989 -40.9744
    13.5730  13.9991  14.4524  14.9709  15.3448  16.0103  16.3496  16.7954
    17.2766  17.6912  19.6335  21.8018  26.1135

     occupation numbers 
     1.0000   1.0000   1.0000   1.0000   1.0000   1.0000   1.0000   1.0000
     1.0000   1.0000   1.0000   1.0000   1.0000   1.0000   1.0000   1.0000
     1.0000   1.0000   0.0000   0.0000   0.0000

          k = 0.1667 0.4811-0.3064 (  2912 PWs)   bands (ev):

   -77.7810 -77.7810 -41.1743 -41.1743 -41.0370 -41.0370 -40.9818 -40.9818
    13.7240  13.7240  14.7782  14.7782  15.7414  15.7414  16.5006  16.5006
    17.5667  17.5667  20.4235  20.4235  26.9818

     occupation numbers 
     1.0000   1.0000   1.0000   1.0000   1.0000   1.0000   1.0000   1.0000
     1.0000   1.0000   1.0000   1.0000   1.0000   1.0000   1.0000   1.0000
     1.0000   1.0000   0.0000   0.0000   0.0000

          k = 0.1667 0.5774 0.0000 (  2918 PWs)   bands (ev):

   -77.7851 -77.7730 -41.1609 -41.1158 -41.0867 -41.0498 -41.0152 -40.9874
    13.9318  13.9321  13.9386  15.2031  15.4206  15.6229  16.1312  17.3866
    17.4642  17.5337  20.5108  22.0463  28.4615

     occupation numbers 
     1.0000   1.0000   1.0000   1.0000   1.0000   1.0000   1.0000   1.0000
     1.0000   1.0000   1.0000   1.0000   1.0000   1.0000   1.0000   1.0000
     1.0000   1.0000   0.0000   0.0000   0.0000

          k = 0.1667 0.5774 0.1021 (  2915 PWs)   bands (ev):

   -77.7843 -77.7738 -41.1722 -41.1323 -41.0788 -41.0343 -41.0139 -40.9842
    13.6392  14.0021  14.4213  14.7760  15.3675  16.0016  16.2152  17.2575
    17.3834  17.5808  20.6062  21.9982  27.2950

     occupation numbers 
     1.0000   1.0000   1.0000   1.0000   1.0000   1.0000   1.0000   1.0000
     1.0000   1.0000   1.0000   1.0000   1.0000   1.0000   1.0000   1.0000
     1.0000   1.0000   0.0000   0.0000   0.0000

          k = 0.1667 0.5774 0.2042 (  2914 PWs)   bands (ev):

   -77.7821 -77.7760 -41.1853 -41.1619 -41.0626 -41.0238 -41.0046 -40.9773
    13.5719  14.0125  14.4888  14.9262  15.2645  16.2050  16.4714  16.8633
    17.3990  17.6171  20.9047  21.8045  26.0293

     occupation numbers 
     1.0000   1.0000   1.0000   1.0000   1.0000   1.0000   1.0000   1.0000
     1.0000   1.0000   1.0000   1.0000   1.0000   1.0000   1.0000   1.0000
     1.0000   1.0000   0.0000   0.0000   0.0000

          k = 0.1667 0.5774-0.3064 (  2910 PWs)   bands (ev):

   -77.7790 -77.7790 -41.1825 -41.1825 -41.0426 -41.0426 -40.9826 -40.9826
    13.7282  13.7282  14.7390  14.7390  15.7780  15.7780  16.7029  16.7029
    17.5062  17.5062  21.3862  21.3862  25.5516

     occupation numbers 
     1.0000   1.0000   1.0000   1.0000   1.0000   1.0000   1.0000   1.0000
     1.0000   1.0000   1.0000   1.0000   1.0000   1.0000   1.0000   1.0000
     1.0000   1.0000   0.0000   0.0000   0.0000

          k = 0.2500 0.4330 0.0000 (  2918 PWs)   bands (ev):

   -77.7893 -77.7727 -41.1293 -41.1106 -41.1020 -41.0417 -41.0033 -41.0001
    13.8991  14.0687  14.4232  14.4614  15.3228  15.7634  16.0558  16.8720
    17.4240  17.5662  19.2593  25.6039  26.4113

     occupation numbers 
     1.0000   1.0000   1.0000   1.0000   1.0000   1.0000   1.0000   1.0000
     1.0000   1.0000   1.0000   1.0000   1.0000   1.0000   1.0000   1.0000
     1.0000   1.0000   0.0000   0.0000   0.0000

          k = 0.2500 0.4330 0.1021 (  2912 PWs)   bands (ev):

   -77.7882 -77.7738 -41.1425 -41.1336 -41.0651 -41.0547 -41.0025 -40.9886
    13.9013  14.0215  14.4714  14.5952  15.4700  15.6218  16.0549  16.9116
    17.2305  17.6275  19.3784  24.0563  26.6860

     occupation numbers 
     1.0000   1.0000   1.0000   1.0000   1.0000   1.0000   1.0000   1.0000
     1.0000   1.0000   1.0000   1.0000   1.0000   1.0000   1.0000   1.0000
     1.0000   1.0000   0.0000   0.0000   0.0000

          k = 0.2500 0.4330 0.2042 (  2901 PWs)   bands (ev):

   -77.7851 -77.7768 -41.1626 -41.1485 -41.0591 -41.0415 -40.9988 -40.9761
    13.8988  13.9658  14.6283  14.9620  15.3085  15.5788  16.0952  16.7072
    17.2446  17.6988  19.7444  22.0652  27.4479

     occupation numbers 
     1.0000   1.0000   1.0000   1.0000   1.0000   1.0000   1.0000   1.0000
     1.0000   1.0000   1.0000   1.0000   1.0000   1.0000   1.0000   1.0000
     1.0000   1.0000   0.0000   0.0000   0.0000

          k = 0.2500 0.4330-0.3064 (  2910 PWs)   bands (ev):

   -77.7810 -77.7810 -41.1631 -41.1631 -41.0488 -41.0488 -40.9814 -40.9814
    13.9210  13.9210  14.9325  14.9325  15.3740  15.3740  16.2990  16.2990
    17.5855  17.5855  20.5730  20.5730  28.4490

     occupation numbers 
     1.0000   1.0000   1.0000   1.0000   1.0000   1.0000   1.0000   1.0000
     1.0000   1.0000   1.0000   1.0000   1.0000   1.0000   1.0000   1.0000
     1.0000   1.0000   0.0000   0.0000   0.0000

          k = 0.2500 0.5292 0.0000 (  2916 PWs)   bands (ev):

   -77.7822 -77.7737 -41.1411 -41.1026 -41.0753 -41.0696 -41.0245 -41.0199
    14.0037  14.1906  14.2870  14.7729  15.3395  15.5627  16.2193  17.1477
    17.3947  17.4993  20.9071  23.4432  25.7632

     occupation numbers 
     1.0000   1.0000   1.0000   1.0000   1.0000   1.0000   1.0000   1.0000
     1.0000   1.0000   1.0000   1.0000   1.0000   1.0000   1.0000   1.0000
     1.0000   1.0000   0.0000   0.0000   0.0000

          k = 0.2500 0.5292 0.1021 (  2915 PWs)   bands (ev):

   -77.7816 -77.7742 -41.1478 -41.1242 -41.0880 -41.0452 -41.0254 -41.0023
    13.9465  14.3122  14.4042  14.6673  15.3653  15.5712  16.2304  17.1503
    17.2115  17.5424  21.0876  23.4596  25.7897

     occupation numbers 
     1.0000   1.0000   1.0000   1.0000   1.0000   1.0000   1.0000   1.0000
     1.0000   1.0000   1.0000   1.0000   1.0000   1.0000   1.0000   1.0000
     1.0000   1.0000   0.0000   0.0000   0.0000

          k = 0.2500 0.5292 0.2042 (  2915 PWs)   bands (ev):

   -77.7801 -77.7758 -41.1630 -41.1497 -41.0862 -41.0502 -41.0006 -40.9830
    13.9593  14.3019  14.5562  14.8468  15.2316  15.5971  16.2828  16.7292
    17.3167  17.5838  21.5719  23.1613  25.6857

     occupation numbers 
     1.0000   1.0000   1.0000   1.0000   1.0000   1.0000   1.0000   1.0000
     1.0000   1.0000   1.0000   1.0000   1.0000   1.0000   1.0000   1.0000
     1.0000   1.0000   0.0000   0.0000   0.0000

          k = 0.2500 0.5292-0.3064 (  2912 PWs)   bands (ev):

   -77.7779 -77.7779 -41.1654 -41.1654 -41.0692 -41.0692 -40.9817 -40.9817
    14.0905  14.0905  14.8345  14.8345  15.3791  15.3791  16.4085  16.4085
    17.4989  17.4989  22.3277  22.3277  26.2169

     occupation numbers 
     1.0000   1.0000   1.0000   1.0000   1.0000   1.0000   1.0000   1.0000
     1.0000   1.0000   1.0000   1.0000   1.0000   1.0000   1.0000   1.0000
     1.0000   1.0000   0.0000   0.0000   0.0000

          k = 0.3333 0.5774 0.0000 (  2910 PWs)   bands (ev):

   -77.7768 -77.7768 -41.1315 -41.0886 -41.0886 -41.0489 -41.0489 -41.0436
    14.0167  14.3857  14.3857  14.6559  15.4028  15.4028  16.3159  17.2922
    17.2922  17.3659  22.6497  23.4406  23.4406

     occupation numbers 
     1.0000   1.0000   1.0000   1.0000   1.0000   1.0000   1.0000   1.0000
     1.0000   1.0000   1.0000   1.0000   1.0000   1.0000   1.0000   1.0000
     1.0000   1.0000   0.0000   0.0000   0.0000

          k = 0.3333 0.5774 0.1021 (  2916 PWs)   bands (ev):

   -77.7768 -77.7768 -41.1256 -41.1156 -41.1156 -41.0495 -41.0218 -41.0218
    14.1074  14.4031  14.4031  14.6729  15.3811  15.3811  16.2907  17.1468
    17.3342  17.3342  23.0343  23.5135  23.5135

     occupation numbers 
     1.0000   1.0000   1.0000   1.0000   1.0000   1.0000   1.0000   1.0000
     1.0000   1.0000   1.0000   1.0000   1.0000   1.0000   1.0000   1.0000
     1.0000   1.0000   0.0000   0.0000   0.0000

          k = 0.3333 0.5774 0.2042 (  2925 PWs)   bands (ev):

   -77.7768 -77.7768 -41.1448 -41.1448 -41.1096 -41.0656 -40.9924 -40.9924
    14.3392  14.4355  14.4355  14.6833  15.3444  15.3444  16.2589  16.6957
    17.4148  17.4148  23.6953  23.6953  24.0269

     occupation numbers 
     1.0000   1.0000   1.0000   1.0000   1.0000   1.0000   1.0000   1.0000
     1.0000   1.0000   1.0000   1.0000   1.0000   1.0000   1.0000   1.0000
     1.0000   1.0000   0.0000   0.0000   0.0000

          k = 0.3333 0.5774-0.3064 (  2934 PWs)   bands (ev):

   -77.7768 -77.7768 -41.1558 -41.1558 -41.0876 -41.0876 -40.9813 -40.9813
    14.4504  14.4504  14.5807  14.5807  15.3293  15.3293  16.3538  16.3538
    17.4536  17.4536  23.8132  23.8132  25.4029

     occupation numbers 
     1.0000   1.0000   1.0000   1.0000   1.0000   1.0000   1.0000   1.0000
     1.0000   1.0000   1.0000   1.0000   1.0000   1.0000   1.0000   1.0000
     1.0000   1.0000   0.0000   0.0000   0.0000

 ------ SPIN DOWN ----------


          k = 0.0000 0.0000 0.0000 (  2875 PWs)   bands (ev):

   -75.6927 -75.6386 -39.1493 -38.8637 -38.8637 -38.8213 -38.8177 -38.8177
     9.3957  14.1357  17.3105  17.4033  17.4033  17.7521  17.7521  17.9061
    18.2153  18.2153  19.3814  19.3814  25.3735

     occupation numbers 
     1.0000   1.0000   1.0000   1.0000   1.0000   1.0000   1.0000   1.0000
     1.0000   1.0000   1.0000   1.0000   1.0000   1.0000   1.0000   1.0000
     1.0000   1.0000   0.0000   0.0000   0.0000

          k = 0.0000 0.0000 0.1021 (  2900 PWs)   bands (ev):

   -75.6891 -75.6422 -39.1277 -38.8606 -38.8606 -38.8436 -38.8208 -38.8208
     9.6671  13.8871  17.2222  17.3444  17.3444  17.3550  17.6745  17.6745
    18.3800  18.3800  19.3637  19.3637  26.6612

     occupation numbers 
     1.0000   1.0000   1.0000   1.0000   1.0000   1.0000   1.0000   1.0000
     1.0000   1.0000   1.0000   1.0000   1.0000   1.0000   1.0000   1.0000
     0.0000   0.0000   0.0000   0.0000   0.0000

          k = 0.0000 0.0000 0.2042 (  2894 PWs)   bands (ev):

   -75.6792 -75.6521 -39.0682 -38.9042 -38.8522 -38.8522 -38.8292 -38.8292
    10.4532  12.9775  16.7741  16.9978  17.2937  17.2937  17.5031  17.5031
    18.7178  18.7178  19.2689  19.2689  29.5813

     occupation numbers 
     1.0000   1.0000   1.0000   1.0000   1.0000   1.0000   1.0000   1.0000
     1.0000   1.0000   1.0000   1.0000   1.0000   1.0000   1.0000   1.0000
     0.0000   0.0000   0.0000   0.0000   0.0000

          k = 0.0000 0.0000-0.3064 (  2894 PWs)   bands (ev):

   -75.6657 -75.6657 -38.9865 -38.9865 -38.8407 -38.8407 -38.8407 -38.8407
    11.6485  11.6485  16.7643  16.7643  17.3504  17.3504  17.3504  17.3504
    19.0465  19.0465  19.0465  19.0465  33.1789

     occupation numbers 
     1.0000   1.0000   1.0000   1.0000   1.0000   1.0000   1.0000   1.0000
     1.0000   1.0000   1.0000   1.0000   1.0000   1.0000   1.0000   1.0000
     0.0000   0.0000   0.0000   0.0000   0.0000

          k = 0.0000 0.0962 0.0000 (  2877 PWs)   bands (ev):

   -75.6895 -75.6370 -39.1421 -38.8802 -38.8690 -38.8348 -38.8241 -38.8205
     9.6368  14.3025  17.1050  17.3421  17.5269  17.5553  17.6853  17.8622
    18.1340  18.1377  19.4153  20.1691  25.3905

     occupation numbers 
     1.0000   1.0000   1.0000   1.0000   1.0000   1.0000   1.0000   1.0000
     1.0000   1.0000   1.0000   1.0000   1.0000   1.0000   1.0000   1.0000
     1.0000   1.0000   0.0000   0.0000   0.0000

          k = 0.0000 0.0962 0.1021 (  2896 PWs)   bands (ev):

   -75.6860 -75.6405 -39.1216 -38.8766 -38.8657 -38.8543 -38.8292 -38.8238
     9.9047  14.0664  16.9400  17.1025  17.3731  17.4533  17.6914  17.7776
    18.3252  18.3356  19.3891  19.8438  26.7449

     occupation numbers 
     1.0000   1.0000   1.0000   1.0000   1.0000   1.0000   1.0000   1.0000
     1.0000   1.0000   1.0000   1.0000   1.0000   1.0000   1.0000   1.0000
     0.0000   0.0000   0.0000   0.0000   0.0000

          k = 0.0000 0.0962 0.2042 (  2892 PWs)   bands (ev):

   -75.6764 -75.6502 -39.0656 -38.9111 -38.8666 -38.8569 -38.8396 -38.8327
    10.6804  13.1726  16.5731  16.9919  17.1865  17.3940  17.5154  17.6044
    18.6854  18.7173  19.2747  19.4533  29.7198

     occupation numbers 
     1.0000   1.0000   1.0000   1.0000   1.0000   1.0000   1.0000   1.0000
     1.0000   1.0000   1.0000   1.0000   1.0000   1.0000   1.0000   1.0000
     0.0000   0.0000   0.0000   0.0000   0.0000

          k = 0.0000 0.0962-0.3064 (  2890 PWs)   bands (ev):

   -75.6633 -75.6633 -38.9886 -38.9886 -38.8532 -38.8532 -38.8448 -38.8448
[...]
    19.5368  19.5738  20.6928  23.1599  27.9440

     occupation numbers 
     1.0000   1.0000   1.0000   1.0000   1.0000   1.0000   1.0000   1.0000
     1.0000   1.0000   1.0000   1.0000   1.0000   1.0000   1.0000   0.0000
     0.0000   0.0000   0.0000   0.0000   0.0000

          k = 0.0833 0.5292 0.1021 (  2906 PWs)   bands (ev):

   -75.6376 -75.6222 -39.1166 -39.0703 -38.9850 -38.9392 -38.8971 -38.8753
    14.3403  14.9580  15.4920  16.0212  17.2464  17.7079  17.7478  19.3190
    19.4724  19.5734  20.5604  22.8249  26.9199

     occupation numbers 
     1.0000   1.0000   1.0000   1.0000   1.0000   1.0000   1.0000   1.0000
     1.0000   1.0000   1.0000   1.0000   1.0000   1.0000   1.0000   0.0000
     0.0000   0.0000   0.0000   0.0000   0.0000

          k = 0.0833 0.5292 0.2042 (  2907 PWs)   bands (ev):

   -75.6344 -75.6255 -39.1290 -39.1001 -38.9522 -38.9186 -38.9048 -38.8786
    14.3251  14.7948  15.7881  16.0861  17.2840  18.0281  18.2112  18.8741
    19.4266  19.6523  20.3539  21.9025  26.3986

     occupation numbers 
     1.0000   1.0000   1.0000   1.0000   1.0000   1.0000   1.0000   1.0000
     1.0000   1.0000   1.0000   1.0000   1.0000   1.0000   1.0000   0.0000
     0.0000   0.0000   0.0000   0.0000   0.0000

          k = 0.0833 0.5292-0.3064 (  2902 PWs)   bands (ev):

   -75.6299 -75.6299 -39.1235 -39.1235 -38.9262 -38.9262 -38.8919 -38.8919
    14.5002  14.5002  16.0389  16.0389  17.7702  17.7702  18.5299  18.5299
    19.5091  19.5091  20.8709  20.8709  26.6553

     occupation numbers 
     1.0000   1.0000   1.0000   1.0000   1.0000   1.0000   1.0000   1.0000
     1.0000   1.0000   1.0000   1.0000   1.0000   1.0000   0.0000   0.0000
     0.0000   0.0000   0.0000   0.0000   0.0000

          k = 0.1667 0.2887 0.0000 (  2902 PWs)   bands (ev):

   -75.6613 -75.6253 -39.0733 -38.9946 -38.9858 -38.9062 -38.8630 -38.8559
    12.0505  15.4574  15.7541  16.1377  17.3005  17.3218  17.8609  18.1851
    18.7707  19.1158  19.4955  24.1172  25.8381

     occupation numbers 
     1.0000   1.0000   1.0000   1.0000   1.0000   1.0000   1.0000   1.0000
     1.0000   1.0000   1.0000   1.0000   1.0000   1.0000   1.0000   1.0000
     0.0000   0.0000   0.0000   0.0000   0.0000

          k = 0.1667 0.2887 0.1021 (  2895 PWs)   bands (ev):

   -75.6589 -75.6278 -39.0741 -38.9924 -38.9777 -38.9118 -38.8669 -38.8560
    12.2598  15.3556  15.6820  16.2020  17.2001  17.3476  17.7594  18.2873
    18.8937  18.9942  19.5042  22.4915  28.0089

     occupation numbers 
     1.0000   1.0000   1.0000   1.0000   1.0000   1.0000   1.0000   1.0000
     1.0000   1.0000   1.0000   1.0000   1.0000   1.0000   1.0000   0.2637
     0.0000   0.0000   0.0000   0.0000   0.0000

          k = 0.1667 0.2887 0.2042 (  2904 PWs)   bands (ev):

   -75.6523 -75.6343 -39.0666 -39.0148 -38.9426 -38.9144 -38.8761 -38.8646
    12.8542  14.6605  15.9321  16.3657  16.9318  17.1910  17.8143  18.3919
    18.9820  19.1111  19.4591  20.8205  31.2162

     occupation numbers 
     1.0000   1.0000   1.0000   1.0000   1.0000   1.0000   1.0000   1.0000
     1.0000   1.0000   1.0000   1.0000   1.0000   1.0000   1.0000   0.0000
     0.0000   0.0000   0.0000   0.0000   0.0000

          k = 0.1667 0.2887-0.3064 (  2900 PWs)   bands (ev):

   -75.6434 -75.6434 -39.0446 -39.0446 -38.9157 -38.9157 -38.8794 -38.8794
    13.7235  13.7235  16.2994  16.2994  16.8888  16.8888  18.1103  18.1103
    19.2936  19.2936  19.6787  19.6787  33.1607

     occupation numbers 
     1.0000   1.0000   1.0000   1.0000   1.0000   1.0000   1.0000   1.0000
     1.0000   1.0000   1.0000   1.0000   1.0000   1.0000   1.0000   1.0000
     0.0000   0.0000   0.0000   0.0000   0.0000

          k = 0.1667 0.3849 0.0000 (  2907 PWs)   bands (ev):

   -75.6491 -75.6221 -39.0426 -39.0390 -39.0209 -38.9347 -38.8844 -38.8759
    13.3003  15.4737  15.5345  15.9521  17.0984  17.4512  17.6251  18.5261
    19.2634  19.4853  19.8283  25.8606  26.1253

     occupation numbers 
     1.0000   1.0000   1.0000   1.0000   1.0000   1.0000   1.0000   1.0000
     1.0000   1.0000   1.0000   1.0000   1.0000   1.0000   1.0000   0.0000
     0.0000   0.0000   0.0000   0.0000   0.0000

          k = 0.1667 0.3849 0.1021 (  2903 PWs)   bands (ev):

   -75.6473 -75.6239 -39.0710 -39.0371 -38.9903 -38.9392 -38.8898 -38.8701
    13.4477  15.3341  15.6339  16.0515  17.0620  17.4307  17.5797  18.5737
    19.2312  19.3621  19.9277  23.5730  28.2823

     occupation numbers 
     1.0000   1.0000   1.0000   1.0000   1.0000   1.0000   1.0000   1.0000
     1.0000   1.0000   1.0000   1.0000   1.0000   1.0000   1.0000   0.0000
     0.0000   0.0000   0.0000   0.0000   0.0000

          k = 0.1667 0.3849 0.2042 (  2895 PWs)   bands (ev):

   -75.6424 -75.6288 -39.0845 -39.0566 -38.9529 -38.9360 -38.8971 -38.8703
    13.8522  14.9502  15.9064  16.2561  16.9176  17.1635  17.7671  18.5620
    19.0851  19.5391  20.0064  21.6294  29.2528

     occupation numbers 
     1.0000   1.0000   1.0000   1.0000   1.0000   1.0000   1.0000   1.0000
     1.0000   1.0000   1.0000   1.0000   1.0000   1.0000   1.0000   0.0000
     0.0000   0.0000   0.0000   0.0000   0.0000

          k = 0.1667 0.3849-0.3064 (  2896 PWs)   bands (ev):

   -75.6356 -75.6356 -39.0775 -39.0775 -38.9357 -38.9357 -38.8855 -38.8855
    14.4052  14.4052  16.2364  16.2364  16.8949  16.8949  18.1263  18.1263
    19.5306  19.5306  20.3440  20.3440  30.3404

     occupation numbers 
     1.0000   1.0000   1.0000   1.0000   1.0000   1.0000   1.0000   1.0000
     1.0000   1.0000   1.0000   1.0000   1.0000   1.0000   1.0000   1.0000
     0.0000   0.0000   0.0000   0.0000   0.0000

          k = 0.1667 0.4811 0.0000 (  2905 PWs)   bands (ev):

   -75.6389 -75.6210 -39.0806 -39.0390 -39.0059 -38.9613 -38.8990 -38.8984
    14.4077  15.3131  15.3159  15.9983  17.0385  17.3596  17.6826  18.9806
    19.4769  19.5108  20.7238  24.6266  27.7425

     occupation numbers 
     1.0000   1.0000   1.0000   1.0000   1.0000   1.0000   1.0000   1.0000
     1.0000   1.0000   1.0000   1.0000   1.0000   1.0000   1.0000   0.0000
     0.0000   0.0000   0.0000   0.0000   0.0000

          k = 0.1667 0.4811 0.1021 (  2912 PWs)   bands (ev):

   -75.6377 -75.6222 -39.0924 -39.0559 -38.9879 -38.9537 -38.9094 -38.8848
    14.4287  15.2581  15.4792  16.0344  17.0476  17.3319  17.7583  18.9768
    19.2504  19.5829  20.7716  24.0059  26.7838

     occupation numbers 
     1.0000   1.0000   1.0000   1.0000   1.0000   1.0000   1.0000   1.0000
     1.0000   1.0000   1.0000   1.0000   1.0000   1.0000   1.0000   0.0000
     0.0000   0.0000   0.0000   0.0000   0.0000

          k = 0.1667 0.4811 0.2042 (  2905 PWs)   bands (ev):

   -75.6344 -75.6254 -39.1061 -39.0824 -38.9713 -38.9376 -38.9096 -38.8769
    14.5373  15.0551  15.7995  16.2911  16.8790  17.3066  17.9808  18.6755
    19.1911  19.6759  20.9168  22.5814  26.9244

     occupation numbers 
     1.0000   1.0000   1.0000   1.0000   1.0000   1.0000   1.0000   1.0000
     1.0000   1.0000   1.0000   1.0000   1.0000   1.0000   1.0000   0.0000
     0.0000   0.0000   0.0000   0.0000   0.0000

          k = 0.1667 0.4811-0.3064 (  2912 PWs)   bands (ev):

   -75.6299 -75.6299 -39.1028 -39.1028 -38.9527 -38.9527 -38.8864 -38.8864
    14.7641  14.7641  16.1938  16.1938  17.0523  17.0523  18.2551  18.2551
    19.5222  19.5222  21.4306  21.4306  27.7213

     occupation numbers 
     1.0000   1.0000   1.0000   1.0000   1.0000   1.0000   1.0000   1.0000
     1.0000   1.0000   1.0000   1.0000   1.0000   1.0000   0.9968   0.9968
     0.0000   0.0000   0.0000   0.0000   0.0000

          k = 0.1667 0.5774 0.0000 (  2918 PWs)   bands (ev):

   -75.6343 -75.6213 -39.0944 -39.0447 -38.9892 -38.9722 -38.9112 -38.9042
    14.8781  15.1790  15.2618  16.0567  17.0924  17.1858  17.7859  19.3014
    19.4735  19.4835  21.6207  23.0756  28.8821

     occupation numbers 
     1.0000   1.0000   1.0000   1.0000   1.0000   1.0000   1.0000   1.0000
     1.0000   1.0000   1.0000   1.0000   1.0000   1.0000   1.0000   0.0000
     0.0000   0.0000   0.0000   0.0000   0.0000

          k = 0.1667 0.5774 0.1021 (  2915 PWs)   bands (ev):

   -75.6335 -75.6222 -39.1038 -39.0605 -38.9911 -38.9477 -38.9209 -38.8917
    14.7363  15.2197  15.6190  15.8829  17.0085  17.3625  17.8703  19.2248
    19.3007  19.5420  21.6478  22.9790  27.9037

     occupation numbers 
     1.0000   1.0000   1.0000   1.0000   1.0000   1.0000   1.0000   1.0000
     1.0000   1.0000   1.0000   1.0000   1.0000   1.0000   1.0000   0.0000
     0.0000   0.0000   0.0000   0.0000   0.0000

          k = 0.1667 0.5774 0.2042 (  2914 PWs)   bands (ev):

   -75.6311 -75.6246 -39.1158 -39.0905 -38.9795 -38.9378 -38.9114 -38.8804
    14.6973  15.1155  15.8671  16.2038  16.7937  17.4780  18.1255  18.7426
    19.3290  19.5885  21.7714  22.6588  26.8276

     occupation numbers 
     1.0000   1.0000   1.0000   1.0000   1.0000   1.0000   1.0000   1.0000
     1.0000   1.0000   1.0000   1.0000   1.0000   1.0000   1.0000   0.0000
     0.0000   0.0000   0.0000   0.0000   0.0000

          k = 0.1667 0.5774-0.3064 (  2910 PWs)   bands (ev):

   -75.6278 -75.6278 -39.1122 -39.1122 -38.9592 -38.9592 -38.8862 -38.8862
    14.8499  14.8499  16.1855  16.1855  17.1057  17.1057  18.4139  18.4139
    19.4592  19.4592  22.1577  22.1577  26.4572

     occupation numbers 
     1.0000   1.0000   1.0000   1.0000   1.0000   1.0000   1.0000   1.0000
     1.0000   1.0000   1.0000   1.0000   1.0000   1.0000   0.0000   0.0000
     0.0000   0.0000   0.0000   0.0000   0.0000

          k = 0.2500 0.4330 0.0000 (  2918 PWs)   bands (ev):

   -75.6389 -75.6210 -39.0598 -39.0389 -39.0061 -38.9635 -38.9180 -38.8982
    14.4139  15.3887  15.6529  15.6845  16.9440  17.3881  17.6876  18.7335
    19.4274  19.5113  20.7654  26.1658  27.0234

     occupation numbers 
     1.0000   1.0000   1.0000   1.0000   1.0000   1.0000   1.0000   1.0000
     1.0000   1.0000   1.0000   1.0000   1.0000   1.0000   1.0000   0.0000
     0.0000   0.0000   0.0000   0.0000   0.0000

          k = 0.2500 0.4330 0.1021 (  2912 PWs)   bands (ev):

   -75.6377 -75.6222 -39.0657 -39.0633 -38.9745 -38.9741 -38.9200 -38.8868
    14.4942  15.3051  15.7189  15.8637  16.9811  17.2107  17.6987  18.7802
    19.1922  19.5900  20.8633  24.7152  27.3035

     occupation numbers 
     1.0000   1.0000   1.0000   1.0000   1.0000   1.0000   1.0000   1.0000
     1.0000   1.0000   1.0000   1.0000   1.0000   1.0000   1.0000   0.0000
     0.0000   0.0000   0.0000   0.0000   0.0000

          k = 0.2500 0.4330 0.2042 (  2901 PWs)   bands (ev):

   -75.6344 -75.6254 -39.0878 -39.0764 -38.9787 -38.9557 -38.9090 -38.8766
    14.7002  15.1592  15.9316  16.2054  16.8325  16.9474  17.7910  18.5776
    19.1503  19.6848  21.0904  22.8887  28.0647

     occupation numbers 
     1.0000   1.0000   1.0000   1.0000   1.0000   1.0000   1.0000   1.0000
     1.0000   1.0000   1.0000   1.0000   1.0000   1.0000   1.0000   0.0000
     0.0000   0.0000   0.0000   0.0000   0.0000

          k = 0.2500 0.4330-0.3064 (  2910 PWs)   bands (ev):

   -75.6299 -75.6299 -39.0897 -39.0897 -38.9675 -38.9675 -38.8848 -38.8848
    14.9492  14.9492  16.2570  16.2570  16.7275  16.7275  18.0893  18.0893
    19.5456  19.5456  21.6405  21.6405  29.0533

     occupation numbers 
     1.0000   1.0000   1.0000   1.0000   1.0000   1.0000   1.0000   1.0000
     1.0000   1.0000   1.0000   1.0000   1.0000   1.0000   1.0000   1.0000
     0.0000   0.0000   0.0000   0.0000   0.0000

          k = 0.2500 0.5292 0.0000 (  2916 PWs)   bands (ev):

   -75.6313 -75.6220 -39.0725 -39.0302 -38.9941 -38.9769 -38.9397 -38.9213
    15.1385  15.3673  15.4973  15.7609  16.9431  17.1425  17.8838  19.0408
    19.3934  19.4410  22.0339  24.2508  26.3419

     occupation numbers 
     1.0000   1.0000   1.0000   1.0000   1.0000   1.0000   1.0000   1.0000
     1.0000   1.0000   1.0000   1.0000   1.0000   1.0000   1.0000   0.0000
     0.0000   0.0000   0.0000   0.0000   0.0000

          k = 0.2500 0.5292 0.1021 (  2915 PWs)   bands (ev):

   -75.6306 -75.6226 -39.0772 -39.0497 -39.0090 -38.9566 -38.9385 -38.9035
    15.1053  15.4724  15.5779  15.8293  16.9160  17.0428  17.8992  19.0650
    19.1547  19.4961  22.1887  24.2244  26.3977

     occupation numbers 
     1.0000   1.0000   1.0000   1.0000   1.0000   1.0000   1.0000   1.0000
     1.0000   1.0000   1.0000   1.0000   1.0000   1.0000   1.0000   0.0000
     0.0000   0.0000   0.0000   0.0000   0.0000

          k = 0.2500 0.5292 0.2042 (  2915 PWs)   bands (ev):

   -75.6289 -75.6243 -39.0901 -39.0760 -39.0091 -38.9701 -38.9049 -38.8840
    15.1423  15.4264  15.8479  16.1672  16.6611  16.9041  17.9757  18.6067
    19.2414  19.5490  22.5597  23.8602  26.4432

     occupation numbers 
     1.0000   1.0000   1.0000   1.0000   1.0000   1.0000   1.0000   1.0000
     1.0000   1.0000   1.0000   1.0000   1.0000   1.0000   1.0000   0.0000
     0.0000   0.0000   0.0000   0.0000   0.0000

          k = 0.2500 0.5292-0.3064 (  2912 PWs)   bands (ev):

   -75.6266 -75.6266 -39.0922 -39.0922 -38.9914 -38.9914 -38.8834 -38.8834
    15.2717  15.2717  16.2336  16.2336  16.6256  16.6256  18.1837  18.1837
    19.4493  19.4493  23.1395  23.1395  26.9734

     occupation numbers 
     1.0000   1.0000   1.0000   1.0000   1.0000   1.0000   1.0000   1.0000
     1.0000   1.0000   1.0000   1.0000   1.0000   1.0000   1.0000   1.0000
     0.0000   0.0000   0.0000   0.0000   0.0000

          k = 0.3333 0.5774 0.0000 (  2910 PWs)   bands (ev):

   -75.6254 -75.6254 -39.0618 -39.0150 -39.0150 -38.9654 -38.9480 -38.9480
    15.4070  15.4931  15.4931  15.6846  16.9758  16.9758  17.9900  19.2084
    19.2084  19.3603  23.4791  24.2453  24.2453

     occupation numbers 
     1.0000   1.0000   1.0000   1.0000   1.0000   1.0000   1.0000   1.0000
     1.0000   1.0000   1.0000   1.0000   1.0000   1.0000   1.0000   0.0000
     0.0000   0.0000   0.0000   0.0000   0.0000

          k = 0.3333 0.5774 0.1021 (  2916 PWs)   bands (ev):

   -75.6254 -75.6254 -39.0554 -39.0388 -39.0388 -38.9719 -38.9241 -38.9241
    15.4767  15.5648  15.5648  15.7156  16.8899  16.8899  17.9722  19.0989
    19.2598  19.2598  23.8792  24.2928  24.2928

     occupation numbers 
     1.0000   1.0000   1.0000   1.0000   1.0000   1.0000   1.0000   1.0000
     1.0000   1.0000   1.0000   1.0000   1.0000   1.0000   1.0000   0.0000
     0.0000   0.0000   0.0000   0.0000   0.0000

          k = 0.3333 0.5774 0.2042 (  2925 PWs)   bands (ev):

   -75.6254 -75.6254 -39.0686 -39.0686 -39.0378 -38.9896 -38.8940 -38.8940
    15.6385  15.7363  15.7363  15.7736  16.6980  16.6980  17.9767  18.5746
    19.3547  19.3547  24.4108  24.4108  24.8596

     occupation numbers 
     1.0000   1.0000   1.0000   1.0000   1.0000   1.0000   1.0000   1.0000
     1.0000   1.0000   1.0000   1.0000   1.0000   1.0000   1.0000   0.0000
     0.0000   0.0000   0.0000   0.0000   0.0000

          k = 0.3333 0.5774-0.3064 (  2934 PWs)   bands (ev):

   -75.6254 -75.6254 -39.0802 -39.0802 -39.0138 -39.0138 -38.8823 -38.8823
    15.7667  15.7667  15.8490  15.8490  16.5785  16.5785  18.1498  18.1498
    19.3987  19.3987  24.4859  24.4859  26.1613

     occupation numbers 
     1.0000   1.0000   1.0000   1.0000   1.0000   1.0000   1.0000   1.0000
     1.0000   1.0000   1.0000   1.0000   1.0000   1.0000   1.0000   1.0000
     0.0000   0.0000   0.0000   0.0000   0.0000

     the Fermi energy is    18.2813 ev

!    total energy              =    -753.45471098 Ry
     total all-electron energy =     -5573.811402 Ry
     estimated scf accuracy    <       0.00000002 Ry
     smearing contrib. (-TS)   =      -0.00001951 Ry
     internal energy E=F+TS    =    -753.45469147 Ry

     The total energy is F=E-TS. E is the sum of the following terms:
     one-electron contribution =    -286.67837273 Ry
     hartree contribution      =     166.48556501 Ry
     xc contribution           =     -61.37937605 Ry
     ewald contribution        =    -396.70800200 Ry
     one-center paw contrib.   =    -175.17450571 Ry
      -> PAW hartree energy AE =     221.89237840 Ry
      -> PAW hartree energy PS =    -220.83733865 Ry
      -> PAW xc energy AE      =    -117.66639948 Ry
      -> PAW xc energy PS      =      29.02410687 Ry
      -> total E_H with PAW    =     167.54060476 Ry
      -> total E_XC with PAW   =    -150.02166865 Ry

     total magnetization       =     3.36 Bohr mag/cell
     absolute magnetization    =     3.69 Bohr mag/cell

     convergence has been achieved in  11 iterations

     Writing all to output data dir ./out/Co.save/
 
     init_run     :      0.39s CPU      0.51s WALL (       1 calls)
     electrons    :     22.91s CPU     24.08s WALL (       1 calls)

     Called by init_run:
     wfcinit      :      0.26s CPU      0.35s WALL (       1 calls)
     potinit      :      0.08s CPU      0.11s WALL (       1 calls)
     hinit0       :      0.03s CPU      0.03s WALL (       1 calls)

     Called by electrons:
     c_bands      :     19.89s CPU     20.79s WALL (      11 calls)
     sum_band     :      2.03s CPU      2.13s WALL (      11 calls)
     v_of_rho     :      0.03s CPU      0.03s WALL (      12 calls)
     v_h          :      0.00s CPU      0.00s WALL (      12 calls)
     v_xc         :      0.03s CPU      0.03s WALL (      12 calls)
     newd         :      0.05s CPU      0.05s WALL (      12 calls)
     PAW_pot      :      0.97s CPU      1.13s WALL (      12 calls)
     mix_rho      :      0.01s CPU      0.01s WALL (      11 calls)

     Called by c_bands:
     init_us_2    :      0.12s CPU      0.13s WALL (    3344 calls)
     init_us_2:cp :      0.12s CPU      0.12s WALL (    3344 calls)
     cegterg      :     19.13s CPU     19.90s WALL (    1672 calls)

     Called by sum_band:
     sum_band:wei :      0.01s CPU      0.01s WALL (      11 calls)
     sum_band:loo :      1.93s CPU      2.02s WALL (      11 calls)
     sum_band:buf :      0.01s CPU      0.01s WALL (    1672 calls)
     sum_band:ini :      0.07s CPU      0.06s WALL (    1672 calls)
     sum_band:cal :      0.17s CPU      0.17s WALL (    1672 calls)
     sum_band:bec :      0.00s CPU      0.01s WALL (    1672 calls)
     addusdens    :      0.07s CPU      0.08s WALL (      11 calls)
                                        0.00s GPU  (      11 calls)
     addusd:skk   :      0.00s CPU      0.00s WALL (      11 calls)
                                        0.00s GPU  (      11 calls)

     Called by *egterg:
     cdiaghg      :      4.65s CPU      4.76s WALL (    9872 calls)
     cegterg:over :      0.66s CPU      0.62s WALL (    8352 calls)
     cegterg:upda :      0.08s CPU      0.16s WALL (    8352 calls)
     cegterg:last :      0.26s CPU      0.29s WALL (    5698 calls)
     h_psi        :     12.72s CPU     13.31s WALL (   10024 calls)
     s_psi        :      0.25s CPU      0.21s WALL (   10024 calls)
     g_psi        :      0.04s CPU      0.05s WALL (    8352 calls)

     Called by h_psi:
     h_psi:calbec :      0.70s CPU      0.67s WALL (   10024 calls)
     vloc_psi     :     11.84s CPU     12.34s WALL (   10024 calls)
     add_vuspsi   :      0.14s CPU      0.22s WALL (   10024 calls)

     General routines
     calbec       :      0.86s CPU      0.82s WALL (   11696 calls)
     fft          :      0.02s CPU      0.02s WALL (     294 calls)
     ffts         :      0.00s CPU      0.00s WALL (      46 calls)
     fftw         :     12.78s CPU     13.09s WALL (  295148 calls)
     interpolate  :      0.00s CPU      0.00s WALL (      24 calls)
 
     Parallel routines

     PAW routines
     PAW_pot      :      0.97s CPU      1.13s WALL (      12 calls)
     PAW_symme    :      0.01s CPU      0.01s WALL (      22 calls)
 
     PWSCF        :     23.65s CPU     25.36s WALL

 
   This run was terminated on:   7:18:10  22Mar2024            

=------------------------------------------------------------------------------=
   JOB DONE.
=------------------------------------------------------------------------------=
