
     Program PWSCF v.7.2 starts on 22Mar2024 at  7:16:27 

     This program is part of the open-source Quantum ESPRESSO suite
     for quantum simulation of materials; please cite
         "P. Giannozzi et al., J. Phys.:Condens. Matter 21 395502 (2009);
         "P. Giannozzi et al., J. Phys.:Condens. Matter 29 465901 (2017);
         "P. Giannozzi et al., J. Chem. Phys. 152 154105 (2020);
          URL http://www.quantum-espresso.org", 
     in publications or presentations arising from this work. More details at
     http://www.quantum-espresso.org/quote

     Parallel version (MPI), running on    20 processors

     MPI processes distributed on     1 nodes
     352112 MiB available memory on the printing compute node when the environment starts
 
     Waiting for input...
     Reading input from standard input

     Current dimensions of program PWSCF are:
     Max number of different atomic species (ntypx) = 10
     Max number of k-points (npk) = 120000
     Max angular momentum in pseudopotentials (lmaxx) =  4
     file Co.pbe-spn-kjpaw_psl.0.3.1.UPF: wavefunction(s)  3P 3D renormalized
 
     R & G space division:  proc/nbgrp/npool/nimage =      20
     Subspace diagonalization in iterative solution of the eigenvalue problem:
     a serial algorithm will be used

 
     Parallelization info
     --------------------
     sticks:   dense  smooth     PW     G-vecs:    dense   smooth      PW
     Min          34      33      9                 1192     1155     185
     Max          35      34     10                 1200     1162     192
     Sum         685     673    199                23883    23199    3791
 
     Using Slab Decomposition
 


     bravais-lattice index     =            4
     lattice parameter (alat)  =       4.7243  a.u.
     unit-cell volume          =     148.4799 (a.u.)^3
     number of atoms/cell      =            2
     number of atomic types    =            1
     number of electrons       =        34.00
     number of Kohn-Sham states=           21
     kinetic-energy cutoff     =     110.0000  Ry
     charge density cutoff     =     450.0000  Ry
     scf convergence threshold =      1.0E-06
     mixing beta               =       0.7000
     number of iterations used =            8  plain     mixing
     Exchange-correlation= SLA  PW   PBX  PBC
                           (   1   4   3   4   0   0   0)

     celldm(1)=   4.724315  celldm(2)=   0.000000  celldm(3)=   1.626000
     celldm(4)=   0.000000  celldm(5)=   0.000000  celldm(6)=   0.000000

     crystal axes: (cart. coord. in units of alat)
               a(1) = (   1.000000   0.000000   0.000000 )  
               a(2) = (  -0.500000   0.866025   0.000000 )  
               a(3) = (   0.000000   0.000000   1.626000 )  

     reciprocal axes: (cart. coord. in units 2 pi/alat)
               b(1) = (  1.000000  0.577350  0.000000 )  
               b(2) = (  0.000000  1.154701  0.000000 )  
               b(3) = (  0.000000  0.000000  0.615006 )  


     PseudoPot. # 1 for Co read from file:
     /truba/home/amuhaymin/ZnS/pseudo/QE/Co.pbe-spn-kjpaw_psl.0.3.1.UPF
     MD5 check sum: b0a1ad65bf214e88c1f3d33b20c7d919
     Pseudo is Projector augmented-wave + core cor, Zval = 17.0
     Generated using &quot;atomic&quot; code by A. Dal Corso  v.6.2.2
     Shape of augmentation charge: PSQ
     Using radial grid of 1193 points,  6 beta functions with: 
                l(1) =   0
                l(2) =   0
                l(3) =   1
                l(4) =   1
                l(5) =   2
                l(6) =   2
     Q(r) pseudized with 0 coefficients 


     atomic species   valence    mass     pseudopotential
        Co            17.00    58.93300     Co( 1.00)

     Starting magnetic structure 
     atomic species   magnetization
        Co           0.294

     24 Sym. Ops., with inversion, found (12 have fractional translation)


                                    s                        frac. trans.

      isym =  1     identity                                     

 cryst.   s( 1) = (     1          0          0      )
                  (     0          1          0      )
                  (     0          0          1      )

 cart.    s( 1) = (  1.0000000  0.0000000  0.0000000 )
                  (  0.0000000  1.0000000  0.0000000 )
                  (  0.0000000  0.0000000  1.0000000 )


      isym =  2     180 deg rotation - cart. axis [0,0,1]        

 cryst.   s( 2) = (    -1          0          0      )    f =(  0.0000000 )
                  (     0         -1          0      )       ( -0.0000000 )
                  (     0          0          1      )       ( -0.5000000 )

 cart.    s( 2) = ( -1.0000000  0.0000000  0.0000000 )    f =(  0.0000000 )
                  (  0.0000000 -1.0000000  0.0000000 )       ( -0.0000000 )
                  (  0.0000000  0.0000000  1.0000000 )       ( -0.8130000 )


      isym =  3     180 deg rotation - cart. axis [0,1,0]        

 cryst.   s( 3) = (    -1          0          0      )    f =(  0.0000000 )
                  (     1          1          0      )       (  0.0000000 )
                  (     0          0         -1      )       (  0.5000000 )

 cart.    s( 3) = ( -1.0000000  0.0000000  0.0000000 )    f =(  0.0000000 )
                  (  0.0000000  1.0000000  0.0000000 )       (  0.0000000 )
                  (  0.0000000  0.0000000 -1.0000000 )       (  0.8130000 )


      isym =  4     180 deg rotation - cart. axis [1,0,0]        

 cryst.   s( 4) = (     1          0          0      )
                  (    -1         -1          0      )
                  (     0          0         -1      )

 cart.    s( 4) = (  1.0000000  0.0000000  0.0000000 )
                  (  0.0000000 -1.0000000  0.0000000 )
                  (  0.0000000  0.0000000 -1.0000000 )


      isym =  5      60 deg rotation - cryst. axis [0,0,1]       

 cryst.   s( 5) = (     1          1          0      )    f =(  0.0000000 )
                  (    -1          0          0      )       ( -0.0000000 )
                  (     0          0          1      )       ( -0.5000000 )

 cart.    s( 5) = (  0.5000000 -0.8660254  0.0000000 )    f =(  0.0000000 )
                  (  0.8660254  0.5000000  0.0000000 )       ( -0.0000000 )
                  (  0.0000000  0.0000000  1.0000000 )       ( -0.8130000 )


      isym =  6      60 deg rotation - cryst. axis [0,0,-1]      

 cryst.   s( 6) = (     0         -1          0      )    f =(  0.0000000 )
                  (     1          1          0      )       ( -0.0000000 )
                  (     0          0          1      )       ( -0.5000000 )

 cart.    s( 6) = (  0.5000000  0.8660254  0.0000000 )    f =(  0.0000000 )
                  ( -0.8660254  0.5000000  0.0000000 )       ( -0.0000000 )
                  (  0.0000000  0.0000000  1.0000000 )       ( -0.8130000 )


      isym =  7     120 deg rotation - cryst. axis [0,0,1]       

 cryst.   s( 7) = (     0          1          0      )
                  (    -1         -1          0      )
                  (     0          0          1      )

 cart.    s( 7) = ( -0.5000000 -0.8660254  0.0000000 )
                  (  0.8660254 -0.5000000  0.0000000 )
                  (  0.0000000  0.0000000  1.0000000 )


      isym =  8     120 deg rotation - cryst. axis [0,0,-1]      

 cryst.   s( 8) = (    -1         -1          0      )
                  (     1          0          0      )
                  (     0          0          1      )

 cart.    s( 8) = ( -0.5000000  0.8660254  0.0000000 )
                  ( -0.8660254 -0.5000000  0.0000000 )
                  (  0.0000000  0.0000000  1.0000000 )


      isym =  9     180 deg rotation - cryst. axis [1,-1,0]      

 cryst.   s( 9) = (     0         -1          0      )    f =( -0.0000000 )
                  (    -1          0          0      )       ( -0.0000000 )
                  (     0          0         -1      )       (  0.5000000 )

 cart.    s( 9) = (  0.5000000 -0.8660254  0.0000000 )    f =( -0.0000000 )
                  ( -0.8660254 -0.5000000  0.0000000 )       ( -0.0000000 )
                  (  0.0000000  0.0000000 -1.0000000 )       (  0.8130000 )


      isym = 10     180 deg rotation - cryst. axis [2,1,0]       

 cryst.   s(10) = (     1          1          0      )    f =(  0.0000000 )
                  (     0         -1          0      )       ( -0.0000000 )
                  (     0          0         -1      )       (  0.5000000 )

 cart.    s(10) = (  0.5000000  0.8660254  0.0000000 )    f =(  0.0000000 )
                  (  0.8660254 -0.5000000  0.0000000 )       ( -0.0000000 )
                  (  0.0000000  0.0000000 -1.0000000 )       (  0.8130000 )


      isym = 11     180 deg rotation - cryst. axis [0,1,0]       

 cryst.   s(11) = (    -1         -1          0      )
                  (     0          1          0      )
                  (     0          0         -1      )

 cart.    s(11) = ( -0.5000000 -0.8660254  0.0000000 )
                  ( -0.8660254  0.5000000  0.0000000 )
                  (  0.0000000  0.0000000 -1.0000000 )


      isym = 12     180 deg rotation - cryst. axis [1,1,0]       

 cryst.   s(12) = (     0          1          0      )
                  (     1          0          0      )
                  (     0          0         -1      )

 cart.    s(12) = ( -0.5000000  0.8660254  0.0000000 )
                  (  0.8660254  0.5000000  0.0000000 )
                  (  0.0000000  0.0000000 -1.0000000 )


      isym = 13     inversion                                    

 cryst.   s(13) = (    -1          0          0      )
                  (     0         -1          0      )
                  (     0          0         -1      )

 cart.    s(13) = ( -1.0000000  0.0000000  0.0000000 )
                  (  0.0000000 -1.0000000  0.0000000 )
                  (  0.0000000  0.0000000 -1.0000000 )


      isym = 14     inv. 180 deg rotation - cart. axis [0,0,1]   

 cryst.   s(14) = (     1          0          0      )    f =(  0.0000000 )
                  (     0          1          0      )       (  0.0000000 )
                  (     0          0         -1      )       (  0.5000000 )

 cart.    s(14) = (  1.0000000  0.0000000  0.0000000 )    f =(  0.0000000 )
                  (  0.0000000  1.0000000  0.0000000 )       (  0.0000000 )
                  (  0.0000000  0.0000000 -1.0000000 )       (  0.8130000 )


      isym = 15     inv. 180 deg rotation - cart. axis [0,1,0]   

 cryst.   s(15) = (     1          0          0      )    f =(  0.0000000 )
                  (    -1         -1          0      )       ( -0.0000000 )
                  (     0          0          1      )       ( -0.5000000 )

 cart.    s(15) = (  1.0000000  0.0000000  0.0000000 )    f =(  0.0000000 )
                  (  0.0000000 -1.0000000  0.0000000 )       ( -0.0000000 )
                  (  0.0000000  0.0000000  1.0000000 )       ( -0.8130000 )


      isym = 16     inv. 180 deg rotation - cart. axis [1,0,0]   

 cryst.   s(16) = (    -1          0          0      )
                  (     1          1          0      )
                  (     0          0          1      )

 cart.    s(16) = ( -1.0000000  0.0000000  0.0000000 )
                  (  0.0000000  1.0000000  0.0000000 )
                  (  0.0000000  0.0000000  1.0000000 )


      isym = 17     inv.  60 deg rotation - cryst. axis [0,0,1]  

 cryst.   s(17) = (    -1         -1          0      )    f =(  0.0000000 )
                  (     1          0          0      )       ( -0.0000000 )
                  (     0          0         -1      )       (  0.5000000 )

 cart.    s(17) = ( -0.5000000  0.8660254  0.0000000 )    f =(  0.0000000 )
                  ( -0.8660254 -0.5000000  0.0000000 )       ( -0.0000000 )
                  (  0.0000000  0.0000000 -1.0000000 )       (  0.8130000 )


      isym = 18     inv.  60 deg rotation - cryst. axis [0,0,-1] 

 cryst.   s(18) = (     0          1          0      )    f =( -0.0000000 )
                  (    -1         -1          0      )       ( -0.0000000 )
                  (     0          0         -1      )       (  0.5000000 )

 cart.    s(18) = ( -0.5000000 -0.8660254  0.0000000 )    f =(  0.0000000 )
                  (  0.8660254 -0.5000000  0.0000000 )       ( -0.0000000 )
                  (  0.0000000  0.0000000 -1.0000000 )       (  0.8130000 )


      isym = 19     inv. 120 deg rotation - cryst. axis [0,0,1]  

 cryst.   s(19) = (     0         -1          0      )
                  (     1          1          0      )
                  (     0          0         -1      )

 cart.    s(19) = (  0.5000000  0.8660254  0.0000000 )
                  ( -0.8660254  0.5000000  0.0000000 )
                  (  0.0000000  0.0000000 -1.0000000 )


      isym = 20     inv. 120 deg rotation - cryst. axis [0,0,-1] 

 cryst.   s(20) = (     1          1          0      )
                  (    -1          0          0      )
                  (     0          0         -1      )

 cart.    s(20) = (  0.5000000 -0.8660254  0.0000000 )
                  (  0.8660254  0.5000000  0.0000000 )
                  (  0.0000000  0.0000000 -1.0000000 )


      isym = 21     inv. 180 deg rotation - cryst. axis [1,-1,0] 

 cryst.   s(21) = (     0          1          0      )    f =(  0.0000000 )
                  (     1          0          0      )       ( -0.0000000 )
                  (     0          0          1      )       ( -0.5000000 )

 cart.    s(21) = ( -0.5000000  0.8660254  0.0000000 )    f =(  0.0000000 )
                  (  0.8660254  0.5000000  0.0000000 )       ( -0.0000000 )
                  (  0.0000000  0.0000000  1.0000000 )       ( -0.8130000 )


      isym = 22     inv. 180 deg rotation - cryst. axis [2,1,0]  

 cryst.   s(22) = (    -1         -1          0      )    f =(  0.0000000 )
                  (     0          1          0      )       ( -0.0000000 )
                  (     0          0          1      )       ( -0.5000000 )

 cart.    s(22) = ( -0.5000000 -0.8660254  0.0000000 )    f =(  0.0000000 )
                  ( -0.8660254  0.5000000  0.0000000 )       ( -0.0000000 )
                  (  0.0000000  0.0000000  1.0000000 )       ( -0.8130000 )


      isym = 23     inv. 180 deg rotation - cryst. axis [0,1,0]  

 cryst.   s(23) = (     1          1          0      )
                  (     0         -1          0      )
                  (     0          0          1      )

 cart.    s(23) = (  0.5000000  0.8660254  0.0000000 )
                  (  0.8660254 -0.5000000  0.0000000 )
                  (  0.0000000  0.0000000  1.0000000 )


      isym = 24     inv. 180 deg rotation - cryst. axis [1,1,0]  

 cryst.   s(24) = (     0         -1          0      )
                  (    -1          0          0      )
                  (     0          0          1      )

 cart.    s(24) = (  0.5000000 -0.8660254  0.0000000 )
                  ( -0.8660254 -0.5000000  0.0000000 )
                  (  0.0000000  0.0000000  1.0000000 )


     point group D_6h(6/mmm)
     there are 12 classes
     the character table:

       E     2C6   2C3   C2    3C2'  3C2'' i     2S3   2S6   s_h   3s_d  3s_v 
A_1g   1.00  1.00  1.00  1.00  1.00  1.00  1.00  1.00  1.00  1.00  1.00  1.00
A_2g   1.00  1.00  1.00  1.00 -1.00 -1.00  1.00  1.00  1.00  1.00 -1.00 -1.00
B_1g   1.00 -1.00  1.00 -1.00  1.00 -1.00  1.00 -1.00  1.00 -1.00  1.00 -1.00
B_2g   1.00 -1.00  1.00 -1.00 -1.00  1.00  1.00 -1.00  1.00 -1.00 -1.00  1.00
E_1g   2.00  1.00 -1.00 -2.00  0.00  0.00  2.00  1.00 -1.00 -2.00  0.00  0.00
E_2g   2.00 -1.00 -1.00  2.00  0.00  0.00  2.00 -1.00 -1.00  2.00  0.00  0.00
A_1u   1.00  1.00  1.00  1.00  1.00  1.00 -1.00 -1.00 -1.00 -1.00 -1.00 -1.00
A_2u   1.00  1.00  1.00  1.00 -1.00 -1.00 -1.00 -1.00 -1.00 -1.00  1.00  1.00
B_1u   1.00 -1.00  1.00 -1.00  1.00 -1.00 -1.00  1.00 -1.00  1.00 -1.00  1.00
B_2u   1.00 -1.00  1.00 -1.00 -1.00  1.00 -1.00  1.00 -1.00  1.00  1.00 -1.00
E_1u   2.00  1.00 -1.00 -2.00  0.00  0.00 -2.00 -1.00  1.00  2.00  0.00  0.00
E_2u   2.00 -1.00 -1.00  2.00  0.00  0.00 -2.00  1.00  1.00 -2.00  0.00  0.00

     the symmetry operations in each class and the name of the first element:

     E        1
          identity                                               
     2C6      5    6
           60 deg rotation - cryst. axis [0,0,1]                 
     2C3      7    8
          120 deg rotation - cryst. axis [0,0,1]                 
     C2       2
          180 deg rotation - cart. axis [0,0,1]                  
     3C2'     4   12   11
          180 deg rotation - cart. axis [1,0,0]                  
     3C2''    3    9   10
          180 deg rotation - cart. axis [0,1,0]                  
     i       13
          inversion                                              
     2S3     17   18
          inv.  60 deg rotation - cryst. axis [0,0,1]            
     2S6     19   20
          inv. 120 deg rotation - cryst. axis [0,0,1]            
     s_h     14
          inv. 180 deg rotation - cart. axis [0,0,1]             
     3s_d    16   24   23
          inv. 180 deg rotation - cart. axis [1,0,0]             
     3s_v    15   21   22
          inv. 180 deg rotation - cart. axis [0,1,0]             

   Cartesian axes

     site n.     atom                  positions (alat units)
         1           Co  tau(   1) = (  -0.0000000   0.5773503   0.4065000  )
         2           Co  tau(   2) = (   0.5000000   0.2886751   1.2195000  )

   Crystallographic axes

     site n.     atom                  positions (cryst. coord.)
         1           Co  tau(   1) = (  0.3333333  0.6666667  0.2500000  )
         2           Co  tau(   2) = (  0.6666667  0.3333333  0.7500000  )

     number of k points=    76  Gaussian smearing, width (Ry)=  0.0010
                       cart. coord. in units 2pi/alat
        k(    1) = (   0.0000000   0.0000000   0.0000000), wk =   0.0011574
        k(    2) = (   0.0000000   0.0000000   0.1025010), wk =   0.0023148
        k(    3) = (   0.0000000   0.0000000   0.2050021), wk =   0.0023148
        k(    4) = (   0.0000000   0.0000000  -0.3075031), wk =   0.0011574
        k(    5) = (   0.0000000   0.0962250   0.0000000), wk =   0.0069444
        k(    6) = (   0.0000000   0.0962250   0.1025010), wk =   0.0138889
        k(    7) = (   0.0000000   0.0962250   0.2050021), wk =   0.0138889
        k(    8) = (   0.0000000   0.0962250  -0.3075031), wk =   0.0069444
        k(    9) = (   0.0000000   0.1924501   0.0000000), wk =   0.0069444
        k(   10) = (   0.0000000   0.1924501   0.1025010), wk =   0.0138889
        k(   11) = (   0.0000000   0.1924501   0.2050021), wk =   0.0138889
        k(   12) = (   0.0000000   0.1924501  -0.3075031), wk =   0.0069444
        k(   13) = (   0.0000000   0.2886751   0.0000000), wk =   0.0069444
        k(   14) = (   0.0000000   0.2886751   0.1025010), wk =   0.0138889
        k(   15) = (   0.0000000   0.2886751   0.2050021), wk =   0.0138889
        k(   16) = (   0.0000000   0.2886751  -0.3075031), wk =   0.0069444
        k(   17) = (   0.0000000   0.3849002   0.0000000), wk =   0.0069444
        k(   18) = (   0.0000000   0.3849002   0.1025010), wk =   0.0138889
        k(   19) = (   0.0000000   0.3849002   0.2050021), wk =   0.0138889
        k(   20) = (   0.0000000   0.3849002  -0.3075031), wk =   0.0069444
        k(   21) = (   0.0000000   0.4811252   0.0000000), wk =   0.0069444
        k(   22) = (   0.0000000   0.4811252   0.1025010), wk =   0.0138889
        k(   23) = (   0.0000000   0.4811252   0.2050021), wk =   0.0138889
        k(   24) = (   0.0000000   0.4811252  -0.3075031), wk =   0.0069444
        k(   25) = (   0.0000000  -0.5773503   0.0000000), wk =   0.0034722
        k(   26) = (   0.0000000  -0.5773503   0.1025010), wk =   0.0069444
        k(   27) = (   0.0000000  -0.5773503   0.2050021), wk =   0.0069444
        k(   28) = (   0.0000000  -0.5773503  -0.3075031), wk =   0.0034722
        k(   29) = (   0.0833333   0.1443376   0.0000000), wk =   0.0069444
        k(   30) = (   0.0833333   0.1443376   0.1025010), wk =   0.0138889
        k(   31) = (   0.0833333   0.1443376   0.2050021), wk =   0.0138889
        k(   32) = (   0.0833333   0.1443376  -0.3075031), wk =   0.0069444
        k(   33) = (   0.0833333   0.2405626   0.0000000), wk =   0.0138889
        k(   34) = (   0.0833333   0.2405626   0.1025010), wk =   0.0277778
        k(   35) = (   0.0833333   0.2405626   0.2050021), wk =   0.0277778
        k(   36) = (   0.0833333   0.2405626  -0.3075031), wk =   0.0138889
        k(   37) = (   0.0833333   0.3367877   0.0000000), wk =   0.0138889
        k(   38) = (   0.0833333   0.3367877   0.1025010), wk =   0.0277778
        k(   39) = (   0.0833333   0.3367877   0.2050021), wk =   0.0277778
        k(   40) = (   0.0833333   0.3367877  -0.3075031), wk =   0.0138889
        k(   41) = (   0.0833333   0.4330127   0.0000000), wk =   0.0138889
        k(   42) = (   0.0833333   0.4330127   0.1025010), wk =   0.0277778
        k(   43) = (   0.0833333   0.4330127   0.2050021), wk =   0.0277778
        k(   44) = (   0.0833333   0.4330127  -0.3075031), wk =   0.0138889
        k(   45) = (   0.0833333   0.5292377   0.0000000), wk =   0.0138889
        k(   46) = (   0.0833333   0.5292377   0.1025010), wk =   0.0277778
        k(   47) = (   0.0833333   0.5292377   0.2050021), wk =   0.0277778
        k(   48) = (   0.0833333   0.5292377  -0.3075031), wk =   0.0138889
        k(   49) = (   0.1666667   0.2886751   0.0000000), wk =   0.0069444
        k(   50) = (   0.1666667   0.2886751   0.1025010), wk =   0.0138889
        k(   51) = (   0.1666667   0.2886751   0.2050021), wk =   0.0138889
        k(   52) = (   0.1666667   0.2886751  -0.3075031), wk =   0.0069444
        k(   53) = (   0.1666667   0.3849002   0.0000000), wk =   0.0138889
        k(   54) = (   0.1666667   0.3849002   0.1025010), wk =   0.0277778
        k(   55) = (   0.1666667   0.3849002   0.2050021), wk =   0.0277778
        k(   56) = (   0.1666667   0.3849002  -0.3075031), wk =   0.0138889
        k(   57) = (   0.1666667   0.4811252   0.0000000), wk =   0.0138889
        k(   58) = (   0.1666667   0.4811252   0.1025010), wk =   0.0277778
        k(   59) = (   0.1666667   0.4811252   0.2050021), wk =   0.0277778
        k(   60) = (   0.1666667   0.4811252  -0.3075031), wk =   0.0138889
        k(   61) = (   0.1666667   0.5773503   0.0000000), wk =   0.0069444
        k(   62) = (   0.1666667   0.5773503   0.1025010), wk =   0.0138889
        k(   63) = (   0.1666667   0.5773503   0.2050021), wk =   0.0138889
        k(   64) = (   0.1666667   0.5773503  -0.3075031), wk =   0.0069444
        k(   65) = (   0.2500000   0.4330127   0.0000000), wk =   0.0069444
        k(   66) = (   0.2500000   0.4330127   0.1025010), wk =   0.0138889
        k(   67) = (   0.2500000   0.4330127   0.2050021), wk =   0.0138889
        k(   68) = (   0.2500000   0.4330127  -0.3075031), wk =   0.0069444
        k(   69) = (   0.2500000   0.5292377   0.0000000), wk =   0.0138889
        k(   70) = (   0.2500000   0.5292377   0.1025010), wk =   0.0277778
        k(   71) = (   0.2500000   0.5292377   0.2050021), wk =   0.0277778
        k(   72) = (   0.2500000   0.5292377  -0.3075031), wk =   0.0138889
        k(   73) = (   0.3333333   0.5773503   0.0000000), wk =   0.0023148
        k(   74) = (   0.3333333   0.5773503   0.1025010), wk =   0.0046296
        k(   75) = (   0.3333333   0.5773503   0.2050021), wk =   0.0046296
        k(   76) = (   0.3333333   0.5773503  -0.3075031), wk =   0.0023148

                       cryst. coord.
        k(    1) = (   0.0000000   0.0000000   0.0000000), wk =   0.0011574
        k(    2) = (   0.0000000   0.0000000   0.1666667), wk =   0.0023148
        k(    3) = (   0.0000000   0.0000000   0.3333333), wk =   0.0023148
        k(    4) = (   0.0000000   0.0000000  -0.5000000), wk =   0.0011574
        k(    5) = (   0.0000000   0.0833333   0.0000000), wk =   0.0069444
        k(    6) = (   0.0000000   0.0833333   0.1666667), wk =   0.0138889
        k(    7) = (   0.0000000   0.0833333   0.3333333), wk =   0.0138889
        k(    8) = (   0.0000000   0.0833333  -0.5000000), wk =   0.0069444
        k(    9) = (   0.0000000   0.1666667   0.0000000), wk =   0.0069444
        k(   10) = (   0.0000000   0.1666667   0.1666667), wk =   0.0138889
        k(   11) = (   0.0000000   0.1666667   0.3333333), wk =   0.0138889
        k(   12) = (   0.0000000   0.1666667  -0.5000000), wk =   0.0069444
        k(   13) = (   0.0000000   0.2500000   0.0000000), wk =   0.0069444
        k(   14) = (   0.0000000   0.2500000   0.1666667), wk =   0.0138889
        k(   15) = (   0.0000000   0.2500000   0.3333333), wk =   0.0138889
        k(   16) = (   0.0000000   0.2500000  -0.5000000), wk =   0.0069444
        k(   17) = (   0.0000000   0.3333333   0.0000000), wk =   0.0069444
        k(   18) = (   0.0000000   0.3333333   0.1666667), wk =   0.0138889
        k(   19) = (   0.0000000   0.3333333   0.3333333), wk =   0.0138889
        k(   20) = (   0.0000000   0.3333333  -0.5000000), wk =   0.0069444
        k(   21) = (   0.0000000   0.4166667   0.0000000), wk =   0.0069444
        k(   22) = (   0.0000000   0.4166667   0.1666667), wk =   0.0138889
        k(   23) = (   0.0000000   0.4166667   0.3333333), wk =   0.0138889
        k(   24) = (   0.0000000   0.4166667  -0.5000000), wk =   0.0069444
        k(   25) = (   0.0000000  -0.5000000   0.0000000), wk =   0.0034722
        k(   26) = (   0.0000000  -0.5000000   0.1666667), wk =   0.0069444
        k(   27) = (   0.0000000  -0.5000000   0.3333333), wk =   0.0069444
        k(   28) = (   0.0000000  -0.5000000  -0.5000000), wk =   0.0034722
        k(   29) = (   0.0833333   0.0833333   0.0000000), wk =   0.0069444
        k(   30) = (   0.0833333   0.0833333   0.1666667), wk =   0.0138889
        k(   31) = (   0.0833333   0.0833333   0.3333333), wk =   0.0138889
        k(   32) = (   0.0833333   0.0833333  -0.5000000), wk =   0.0069444
        k(   33) = (   0.0833333   0.1666667   0.0000000), wk =   0.0138889
        k(   34) = (   0.0833333   0.1666667   0.1666667), wk =   0.0277778
        k(   35) = (   0.0833333   0.1666667   0.3333333), wk =   0.0277778
        k(   36) = (   0.0833333   0.1666667  -0.5000000), wk =   0.0138889
        k(   37) = (   0.0833333   0.2500000   0.0000000), wk =   0.0138889
        k(   38) = (   0.0833333   0.2500000   0.1666667), wk =   0.0277778
        k(   39) = (   0.0833333   0.2500000   0.3333333), wk =   0.0277778
        k(   40) = (   0.0833333   0.2500000  -0.5000000), wk =   0.0138889
        k(   41) = (   0.0833333   0.3333333   0.0000000), wk =   0.0138889
        k(   42) = (   0.0833333   0.3333333   0.1666667), wk =   0.0277778
        k(   43) = (   0.0833333   0.3333333   0.3333333), wk =   0.0277778
        k(   44) = (   0.0833333   0.3333333  -0.5000000), wk =   0.0138889
        k(   45) = (   0.0833333   0.4166667   0.0000000), wk =   0.0138889
        k(   46) = (   0.0833333   0.4166667   0.1666667), wk =   0.0277778
        k(   47) = (   0.0833333   0.4166667   0.3333333), wk =   0.0277778
        k(   48) = (   0.0833333   0.4166667  -0.5000000), wk =   0.0138889
        k(   49) = (   0.1666667   0.1666667   0.0000000), wk =   0.0069444
        k(   50) = (   0.1666667   0.1666667   0.1666667), wk =   0.0138889
        k(   51) = (   0.1666667   0.1666667   0.3333333), wk =   0.0138889
        k(   52) = (   0.1666667   0.1666667  -0.5000000), wk =   0.0069444
        k(   53) = (   0.1666667   0.2500000   0.0000000), wk =   0.0138889
        k(   54) = (   0.1666667   0.2500000   0.1666667), wk =   0.0277778
        k(   55) = (   0.1666667   0.2500000   0.3333333), wk =   0.0277778
        k(   56) = (   0.1666667   0.2500000  -0.5000000), wk =   0.0138889
        k(   57) = (   0.1666667   0.3333333   0.0000000), wk =   0.0138889
        k(   58) = (   0.1666667   0.3333333   0.1666667), wk =   0.0277778
        k(   59) = (   0.1666667   0.3333333   0.3333333), wk =   0.0277778
        k(   60) = (   0.1666667   0.3333333  -0.5000000), wk =   0.0138889
        k(   61) = (   0.1666667   0.4166667   0.0000000), wk =   0.0069444
        k(   62) = (   0.1666667   0.4166667   0.1666667), wk =   0.0138889
        k(   63) = (   0.1666667   0.4166667   0.3333333), wk =   0.0138889
        k(   64) = (   0.1666667   0.4166667  -0.5000000), wk =   0.0069444
        k(   65) = (   0.2500000   0.2500000   0.0000000), wk =   0.0069444
        k(   66) = (   0.2500000   0.2500000   0.1666667), wk =   0.0138889
        k(   67) = (   0.2500000   0.2500000   0.3333333), wk =   0.0138889
        k(   68) = (   0.2500000   0.2500000  -0.5000000), wk =   0.0069444
        k(   69) = (   0.2500000   0.3333333   0.0000000), wk =   0.0138889
        k(   70) = (   0.2500000   0.3333333   0.1666667), wk =   0.0277778
        k(   71) = (   0.2500000   0.3333333   0.3333333), wk =   0.0277778
        k(   72) = (   0.2500000   0.3333333  -0.5000000), wk =   0.0138889
        k(   73) = (   0.3333333   0.3333333   0.0000000), wk =   0.0023148
        k(   74) = (   0.3333333   0.3333333   0.1666667), wk =   0.0046296
        k(   75) = (   0.3333333   0.3333333   0.3333333), wk =   0.0046296
        k(   76) = (   0.3333333   0.3333333  -0.5000000), wk =   0.0023148

     Dense  grid:    23883 G-vectors     FFT dimensions: (  32,  32,  54)

     Smooth grid:    23199 G-vectors     FFT dimensions: (  32,  32,  54)

     Dynamical RAM for                 wfc:       0.05 MB

     Dynamical RAM for     wfc (w. buffer):       7.06 MB

     Dynamical RAM for           str. fact:       0.02 MB

     Dynamical RAM for           local pot:       0.00 MB

     Dynamical RAM for          nlocal pot:       0.08 MB

     Dynamical RAM for                qrad:       1.70 MB

     Dynamical RAM for          rho,v,vnew:       0.25 MB

     Dynamical RAM for               rhoin:       0.08 MB

     Dynamical RAM for            rho*nmix:       0.58 MB

     Dynamical RAM for           G-vectors:       0.08 MB

     Dynamical RAM for          h,s,v(r/c):       0.08 MB

     Dynamical RAM for          <psi|beta>:       0.01 MB

     Dynamical RAM for                 psi:       0.09 MB

     Dynamical RAM for                hpsi:       0.09 MB

     Dynamical RAM for                spsi:       0.09 MB

     Dynamical RAM for      wfcinit/wfcrot:       0.10 MB

     Dynamical RAM for           addusdens:       3.44 MB

     Estimated static dynamical RAM per process >       9.45 MB

     Estimated max dynamical RAM per process >      13.47 MB

     Estimated total dynamical RAM >     269.47 MB

     Check: negative core charge=   -0.000043
     Generating pointlists ...
     new r_m :   0.4113 (alat units)  1.9432 (a.u.) for type    1

     The initial density is read from file :
     ./out/Co.save/charge-density


     starting charge      34.0419, renormalised to      34.0000

     negative rho (up, down):  2.299E-02 1.267E-02
     Starting wfcs from file
     Checking if some PAW data can be deallocated... 

     total cpu time spent up to now is        0.6 secs

     Self-consistent Calculation

     iteration #  1     ecut=   110.00 Ry     beta= 0.70
     Davidson diagonalization with overlap

---- Real-time Memory Report at c_bands before calling an iterative solver
            55 MiB given to the printing process from OS
             0 MiB allocation reported by mallinfo(arena+hblkhd)
        351534 MiB available memory on the node where the printing process lives
------------------
     ethr =  1.00E-05,  avg # of iterations =  7.7

     total cpu time spent up to now is        4.1 secs

     total energy              =    -753.34644682 Ry
     estimated scf accuracy    <       0.02265766 Ry

     total magnetization       =     3.36 Bohr mag/cell
     absolute magnetization    =     3.64 Bohr mag/cell

     iteration #  2     ecut=   110.00 Ry     beta= 0.70
     Davidson diagonalization with overlap

---- Real-time Memory Report at c_bands before calling an iterative solver
            76 MiB given to the printing process from OS
             0 MiB allocation reported by mallinfo(arena+hblkhd)
        351311 MiB available memory on the node where the printing process lives
------------------
     ethr =  6.66E-05,  avg # of iterations =  2.0

     total cpu time spent up to now is        5.6 secs

     total energy              =    -753.45001368 Ry
     estimated scf accuracy    <       0.00229173 Ry

     total magnetization       =     3.36 Bohr mag/cell
     absolute magnetization    =     3.65 Bohr mag/cell

     iteration #  3     ecut=   110.00 Ry     beta= 0.70
     Davidson diagonalization with overlap

---- Real-time Memory Report at c_bands before calling an iterative solver
            77 MiB given to the printing process from OS
             0 MiB allocation reported by mallinfo(arena+hblkhd)
        351300 MiB available memory on the node where the printing process lives
------------------
     ethr =  6.74E-06,  avg # of iterations =  5.1

     total cpu time spent up to now is        8.1 secs

     total energy              =    -753.45223767 Ry
     estimated scf accuracy    <       0.00229445 Ry

     total magnetization       =     3.36 Bohr mag/cell
     absolute magnetization    =     3.68 Bohr mag/cell

     iteration #  4     ecut=   110.00 Ry     beta= 0.70
     Davidson diagonalization with overlap

---- Real-time Memory Report at c_bands before calling an iterative solver
            78 MiB given to the printing process from OS
             0 MiB allocation reported by mallinfo(arena+hblkhd)
        351288 MiB available memory on the node where the printing process lives
------------------
     ethr =  6.74E-06,  avg # of iterations =  1.6

     total cpu time spent up to now is        9.3 secs

     total energy              =    -753.45475079 Ry
     estimated scf accuracy    <       0.00015679 Ry

     total magnetization       =     3.36 Bohr mag/cell
     absolute magnetization    =     3.68 Bohr mag/cell

     iteration #  5     ecut=   110.00 Ry     beta= 0.70
     Davidson diagonalization with overlap

---- Real-time Memory Report at c_bands before calling an iterative solver
            78 MiB given to the printing process from OS
             0 MiB allocation reported by mallinfo(arena+hblkhd)
        351277 MiB available memory on the node where the printing process lives
------------------
     ethr =  4.61E-07,  avg # of iterations =  5.0

     total cpu time spent up to now is       11.6 secs

     total energy              =    -753.45488981 Ry
     estimated scf accuracy    <       0.00001753 Ry

     total magnetization       =     3.36 Bohr mag/cell
     absolute magnetization    =     3.68 Bohr mag/cell

     iteration #  6     ecut=   110.00 Ry     beta= 0.70
     Davidson diagonalization with overlap

---- Real-time Memory Report at c_bands before calling an iterative solver
            79 MiB given to the printing process from OS
             0 MiB allocation reported by mallinfo(arena+hblkhd)
        351270 MiB available memory on the node where the printing process lives
------------------
     ethr =  5.15E-08,  avg # of iterations =  3.1

     total cpu time spent up to now is       13.2 secs

     total energy              =    -753.45488969 Ry
     estimated scf accuracy    <       0.00001232 Ry

     total magnetization       =     3.36 Bohr mag/cell
     absolute magnetization    =     3.68 Bohr mag/cell

     iteration #  7     ecut=   110.00 Ry     beta= 0.70
     Davidson diagonalization with overlap

---- Real-time Memory Report at c_bands before calling an iterative solver
            80 MiB given to the printing process from OS
             0 MiB allocation reported by mallinfo(arena+hblkhd)
        351264 MiB available memory on the node where the printing process lives
------------------
     ethr =  3.62E-08,  avg # of iterations =  3.8

     total cpu time spent up to now is       14.9 secs

     total energy              =    -753.45489526 Ry
     estimated scf accuracy    <       0.00000365 Ry

     total magnetization       =     3.36 Bohr mag/cell
     absolute magnetization    =     3.69 Bohr mag/cell

     iteration #  8     ecut=   110.00 Ry     beta= 0.70
     Davidson diagonalization with overlap

---- Real-time Memory Report at c_bands before calling an iterative solver
            81 MiB given to the printing process from OS
             0 MiB allocation reported by mallinfo(arena+hblkhd)
        351259 MiB available memory on the node where the printing process lives
------------------
     ethr =  1.07E-08,  avg # of iterations =  2.4

     total cpu time spent up to now is       16.3 secs

     total energy              =    -753.45489463 Ry
     estimated scf accuracy    <       0.00000207 Ry

     total magnetization       =     3.36 Bohr mag/cell
     absolute magnetization    =     3.69 Bohr mag/cell

     iteration #  9     ecut=   110.00 Ry     beta= 0.70
     Davidson diagonalization with overlap

---- Real-time Memory Report at c_bands before calling an iterative solver
            82 MiB given to the printing process from OS
             0 MiB allocation reported by mallinfo(arena+hblkhd)
        351254 MiB available memory on the node where the printing process lives
------------------
     ethr =  6.10E-09,  avg # of iterations =  4.3
 
     Magnetic moment per site  (integrated on atomic sphere of radius R)
     atom   1 (R=0.411)  charge= 15.6074  magn=  1.7555
     atom   2 (R=0.411)  charge= 15.6074  magn=  1.7555

     total cpu time spent up to now is       18.1 secs

     End of self-consistent calculation

 ------ SPIN UP ------------


          k = 0.0000 0.0000 0.0000 (  2875 PWs)   bands (ev):

   -77.7586 -77.7068 -41.1540 -40.8704 -40.8704 -40.8472 -40.8264 -40.8264
     9.4549  13.2337  15.7086  15.7679  15.7679  16.0683  16.0683  16.4132
    16.4132  17.4765  17.4765  18.0841  24.4628

     occupation numbers 
     1.0000   1.0000   1.0000   1.0000   1.0000   1.0000   1.0000   1.0000
     1.0000   1.0000   1.0000   1.0000   1.0000   1.0000   1.0000   1.0000
     1.0000   1.0000   1.0000   1.0000   0.0000

          k = 0.0000 0.0000 0.1025 (  2875 PWs)   bands (ev):

   -77.7551 -77.7102 -41.1337 -40.8680 -40.8675 -40.8675 -40.8293 -40.8293
     9.7273  13.1600  15.6406  15.7066  15.7066  15.9980  15.9980  16.5691
    16.5691  17.1393  17.4598  17.4598  25.9719

     occupation numbers 
     1.0000   1.0000   1.0000   1.0000   1.0000   1.0000   1.0000   1.0000
     1.0000   1.0000   1.0000   1.0000   1.0000   1.0000   1.0000   1.0000
     1.0000   1.0000   1.0000   1.0000   0.0000

          k = 0.0000 0.0000 0.2050 (  2888 PWs)   bands (ev):

   -77.7457 -77.7198 -41.0780 -40.9247 -40.8594 -40.8594 -40.8374 -40.8374
    10.5088  12.7122  15.4837  15.6543  15.6543  15.8427  15.8427  15.8476
    16.8780  16.8780  17.3734  17.3734  29.1537

     occupation numbers 
     1.0000   1.0000   1.0000   1.0000   1.0000   1.0000   1.0000   1.0000
     1.0000   1.0000   1.0000   1.0000   1.0000   1.0000   1.0000   1.0000
     1.0000   1.0000   1.0000   1.0000   0.0000

          k = 0.0000 0.0000-0.3075 (  2894 PWs)   bands (ev):

   -77.7327 -77.7327 -41.0016 -41.0016 -40.8484 -40.8484 -40.8484 -40.8484
    11.6508  11.6508  15.4094  15.4094  15.7042  15.7042  15.7042  15.7042
    17.1738  17.1738  17.1738  17.1738  32.9529

     occupation numbers 
     1.0000   1.0000   1.0000   1.0000   1.0000   1.0000   1.0000   1.0000
     1.0000   1.0000   1.0000   1.0000   1.0000   1.0000   1.0000   1.0000
     1.0000   1.0000   1.0000   1.0000   0.0000

          k = 0.0000 0.0962 0.0000 (  2857 PWs)   bands (ev):

   -77.7556 -77.7053 -41.1472 -40.8855 -40.8753 -40.8499 -40.8420 -40.8289
     9.6950  13.3784  15.5252  15.8799  15.9166  16.0203  16.1677  16.2565
    16.3439  16.6912  17.5053  19.1899  24.5038

     occupation numbers 
     1.0000   1.0000   1.0000   1.0000   1.0000   1.0000   1.0000   1.0000
     1.0000   1.0000   1.0000   1.0000   1.0000   1.0000   1.0000   1.0000
     1.0000   1.0000   1.0000   0.0000   0.0000

          k = 0.0000 0.0962 0.1025 (  2878 PWs)   bands (ev):

   -77.7522 -77.7087 -41.1281 -40.8822 -40.8742 -40.8722 -40.8407 -40.8321
     9.9632  13.3192  15.5240  15.7489  15.8025  15.8440  16.0916  16.3713
    16.5258  16.6026  17.4815  18.4208  26.0820

     occupation numbers 
     1.0000   1.0000   1.0000   1.0000   1.0000   1.0000   1.0000   1.0000
     1.0000   1.0000   1.0000   1.0000   1.0000   1.0000   1.0000   1.0000
     1.0000   1.0000   1.0000   0.0000   0.0000

          k = 0.0000 0.0962 0.2050 (  2884 PWs)   bands (ev):

   -77.7431 -77.7179 -41.0755 -40.9298 -40.8727 -40.8637 -40.8480 -40.8405
    10.7326  12.8995  15.4152  15.4662  15.5778  15.7433  15.9349  15.9904
    16.8531  16.8963  17.3792  17.6668  29.3078

     occupation numbers 
     1.0000   1.0000   1.0000   1.0000   1.0000   1.0000   1.0000   1.0000
     1.0000   1.0000   1.0000   1.0000   1.0000   1.0000   1.0000   1.0000
     1.0000   1.0000   1.0000   1.0000   0.0000

          k = 0.0000 0.0962-0.3075 (  2882 PWs)   bands (ev):

   -77.7305 -77.7305 -41.0031 -41.0031 -40.8602 -40.8602 -40.8521 -40.8521
    11.8564  11.8564  15.2711  15.2711  15.7133  15.7133  15.7946  15.7946
    17.1629  17.1629  17.2632  17.2632  33.1213

     occupation numbers 
     1.0000   1.0000   1.0000   1.0000   1.0000   1.0000   1.0000   1.0000
     1.0000   1.0000   1.0000   1.0000   1.0000   1.0000   1.0000   1.0000
     1.0000   1.0000   1.0000   1.0000   0.0000

          k = 0.0000 0.1925 0.0000 (  2873 PWs)   bands (ev):

   -77.7473 -77.7016 -41.1282 -40.9268 -40.8884 -40.8842 -40.8581 -40.8362
    10.3897  13.7369  15.2644  15.5297  15.8437  16.1731  16.1959  16.2130
    16.3504  16.4462  17.5662  20.7589  24.6482

     occupation numbers 
     1.0000   1.0000   1.0000   1.0000   1.0000   1.0000   1.0000   1.0000
     1.0000   1.0000   1.0000   1.0000   1.0000   1.0000   1.0000   1.0000
     1.0000   1.0000   1.0000   0.0000   0.0000

          k = 0.0000 0.1925 0.1025 (  2880 PWs)   bands (ev):

   -77.7442 -77.7046 -41.1127 -40.9221 -40.9031 -40.8849 -40.8598 -40.8397
    10.6423  13.7221  15.2634  15.3040  15.7260  16.0091  16.1026  16.3343
    16.5073  16.5900  17.5269  19.6317  26.4401

     occupation numbers 
     1.0000   1.0000   1.0000   1.0000   1.0000   1.0000   1.0000   1.0000
     1.0000   1.0000   1.0000   1.0000   1.0000   1.0000   1.0000   1.0000
     1.0000   1.0000   1.0000   0.0000   0.0000

          k = 0.0000 0.1925 0.2050 (  2886 PWs)   bands (ev):

   -77.7359 -77.7130 -41.0700 -40.9511 -40.9068 -40.8754 -40.8705 -40.8493
    11.3639  13.3851  14.9326  15.3595  15.4519  15.9304  15.9605  16.1903
    16.8276  16.9806  17.3915  18.3000  29.7689

     occupation numbers 
     1.0000   1.0000   1.0000   1.0000   1.0000   1.0000   1.0000   1.0000
     1.0000   1.0000   1.0000   1.0000   1.0000   1.0000   1.0000   1.0000
     1.0000   1.0000   1.0000   1.0000   0.0000

          k = 0.0000 0.1925-0.3075 (  2886 PWs)   bands (ev):

   -77.7244 -77.7244 -41.0112 -41.0112 -40.8882 -40.8882 -40.8623 -40.8623
    12.4110  12.4110  15.0484  15.0484  15.6544  15.6544  16.0353  16.0353
    17.1477  17.1477  17.5041  17.5041  33.5822

     occupation numbers 
     1.0000   1.0000   1.0000   1.0000   1.0000   1.0000   1.0000   1.0000
     1.0000   1.0000   1.0000   1.0000   1.0000   1.0000   1.0000   1.0000
     1.0000   1.0000   1.0000   1.0000   0.0000

          k = 0.0000 0.2887 0.0000 (  2876 PWs)   bands (ev):

   -77.7354 -77.6969 -41.0996 -40.9837 -40.9411 -40.9058 -40.8719 -40.8466
    11.4425  14.0266  14.8212  15.1053  15.7450  15.9675  16.1519  16.6351
    16.6543  16.8464  17.6231  22.5287  24.9297

     occupation numbers 
     1.0000   1.0000   1.0000   1.0000   1.0000   1.0000   1.0000   1.0000
     1.0000   1.0000   1.0000   1.0000   1.0000   1.0000   1.0000   1.0000
     1.0000   1.0000   1.0000   0.0000   0.0000

          k = 0.0000 0.2887 0.1025 (  2888 PWs)   bands (ev):

   -77.7328 -77.6994 -41.0923 -40.9750 -40.9546 -40.9018 -40.8745 -40.8505
    11.6535  14.0651  14.6815  15.1554  15.5979  16.0055  16.1544  16.6953
    16.7553  16.8034  17.5703  20.8937  27.0828

     occupation numbers 
     1.0000   1.0000   1.0000   1.0000   1.0000   1.0000   1.0000   1.0000
     1.0000   1.0000   1.0000   1.0000   1.0000   1.0000   1.0000   1.0000
     1.0000   1.0000   1.0000   0.0000   0.0000

          k = 0.0000 0.2887 0.2050 (  2892 PWs)   bands (ev):

   -77.7258 -77.7065 -41.0702 -40.9948 -40.9442 -40.8910 -40.8876 -40.8614
    12.2418  13.8197  14.6085  15.1811  15.4759  16.0007  16.1253  16.5497
    16.9488  17.1360  17.4172  19.0621  30.4137

     occupation numbers 
     1.0000   1.0000   1.0000   1.0000   1.0000   1.0000   1.0000   1.0000
     1.0000   1.0000   1.0000   1.0000   1.0000   1.0000   1.0000   1.0000
     1.0000   1.0000   1.0000   0.0000   0.0000

          k = 0.0000 0.2887-0.3075 (  2908 PWs)   bands (ev):

   -77.7162 -77.7162 -41.0353 -41.0353 -40.9132 -40.9132 -40.8762 -40.8762
    13.0575  13.0575  14.8972  14.8972  15.7129  15.7129  16.3210  16.3210
    17.1912  17.1912  17.8433  17.8433  32.5930

     occupation numbers 
     1.0000   1.0000   1.0000   1.0000   1.0000   1.0000   1.0000   1.0000
     1.0000   1.0000   1.0000   1.0000   1.0000   1.0000   1.0000   1.0000
     1.0000   1.0000   1.0000   1.0000   0.0000

          k = 0.0000 0.3849 0.0000 (  2886 PWs)   bands (ev):

   -77.7227 -77.6930 -41.0661 -41.0410 -40.9969 -40.9228 -40.8905 -40.8573
    12.5970  13.9631  14.3108  15.2117  15.7821  15.8639  15.9723  17.1428
    17.2799  17.3126  17.6615  24.4606  25.0307

     occupation numbers 
     1.0000   1.0000   1.0000   1.0000   1.0000   1.0000   1.0000   1.0000
     1.0000   1.0000   1.0000   1.0000   1.0000   1.0000   1.0000   1.0000
     1.0000   1.0000   1.0000   0.0000   0.0000

          k = 0.0000 0.3849 0.1025 (  2882 PWs)   bands (ev):

   -77.7208 -77.6950 -41.0827 -41.0199 -41.0016 -40.9184 -40.8904 -40.8617
    12.6970  13.9905  14.3443  15.0673  15.7916  15.8719  16.3131  17.1587
    17.1904  17.2498  17.6130  22.1252  27.1923

     occupation numbers 
     1.0000   1.0000   1.0000   1.0000   1.0000   1.0000   1.0000   1.0000
     1.0000   1.0000   1.0000   1.0000   1.0000   1.0000   1.0000   1.0000
     1.0000   1.0000   1.0000   0.0000   0.0000

          k = 0.0000 0.3849 0.2050 (  2897 PWs)   bands (ev):

   -77.7153 -77.7004 -41.0884 -41.0455 -40.9621 -40.9065 -40.8986 -40.8737
    12.9760  13.8070  14.4852  14.9796  15.8962  16.1251  16.6183  16.8798
    17.2608  17.3609  17.5049  19.9453  28.2983

     occupation numbers 
     1.0000   1.0000   1.0000   1.0000   1.0000   1.0000   1.0000   1.0000
     1.0000   1.0000   1.0000   1.0000   1.0000   1.0000   1.0000   1.0000
     1.0000   1.0000   1.0000   0.0000   0.0000

          k = 0.0000 0.3849-0.3075 (  2898 PWs)   bands (ev):

   -77.7079 -77.7079 -41.0741 -41.0741 -40.9232 -40.9232 -40.8901 -40.8901
    13.3807  13.3807  14.7697  14.7697  16.3034  16.3034  16.4909  16.4909
    17.3788  17.3788  18.3213  18.3213  29.4044

     occupation numbers 
     1.0000   1.0000   1.0000   1.0000   1.0000   1.0000   1.0000   1.0000
     1.0000   1.0000   1.0000   1.0000   1.0000   1.0000   1.0000   1.0000
     1.0000   1.0000   0.9999   0.9999   0.0000

          k = 0.0000 0.4811 0.0000 (  2900 PWs)   bands (ev):

   -77.7124 -77.6912 -41.0832 -41.0372 -41.0352 -40.9350 -40.9105 -40.8653
    13.3643  13.7782  14.0066  15.5619  15.6555  15.8449  16.0654  17.5083
    17.6382  17.6817  18.4139  23.2589  26.4585

     occupation numbers 
     1.0000   1.0000   1.0000   1.0000   1.0000   1.0000   1.0000   1.0000
     1.0000   1.0000   1.0000   1.0000   1.0000   1.0000   1.0000   1.0000
     1.0000   1.0000   0.0000   0.0000   0.0000

          k = 0.0000 0.4811 0.1025 (  2898 PWs)   bands (ev):

   -77.7110 -77.6926 -41.1013 -41.0536 -41.0043 -40.9304 -40.9068 -40.8700
    13.2601  13.7734  14.3096  14.9613  15.7650  16.0688  16.6643  17.4353
    17.5387  17.6988  18.2588  22.4799  25.7854

     occupation numbers 
     1.0000   1.0000   1.0000   1.0000   1.0000   1.0000   1.0000   1.0000
     1.0000   1.0000   1.0000   1.0000   1.0000   1.0000   1.0000   1.0000
     1.0000   1.0000   1.0000   0.0000   0.0000

          k = 0.0000 0.4811 0.2050 (  2894 PWs)   bands (ev):

   -77.7071 -77.6965 -41.1149 -41.0837 -40.9599 -40.9176 -40.9073 -40.8828
    13.2310  13.6990  14.4705  14.7860  16.0756  16.3172  17.0322  17.5701
    17.5995  17.6705  17.9609  20.7839  25.9276

     occupation numbers 
     1.0000   1.0000   1.0000   1.0000   1.0000   1.0000   1.0000   1.0000
     1.0000   1.0000   1.0000   1.0000   1.0000   1.0000   1.0000   1.0000
     1.0000   1.0000   1.0000   0.0000   0.0000

          k = 0.0000 0.4811-0.3075 (  2894 PWs)   bands (ev):

   -77.7018 -77.7018 -41.1081 -41.1081 -40.9248 -40.9248 -40.9002 -40.9002
    13.4124  13.4124  14.6492  14.6492  16.5312  16.5312  17.0129  17.0129
    17.6211  17.6211  19.1560  19.1560  26.7013

     occupation numbers 
     1.0000   1.0000   1.0000   1.0000   1.0000   1.0000   1.0000   1.0000
     1.0000   1.0000   1.0000   1.0000   1.0000   1.0000   1.0000   1.0000
     1.0000   1.0000   0.0000   0.0000   0.0000

          k = 0.0000-0.5774 0.0000 (  2906 PWs)   bands (ev):

   -77.7081 -77.6911 -41.0988 -41.0518 -41.0207 -40.9394 -40.9210 -40.8683
    13.6312  13.6328  13.9058  15.6107  15.7988  15.8075  16.1389  17.6405
    17.6877  17.7831  19.5650  21.5467  27.7562

     occupation numbers 
     1.0000   1.0000   1.0000   1.0000   1.0000   1.0000   1.0000   1.0000
     1.0000   1.0000   1.0000   1.0000   1.0000   1.0000   1.0000   1.0000
     1.0000   1.0000   0.0000   0.0000   0.0000

          k = 0.0000-0.5774 0.1025 (  2902 PWs)   bands (ev):

   -77.7069 -77.6922 -41.1130 -41.0674 -40.9966 -40.9347 -40.9152 -40.8731
    13.3631  13.6803  14.3433  14.9331  15.7258  16.1533  16.8629  17.4895
    17.6796  17.7757  19.3645  21.3749  26.8927

     occupation numbers 
     1.0000   1.0000   1.0000   1.0000   1.0000   1.0000   1.0000   1.0000
     1.0000   1.0000   1.0000   1.0000   1.0000   1.0000   1.0000   1.0000
     1.0000   1.0000   0.0000   0.0000   0.0000

          k = 0.0000-0.5774 0.2050 (  2898 PWs)   bands (ev):

   -77.7038 -77.6953 -41.1265 -41.0978 -40.9561 -40.9217 -40.9115 -40.8861
    13.2533  13.6566  14.4961  14.6966  16.0529  16.4567  17.0635  17.6988
    17.7147  17.7552  19.0611  20.7927  25.8973

     occupation numbers 
     1.0000   1.0000   1.0000   1.0000   1.0000   1.0000   1.0000   1.0000
     1.0000   1.0000   1.0000   1.0000   1.0000   1.0000   1.0000   1.0000
     1.0000   1.0000   0.0000   0.0000   0.0000

          k = 0.0000-0.5774-0.3075 (  2904 PWs)   bands (ev):

   -77.6996 -77.6996 -41.1212 -41.1212 -40.9246 -40.9246 -40.9039 -40.9039
    13.3977  13.3977  14.6021  14.6021  16.5338  16.5338  17.2470  17.2470
    17.7270  17.7270  19.8157  19.8157  25.4450

     occupation numbers 
     1.0000   1.0000   1.0000   1.0000   1.0000   1.0000   1.0000   1.0000
     1.0000   1.0000   1.0000   1.0000   1.0000   1.0000   1.0000   1.0000
     1.0000   1.0000   0.0000   0.0000   0.0000

          k = 0.0833 0.1443 0.0000 (  2874 PWs)   bands (ev):

   -77.7499 -77.7027 -41.1344 -40.9111 -40.8908 -40.8650 -40.8554 -40.8358
    10.1632  13.6357  15.3201  15.7714  15.9158  16.0648  16.1083  16.1416
    16.3857  16.4719  17.5401  20.3192  24.5984

     occupation numbers 
     1.0000   1.0000   1.0000   1.0000   1.0000   1.0000   1.0000   1.0000
     1.0000   1.0000   1.0000   1.0000   1.0000   1.0000   1.0000   1.0000
     1.0000   1.0000   1.0000   0.0000   0.0000

          k = 0.0833 0.1443 0.1025 (  2872 PWs)   bands (ev):

   -77.7468 -77.7059 -41.1175 -40.9067 -40.8962 -40.8801 -40.8532 -40.8391
    10.4218  13.6065  15.3465  15.4465  15.7696  15.9659  16.0809  16.2517
    16.5254  16.5828  17.5084  19.3031  26.3181

     occupation numbers 
     1.0000   1.0000   1.0000   1.0000   1.0000   1.0000   1.0000   1.0000
     1.0000   1.0000   1.0000   1.0000   1.0000   1.0000   1.0000   1.0000
     1.0000   1.0000   1.0000   0.0000   0.0000

          k = 0.0833 0.1443 0.2050 (  2889 PWs)   bands (ev):

   -77.7382 -77.7146 -41.0714 -40.9430 -40.8948 -40.8762 -40.8601 -40.8482
    11.1618  13.2423  15.0532  15.4054  15.4632  15.8918  15.9485  16.1113
    16.8559  16.9281  17.3906  18.1165  29.6181

     occupation numbers 
     1.0000   1.0000   1.0000   1.0000   1.0000   1.0000   1.0000   1.0000
     1.0000   1.0000   1.0000   1.0000   1.0000   1.0000   1.0000   1.0000
     1.0000   1.0000   1.0000   1.0000   0.0000

          k = 0.0833 0.1443-0.3075 (  2886 PWs)   bands (ev):

   -77.7264 -77.7264 -41.0077 -41.0077 -40.8797 -40.8797 -40.8596 -40.8596
    12.2400  12.2400  15.1052  15.1052  15.6555  15.6555  15.9720  15.9720
    17.1528  17.1528  17.4289  17.4289  33.4459

     occupation numbers 
     1.0000   1.0000   1.0000   1.0000   1.0000   1.0000   1.0000   1.0000
     1.0000   1.0000   1.0000   1.0000   1.0000   1.0000   1.0000   1.0000
     1.0000   1.0000   1.0000   1.0000   0.0000

          k = 0.0833 0.2406 0.0000 (  2878 PWs)   bands (ev):

   -77.7398 -77.6985 -41.1105 -40.9566 -40.9295 -40.8917 -40.8664 -40.8476
    11.0452  14.0040  15.0571  15.0807  15.7909  15.9198  16.3171  16.3246
    16.5249  16.7951  17.5824  21.8900  24.8320

     occupation numbers 
     1.0000   1.0000   1.0000   1.0000   1.0000   1.0000   1.0000   1.0000
     1.0000   1.0000   1.0000   1.0000   1.0000   1.0000   1.0000   1.0000
     1.0000   1.0000   1.0000   0.0000   0.0000

          k = 0.0833 0.2406 0.1025 (  2881 PWs)   bands (ev):

   -77.7371 -77.7013 -41.0992 -40.9505 -40.9385 -40.8965 -40.8668 -40.8511
    11.2771  14.0334  14.8752  15.1057  15.6741  15.9356  16.1455  16.4491
    16.7095  16.7745  17.5458  20.4587  26.8396

     occupation numbers 
     1.0000   1.0000   1.0000   1.0000   1.0000   1.0000   1.0000   1.0000
     1.0000   1.0000   1.0000   1.0000   1.0000   1.0000   1.0000   1.0000
     1.0000   1.0000   1.0000   0.0000   0.0000

          k = 0.0833 0.2406 0.2050 (  2886 PWs)   bands (ev):

   -77.7295 -77.7089 -41.0679 -40.9762 -40.9288 -40.8956 -40.8740 -40.8606
    11.9331  13.7579  14.6901  15.2089  15.4137  15.8288  16.1032  16.4237
    16.9450  17.0528  17.4289  18.7971  30.2247

     occupation numbers 
     1.0000   1.0000   1.0000   1.0000   1.0000   1.0000   1.0000   1.0000
     1.0000   1.0000   1.0000   1.0000   1.0000   1.0000   1.0000   1.0000
     1.0000   1.0000   1.0000   0.0000   0.0000

          k = 0.0833 0.2406-0.3075 (  2894 PWs)   bands (ev):

   -77.7192 -77.7192 -41.0234 -41.0234 -40.9058 -40.9058 -40.8725 -40.8725
    12.8692  12.8692  14.9533  14.9533  15.5523  15.5523  16.2460  16.2460
    17.1973  17.1973  17.7217  17.7217  33.8374

     occupation numbers 
     1.0000   1.0000   1.0000   1.0000   1.0000   1.0000   1.0000   1.0000
     1.0000   1.0000   1.0000   1.0000   1.0000   1.0000   1.0000   1.0000
     1.0000   1.0000   1.0000   1.0000   0.0000

          k = 0.0833 0.3368 0.0000 (  2891 PWs)   bands (ev):

   -77.7275 -77.6943 -41.0792 -41.0124 -40.9777 -40.9163 -40.8828 -40.8603
    12.1849  14.1272  14.5213  14.9901  15.7348  15.7951  16.1288  16.7187
    17.0187  17.3509  17.6176  23.7036  25.1931

     occupation numbers 
     1.0000   1.0000   1.0000   1.0000   1.0000   1.0000   1.0000   1.0000
     1.0000   1.0000   1.0000   1.0000   1.0000   1.0000   1.0000   1.0000
     1.0000   1.0000   1.0000   0.0000   0.0000

          k = 0.0833 0.3368 0.1025 (  2884 PWs)   bands (ev):

   -77.7253 -77.6965 -41.0814 -41.0013 -40.9834 -40.9164 -40.8826 -40.8636
    12.3479  14.1877  14.4316  15.0359  15.5892  15.9580  16.1046  16.7453
    17.1039  17.2145  17.6291  21.7089  27.5851

     occupation numbers 
     1.0000   1.0000   1.0000   1.0000   1.0000   1.0000   1.0000   1.0000
     1.0000   1.0000   1.0000   1.0000   1.0000   1.0000   1.0000   1.0000
     1.0000   1.0000   1.0000   0.0000   0.0000

          k = 0.0833 0.3368 0.2050 (  2891 PWs)   bands (ev):

   -77.7192 -77.7026 -41.0759 -41.0235 -40.9557 -40.9119 -40.8889 -40.8730
    12.7892  13.9419  14.5412  15.1019  15.5075  15.9750  16.1686  16.7423
    17.1663  17.3267  17.6000  19.6453  29.9263

     occupation numbers 
     1.0000   1.0000   1.0000   1.0000   1.0000   1.0000   1.0000   1.0000
     1.0000   1.0000   1.0000   1.0000   1.0000   1.0000   1.0000   1.0000
     1.0000   1.0000   1.0000   0.0000   0.0000

          k = 0.0833 0.3368-0.3075 (  2894 PWs)   bands (ev):

   -77.7109 -77.7109 -41.0549 -41.0549 -40.9231 -40.9231 -40.8865 -40.8865
    13.3779  13.3779  14.8727  14.8727  15.7243  15.7243  16.4330  16.4330
    17.3966  17.3966  18.1759  18.1759  31.1100

     occupation numbers 
     1.0000   1.0000   1.0000   1.0000   1.0000   1.0000   1.0000   1.0000
     1.0000   1.0000   1.0000   1.0000   1.0000   1.0000   1.0000   1.0000
     1.0000   1.0000   1.0000   1.0000   0.0000

          k = 0.0833 0.4330 0.0000 (  2896 PWs)   bands (ev):

   -77.7158 -77.6916 -41.0617 -41.0460 -41.0198 -40.9357 -40.9031 -40.8712
    13.1951  13.9565  14.1442  15.2132  15.6176  15.9317  15.9836  17.2247
    17.4393  17.6389  18.1351  24.5729  25.6770

     occupation numbers 
     1.0000   1.0000   1.0000   1.0000   1.0000   1.0000   1.0000   1.0000
     1.0000   1.0000   1.0000   1.0000   1.0000   1.0000   1.0000   1.0000
     1.0000   1.0000   1.0000   0.0000   0.0000

          k = 0.0833 0.4330 0.1025 (  2890 PWs)   bands (ev):

   -77.7142 -77.6932 -41.0862 -41.0384 -41.0050 -40.9329 -40.9005 -40.8744
    13.1913  13.9762  14.2918  14.9732  15.6939  16.0111  16.2722  17.1746
    17.4645  17.4977  18.1343  22.7880  26.3242

     occupation numbers 
     1.0000   1.0000   1.0000   1.0000   1.0000   1.0000   1.0000   1.0000
     1.0000   1.0000   1.0000   1.0000   1.0000   1.0000   1.0000   1.0000
     1.0000   1.0000   1.0000   0.0000   0.0000

          k = 0.0833 0.4330 0.2050 (  2891 PWs)   bands (ev):

   -77.7098 -77.6976 -41.0990 -41.0660 -40.9632 -40.9232 -40.9034 -40.8826
    13.2762  13.8447  14.4760  14.9375  15.7995  16.2178  16.6551  16.9242
    17.3434  17.6485  18.2001  20.6655  27.0337

     occupation numbers 
     1.0000   1.0000   1.0000   1.0000   1.0000   1.0000   1.0000   1.0000
     1.0000   1.0000   1.0000   1.0000   1.0000   1.0000   1.0000   1.0000
     1.0000   1.0000   1.0000   0.0000   0.0000

          k = 0.0833 0.4330-0.3075 (  2892 PWs)   bands (ev):

   -77.7037 -77.7037 -41.0907 -41.0907 -40.9312 -40.9312 -40.8968 -40.8968
    13.5180  13.5180  14.7565  14.7565  16.2284  16.2284  16.6070  16.6070
    17.5994  17.5994  19.0193  19.0193  28.0652

     occupation numbers 
     1.0000   1.0000   1.0000   1.0000   1.0000   1.0000   1.0000   1.0000
     1.0000   1.0000   1.0000   1.0000   1.0000   1.0000   1.0000   1.0000
     1.0000   1.0000   0.0000   0.0000   0.0000

          k = 0.0833 0.5292 0.0000 (  2906 PWs)   bands (ev):

   -77.7081 -77.6910 -41.0904 -41.0441 -41.0209 -40.9465 -40.9208 -40.8776
    13.6517  13.7949  13.9561  15.5713  15.5761  15.7967  16.1367  17.5895
    17.6481  17.6628  19.3982  22.3104  27.5640

     occupation numbers 
     1.0000   1.0000   1.0000   1.0000   1.0000   1.0000   1.0000   1.0000
     1.0000   1.0000   1.0000   1.0000   1.0000   1.0000   1.0000   1.0000
     1.0000   1.0000   0.0000   0.0000   0.0000

          k = 0.0833 0.5292 0.1025 (  2894 PWs)   bands (ev):

   -77.7069 -77.6922 -41.1048 -41.0602 -40.9976 -40.9407 -40.9160 -40.8808
    13.4421  13.8090  14.3754  14.9166  15.6244  16.1954  16.5347  17.4364
    17.6109  17.6920  19.3351  22.0542  26.3078

     occupation numbers 
     1.0000   1.0000   1.0000   1.0000   1.0000   1.0000   1.0000   1.0000
     1.0000   1.0000   1.0000   1.0000   1.0000   1.0000   1.0000   1.0000
     1.0000   1.0000   0.0000   0.0000   0.0000

          k = 0.0833 0.5292 0.2050 (  2896 PWs)   bands (ev):

   -77.7038 -77.6953 -41.1185 -41.0904 -40.9622 -40.9248 -40.9158 -40.8881
    13.3549  13.7808  14.5040  14.8020  15.7936  16.5158  16.9131  17.1706
    17.5715  17.7589  19.3834  21.2127  25.5886

     occupation numbers 
     1.0000   1.0000   1.0000   1.0000   1.0000   1.0000   1.0000   1.0000
     1.0000   1.0000   1.0000   1.0000   1.0000   1.0000   1.0000   1.0000
     1.0000   1.0000   0.0000   0.0000   0.0000

          k = 0.0833 0.5292-0.3075 (  2892 PWs)   bands (ev):

   -77.6996 -77.6996 -41.1135 -41.1135 -40.9350 -40.9350 -40.9014 -40.9014
    13.5087  13.5087  14.6733  14.6733  16.3261  16.3261  17.0329  17.0329
    17.6395  17.6395  20.1082  20.1082  25.8638

     occupation numbers 
     1.0000   1.0000   1.0000   1.0000   1.0000   1.0000   1.0000   1.0000
     1.0000   1.0000   1.0000   1.0000   1.0000   1.0000   1.0000   1.0000
     1.0000   1.0000   0.0000   0.0000   0.0000

          k = 0.1667 0.2887 0.0000 (  2886 PWs)   bands (ev):

   -77.7292 -77.6948 -41.0837 -40.9899 -40.9811 -40.9089 -40.8803 -40.8679
    12.0394  14.3027  14.6327  14.7701  15.6628  15.7980  16.2249  16.4804
    17.0061  17.3734  17.5789  23.4478  25.2270

     occupation numbers 
     1.0000   1.0000   1.0000   1.0000   1.0000   1.0000   1.0000   1.0000
     1.0000   1.0000   1.0000   1.0000   1.0000   1.0000   1.0000   1.0000
     1.0000   1.0000   1.0000   0.0000   0.0000

          k = 0.1667 0.2887 0.1025 (  2888 PWs)   bands (ev):

   -77.7269 -77.6971 -41.0818 -40.9886 -40.9767 -40.9172 -40.8760 -40.8716
    12.2236  14.3952  14.4920  14.8216  15.6280  15.8079  16.1112  16.5683
    17.1189  17.2045  17.6423  21.5716  27.5712

     occupation numbers 
     1.0000   1.0000   1.0000   1.0000   1.0000   1.0000   1.0000   1.0000
     1.0000   1.0000   1.0000   1.0000   1.0000   1.0000   1.0000   1.0000
     1.0000   1.0000   1.0000   0.0000   0.0000

          k = 0.1667 0.2887 0.2050 (  2889 PWs)   bands (ev):

   -77.7206 -77.7034 -41.0706 -41.0138 -40.9476 -40.9208 -40.8807 -40.8786
    12.7286  14.0593  14.6469  14.9697  15.4511  15.6764  16.1122  16.6813
    17.1727  17.3117  17.6747  19.5688  30.9075

     occupation numbers 
     1.0000   1.0000   1.0000   1.0000   1.0000   1.0000   1.0000   1.0000
     1.0000   1.0000   1.0000   1.0000   1.0000   1.0000   1.0000   1.0000
     1.0000   1.0000   1.0000   0.0000   0.0000

          k = 0.1667 0.2887-0.3075 (  2892 PWs)   bands (ev):

   -77.7120 -77.7120 -41.0460 -41.0460 -40.9238 -40.9238 -40.8864 -40.8864
    13.4101  13.4101  14.9597  14.9597  15.4021  15.4021  16.3831  16.3831
    17.4447  17.4447  18.1564  18.1564  32.8332

     occupation numbers 
     1.0000   1.0000   1.0000   1.0000   1.0000   1.0000   1.0000   1.0000
     1.0000   1.0000   1.0000   1.0000   1.0000   1.0000   1.0000   1.0000
     1.0000   1.0000   1.0000   1.0000   0.0000

          k = 0.1667 0.3849 0.0000 (  2899 PWs)   bands (ev):

   -77.7178 -77.6919 -41.0519 -41.0336 -41.0134 -40.9352 -40.8992 -40.8876
    13.1324  14.2837  14.2895  14.7450  15.5075  15.9369  16.0330  16.7876
    17.4371  17.5722  18.1651  25.2851  25.6377

     occupation numbers 
     1.0000   1.0000   1.0000   1.0000   1.0000   1.0000   1.0000   1.0000
     1.0000   1.0000   1.0000   1.0000   1.0000   1.0000   1.0000   1.0000
     1.0000   1.0000   1.0000   0.0000   0.0000

          k = 0.1667 0.3849 0.1025 (  2896 PWs)   bands (ev):

   -77.7160 -77.6936 -41.0718 -41.0305 -40.9940 -40.9420 -40.8962 -40.8866
    13.2109  14.2169  14.3857  14.8236  15.5561  15.9243  15.9904  16.8234
    17.3673  17.5219  18.2467  22.8570  27.7623

     occupation numbers 
     1.0000   1.0000   1.0000   1.0000   1.0000   1.0000   1.0000   1.0000
     1.0000   1.0000   1.0000   1.0000   1.0000   1.0000   1.0000   1.0000
     1.0000   1.0000   1.0000   0.0000   0.0000

          k = 0.1667 0.3849 0.2050 (  2890 PWs)   bands (ev):

   -77.7113 -77.6983 -41.0823 -41.0511 -40.9596 -40.9412 -40.9016 -40.8851
    13.4242  14.0176  14.6242  15.0454  15.4767  15.7673  16.1267  16.7977
    17.2778  17.6663  18.4249  20.6788  28.7369

     occupation numbers 
     1.0000   1.0000   1.0000   1.0000   1.0000   1.0000   1.0000   1.0000
     1.0000   1.0000   1.0000   1.0000   1.0000   1.0000   1.0000   1.0000
     1.0000   1.0000   0.0000   0.0000   0.0000

          k = 0.1667 0.3849-0.3075 (  2886 PWs)   bands (ev):

   -77.7048 -77.7048 -41.0735 -41.0735 -40.9413 -40.9413 -40.8957 -40.8957
    13.7192  13.7192  14.9539  14.9539  15.5578  15.5578  16.3951  16.3951
    17.6497  17.6497  19.1077  19.1077  29.8749

     occupation numbers 
     1.0000   1.0000   1.0000   1.0000   1.0000   1.0000   1.0000   1.0000
     1.0000   1.0000   1.0000   1.0000   1.0000   1.0000   1.0000   1.0000
     1.0000   1.0000   0.0000   0.0000   0.0000

          k = 0.1667 0.4811 0.0000 (  2893 PWs)   bands (ev):

   -77.7081 -77.6910 -41.0685 -41.0297 -41.0212 -40.9599 -40.9205 -40.9009
    13.8285  14.0694  14.0921  15.0481  15.4668  15.8220  16.1342  17.1960
    17.5665  17.6469  19.3278  23.9615  27.2790

     occupation numbers 
     1.0000   1.0000   1.0000   1.0000   1.0000   1.0000   1.0000   1.0000
     1.0000   1.0000   1.0000   1.0000   1.0000   1.0000   1.0000   1.0000
     1.0000   1.0000   0.0000   0.0000   0.0000

          k = 0.1667 0.4811 0.1025 (  2900 PWs)   bands (ev):

   -77.7070 -77.6921 -41.0836 -41.0484 -40.9965 -40.9566 -40.9180 -40.8975
    13.6764  14.1502  14.3264  14.8643  15.5167  15.9594  16.2085  17.1814
    17.3800  17.7059  19.4087  23.4059  26.1207

     occupation numbers 
     1.0000   1.0000   1.0000   1.0000   1.0000   1.0000   1.0000   1.0000
     1.0000   1.0000   1.0000   1.0000   1.0000   1.0000   1.0000   1.0000
     1.0000   1.0000   0.0000   0.0000   0.0000

          k = 0.1667 0.4811 0.2050 (  2897 PWs)   bands (ev):

   -77.7038 -77.6953 -41.0986 -41.0749 -40.9749 -40.9438 -40.9169 -40.8913
    13.6369  14.0672  14.5217  15.0483  15.4153  16.0867  16.4287  16.8802
    17.3655  17.7781  19.7160  21.8972  26.2085

     occupation numbers 
     1.0000   1.0000   1.0000   1.0000   1.0000   1.0000   1.0000   1.0000
     1.0000   1.0000   1.0000   1.0000   1.0000   1.0000   1.0000   1.0000
     1.0000   1.0000   0.0000   0.0000   0.0000

          k = 0.1667 0.4811-0.3075 (  2896 PWs)   bands (ev):

   -77.6996 -77.6996 -41.0954 -41.0954 -40.9559 -40.9559 -40.8989 -40.8989
    13.7899  13.7899  14.8539  14.8539  15.8155  15.8155  16.5797  16.5797
    17.6543  17.6543  20.5114  20.5114  27.0804

     occupation numbers 
     1.0000   1.0000   1.0000   1.0000   1.0000   1.0000   1.0000   1.0000
     1.0000   1.0000   1.0000   1.0000   1.0000   1.0000   1.0000   1.0000
     1.0000   1.0000   0.0000   0.0000   0.0000

          k = 0.1667 0.5774 0.0000 (  2908 PWs)   bands (ev):

   -77.7039 -77.6914 -41.0812 -41.0347 -41.0057 -40.9701 -40.9325 -40.9057
    13.9962  13.9978  14.0014  15.2655  15.4897  15.7075  16.2188  17.4737
    17.5642  17.6197  20.5866  22.1278  28.5325

     occupation numbers 
     1.0000   1.0000   1.0000   1.0000   1.0000   1.0000   1.0000   1.0000
     1.0000   1.0000   1.0000   1.0000   1.0000   1.0000   1.0000   1.0000
     1.0000   1.0000   0.0000   0.0000   0.0000

          k = 0.1667 0.5774 0.1025 (  2900 PWs)   bands (ev):

   -77.7030 -77.6922 -41.0928 -41.0518 -40.9982 -40.9535 -40.9314 -40.9020
    13.7024  14.0679  14.4893  14.8438  15.4400  16.0798  16.2981  17.3525
    17.4702  17.6687  20.6836  22.0801  27.4088

     occupation numbers 
     1.0000   1.0000   1.0000   1.0000   1.0000   1.0000   1.0000   1.0000
     1.0000   1.0000   1.0000   1.0000   1.0000   1.0000   1.0000   1.0000
     1.0000   1.0000   0.0000   0.0000   0.0000

          k = 0.1667 0.5774 0.2050 (  2904 PWs)   bands (ev):

   -77.7007 -77.6945 -41.1064 -41.0823 -40.9820 -40.9421 -40.9222 -40.8943
    13.6357  14.0806  14.5579  15.0046  15.3340  16.2829  16.5498  16.9487
    17.4857  17.7059  20.9854  21.8877  26.1357

     occupation numbers 
     1.0000   1.0000   1.0000   1.0000   1.0000   1.0000   1.0000   1.0000
     1.0000   1.0000   1.0000   1.0000   1.0000   1.0000   1.0000   1.0000
     1.0000   1.0000   0.0000   0.0000   0.0000

          k = 0.1667 0.5774-0.3075 (  2906 PWs)   bands (ev):

   -77.6976 -77.6976 -41.1036 -41.1036 -40.9615 -40.9615 -40.8995 -40.8995
    13.7938  13.7938  14.8145  14.8145  15.8529  15.8529  16.7819  16.7819
    17.5937  17.5937  21.4695  21.4695  25.6548

     occupation numbers 
     1.0000   1.0000   1.0000   1.0000   1.0000   1.0000   1.0000   1.0000
     1.0000   1.0000   1.0000   1.0000   1.0000   1.0000   1.0000   1.0000
     1.0000   1.0000   0.0000   0.0000   0.0000

          k = 0.2500 0.4330 0.0000 (  2910 PWs)   bands (ev):

   -77.7081 -77.6910 -41.0494 -41.0301 -41.0214 -40.9613 -40.9203 -40.9184
    13.9585  14.1350  14.4844  14.5275  15.3971  15.8424  16.1429  16.9641
    17.5245  17.6506  19.3371  25.6978  26.4841

     occupation numbers 
     1.0000   1.0000   1.0000   1.0000   1.0000   1.0000   1.0000   1.0000
     1.0000   1.0000   1.0000   1.0000   1.0000   1.0000   1.0000   1.0000
     1.0000   1.0000   0.0000   0.0000   0.0000

          k = 0.2500 0.4330 0.1025 (  2900 PWs)   bands (ev):

   -77.7070 -77.6921 -41.0630 -41.0537 -40.9833 -40.9745 -40.9210 -40.9053
    13.9623  14.0875  14.5382  14.6591  15.5456  15.7006  16.1392  17.0014
    17.3270  17.7128  19.4583  24.1647  26.7616

     occupation numbers 
     1.0000   1.0000   1.0000   1.0000   1.0000   1.0000   1.0000   1.0000
     1.0000   1.0000   1.0000   1.0000   1.0000   1.0000   1.0000   1.0000
     1.0000   1.0000   0.0000   0.0000   0.0000

          k = 0.2500 0.4330 0.2050 (  2897 PWs)   bands (ev):

   -77.7038 -77.6953 -41.0836 -41.0691 -40.9789 -40.9596 -40.9168 -40.8926
    13.9628  14.0326  14.6977  15.0315  15.3847  15.6559  16.1757  16.7929
    17.3339  17.7855  19.8278  22.1646  27.5305

     occupation numbers 
     1.0000   1.0000   1.0000   1.0000   1.0000   1.0000   1.0000   1.0000
     1.0000   1.0000   1.0000   1.0000   1.0000   1.0000   1.0000   1.0000
     1.0000   1.0000   0.0000   0.0000   0.0000

          k = 0.2500 0.4330-0.3075 (  2888 PWs)   bands (ev):

   -77.6996 -77.6996 -41.0842 -41.0842 -40.9679 -40.9679 -40.8982 -40.8982
    13.9873  13.9873  15.0063  15.0063  15.4478  15.4478  16.3796  16.3796
    17.6732  17.6732  20.6625  20.6625  28.5400

     occupation numbers 
     1.0000   1.0000   1.0000   1.0000   1.0000   1.0000   1.0000   1.0000
     1.0000   1.0000   1.0000   1.0000   1.0000   1.0000   1.0000   1.0000
     1.0000   1.0000   0.0000   0.0000   0.0000

          k = 0.2500 0.5292 0.0000 (  2908 PWs)   bands (ev):

   -77.7010 -77.6921 -41.0615 -41.0218 -40.9941 -40.9894 -40.9421 -40.9382
    14.0669  14.2514  14.3497  14.8362  15.4143  15.6431  16.3071  17.2386
    17.4964  17.5875  20.9823  23.5199  25.8365

     occupation numbers 
     1.0000   1.0000   1.0000   1.0000   1.0000   1.0000   1.0000   1.0000
     1.0000   1.0000   1.0000   1.0000   1.0000   1.0000   1.0000   1.0000
     1.0000   1.0000   0.0000   0.0000   0.0000

          k = 0.2500 0.5292 0.1025 (  2907 PWs)   bands (ev):

   -77.7004 -77.6927 -41.0683 -41.0442 -41.0080 -40.9633 -40.9436 -40.9195
    14.0097  14.3753  14.4686  14.7324  15.4413  15.6494  16.3159  17.2426
    17.3061  17.6307  21.1653  23.5388  25.8699

     occupation numbers 
     1.0000   1.0000   1.0000   1.0000   1.0000   1.0000   1.0000   1.0000
     1.0000   1.0000   1.0000   1.0000   1.0000   1.0000   1.0000   1.0000
     1.0000   1.0000   0.0000   0.0000   0.0000

          k = 0.2500 0.5292 0.2050 (  2905 PWs)   bands (ev):

   -77.6987 -77.6943 -41.0840 -41.0704 -41.0062 -40.9688 -40.9176 -40.8996
    14.0241  14.3687  14.6245  14.9136  15.3092  15.6729  16.3649  16.8173
    17.4046  17.6716  21.6539  23.2468  25.7789

     occupation numbers 
     1.0000   1.0000   1.0000   1.0000   1.0000   1.0000   1.0000   1.0000
     1.0000   1.0000   1.0000   1.0000   1.0000   1.0000   1.0000   1.0000
     1.0000   1.0000   0.0000   0.0000   0.0000

          k = 0.2500 0.5292-0.3075 (  2898 PWs)   bands (ev):

   -77.6965 -77.6965 -41.0865 -41.0865 -40.9886 -40.9886 -40.8981 -40.8981
    14.1570  14.1570  14.9062  14.9062  15.4535  15.4535  16.4909  16.4909
    17.5858  17.5858  22.4135  22.4135  26.3134

     occupation numbers 
     1.0000   1.0000   1.0000   1.0000   1.0000   1.0000   1.0000   1.0000
     1.0000   1.0000   1.0000   1.0000   1.0000   1.0000   1.0000   1.0000
     1.0000   1.0000   0.0000   0.0000   0.0000

          k = 0.3333 0.5774 0.0000 (  2898 PWs)   bands (ev):

   -77.6954 -77.6954 -41.0522 -41.0080 -41.0080 -40.9671 -40.9671 -40.9616
    14.0778  14.4460  14.4460  14.7213  15.4810  15.4810  16.4042  17.3829
    17.3829  17.4685  22.7205  23.5163  23.5163

     occupation numbers 
     1.0000   1.0000   1.0000   1.0000   1.0000   1.0000   1.0000   1.0000
     1.0000   1.0000   1.0000   1.0000   1.0000   1.0000   1.0000   1.0000
     1.0000   1.0000   0.0000   0.0000   0.0000

          k = 0.3333 0.5774 0.1025 (  2910 PWs)   bands (ev):

   -77.6954 -77.6954 -41.0462 -41.0358 -41.0358 -40.9677 -40.9393 -40.9393
    14.1697  14.4652  14.4652  14.7392  15.4584  15.4584  16.3779  17.2447
    17.4239  17.4239  23.1099  23.5904  23.5904

     occupation numbers 
     1.0000   1.0000   1.0000   1.0000   1.0000   1.0000   1.0000   1.0000
     1.0000   1.0000   1.0000   1.0000   1.0000   1.0000   1.0000   1.0000
     1.0000   1.0000   0.0000   0.0000   0.0000

          k = 0.3333 0.5774 0.2050 (  2910 PWs)   bands (ev):

   -77.6954 -77.6954 -41.0658 -41.0658 -41.0297 -40.9843 -40.9090 -40.9090
    14.4045  14.5016  14.5016  14.7512  15.4198  15.4198  16.3439  16.7852
    17.5023  17.5023  23.7749  23.7749  24.1121

     occupation numbers 
     1.0000   1.0000   1.0000   1.0000   1.0000   1.0000   1.0000   1.0000
     1.0000   1.0000   1.0000   1.0000   1.0000   1.0000   1.0000   1.0000
     1.0000   1.0000   0.0000   0.0000   0.0000

          k = 0.3333 0.5774-0.3075 (  2910 PWs)   bands (ev):

   -77.6954 -77.6954 -41.0771 -41.0771 -41.0070 -41.0070 -40.8976 -40.8976
    14.5186  14.5186  14.6487  14.6487  15.4038  15.4038  16.4385  16.4385
    17.5398  17.5398  23.8946  23.8946  25.4976

     occupation numbers 
     1.0000   1.0000   1.0000   1.0000   1.0000   1.0000   1.0000   1.0000
     1.0000   1.0000   1.0000   1.0000   1.0000   1.0000   1.0000   1.0000
     1.0000   1.0000   0.0000   0.0000   0.0000

 ------ SPIN DOWN ----------


          k = 0.0000 0.0000 0.0000 (  2875 PWs)   bands (ev):

   -75.6125 -75.5565 -39.0728 -38.7835 -38.7835 -38.7372 -38.7360 -38.7360
     9.4565  14.2087  17.4095  17.4782  17.4782  17.8339  17.8339  18.0258
    18.2804  18.2804  19.4676  19.4676  25.5388

     occupation numbers 
     1.0000   1.0000   1.0000   1.0000   1.0000   1.0000   1.0000   1.0000
     1.0000   1.0000   1.0000   1.0000   1.0000   1.0000   1.0000   1.0000
     1.0000   1.0000   0.0000   0.0000   0.0000

          k = 0.0000 0.0000 0.1025 (  2875 PWs)   bands (ev):

   -75.6087 -75.5603 -39.0506 -38.7803 -38.7803 -38.7600 -38.7391 -38.7391
     9.7302  13.9644  17.3196  17.4161  17.4161  17.4633  17.7537  17.7537
    18.4504  18.4504  19.4508  19.4508  26.8370

     occupation numbers 
     1.0000   1.0000   1.0000   1.0000   1.0000   1.0000   1.0000   1.0000
     1.0000   1.0000   1.0000   1.0000   1.0000   1.0000   1.0000   1.0000
     0.0000   0.0000   0.0000   0.0000   0.0000

          k = 0.0000 0.0000 0.2050 (  2888 PWs)   bands (ev):

   -75.5985 -75.5705 -38.9898 -38.8220 -38.7716 -38.7716 -38.7478 -38.7478
    10.5225  13.0600  16.8663  17.0911  17.3628  17.3628  17.5772  17.5772
    18.7963  18.7963  19.3564  19.3564  29.7774

     occupation numbers 
     1.0000   1.0000   1.0000   1.0000   1.0000   1.0000   1.0000   1.0000
     1.0000   1.0000   1.0000   1.0000   1.0000   1.0000   1.0000   1.0000
     0.0000   0.0000   0.0000   0.0000   0.0000

          k = 0.0000 0.0000-0.3075 (  2894 PWs)   bands (ev):

   -75.5845 -75.5845 -38.9062 -38.9062 -38.7597 -38.7597 -38.7597 -38.7597
    11.7261  11.7261  16.8537  16.8537  17.4205  17.4205  17.4205  17.4205
    19.1312  19.1312  19.1312  19.1312  33.3950

     occupation numbers 
     1.0000   1.0000   1.0000   1.0000   1.0000   1.0000   1.0000   1.0000
     1.0000   1.0000   1.0000   1.0000   1.0000   1.0000   1.0000   1.0000
     0.0000   0.0000   0.0000   0.0000   0.0000

          k = 0.0000 0.0962 0.0000 (  2857 PWs)   bands (ev):

   -75.6092 -75.5550 -39.0654 -38.7999 -38.7888 -38.7530 -38.7401 -38.7387
     9.6977  14.3747  17.1853  17.4455  17.6021  17.6474  17.7682  17.9439
    18.1985  18.2057  19.5023  20.2698  25.5557

     occupation numbers 
     1.0000   1.0000   1.0000   1.0000   1.0000   1.0000   1.0000   1.0000
     1.0000   1.0000   1.0000   1.0000   1.0000   1.0000   1.0000   1.0000
     1.0000   1.0000   0.0000   0.0000   0.0000

          k = 0.0000 0.0962 0.1025 (  2878 PWs)   bands (ev):

   -75.6056 -75.5586 -39.0445 -38.7962 -38.7854 -38.7718 -38.7465 -38.7421
     9.9678  14.1432  17.0347  17.1833  17.4587  17.5244  17.7769  17.8564
    18.3962  18.4091  19.4768  19.9385  26.9203

     occupation numbers 
     1.0000   1.0000   1.0000   1.0000   1.0000   1.0000   1.0000   1.0000
     1.0000   1.0000   1.0000   1.0000   1.0000   1.0000   1.0000   1.0000
     0.0000   0.0000   0.0000   0.0000   0.0000

          k = 0.0000 0.0962 0.2050 (  2884 PWs)   bands (ev):

   -75.5957 -75.5686 -38.9872 -38.8294 -38.7859 -38.7763 -38.7578 -38.7512
    10.7495  13.2548  16.6579  17.0827  17.2561  17.4625  17.5951  17.6783
    18.7643  18.7978  19.3626  19.5431  29.9152

     occupation numbers 
     1.0000   1.0000   1.0000   1.0000   1.0000   1.0000   1.0000   1.0000
     1.0000   1.0000   1.0000   1.0000   1.0000   1.0000   1.0000   1.0000
     0.0000   0.0000   0.0000   0.0000   0.0000

          k = 0.0000 0.0962-0.3075 (  2882 PWs)   bands (ev):

   -75.5822 -75.5822 -38.9085 -38.9085 -38.7719 -38.7719 -38.7638 -38.7638
    11.9371  11.9371  16.7657  16.7657  17.3808  17.3808  17.5204  17.5204
    19.1169  19.1169  19.1918  19.1918  33.5567

     occupation numbers 
     1.0000   1.0000   1.0000   1.0000   1.0000   1.0000   1.0000   1.0000
     1.0000   1.0000   1.0000   1.0000   1.0000   1.0000   1.0000   1.0000
     0.0000   0.0000   0.0000   0.0000   0.0000

          k = 0.0000 0.1925 0.0000 (  2873 PWs)   bands (ev):

   -75.6002 -75.5509 -39.0444 -38.8452 -38.8030 -38.7993 -38.7490 -38.7465
    10.4000  14.8026  16.6433  16.8426  17.5373  17.9539  17.9706  17.9978
    18.0352  18.2532  19.5749  21.6962  25.6242

     occupation numbers 
     1.0000   1.0000   1.0000   1.0000   1.0000   1.0000   1.0000   1.0000
     1.0000   1.0000   1.0000   1.0000   1.0000   1.0000   1.0000   1.0000
     1.0000   1.0000   0.0000   0.0000   0.0000

          k = 0.0000 0.1925 0.1025 (  2880 PWs)   bands (ev):

   -75.5969 -75.5542 -39.0277 -38.8397 -38.8139 -38.7993 -38.7569 -38.7503
    10.6576  14.6135  16.3997  16.8826  17.4270  17.7165  17.7723  18.1207
    18.3526  18.3997  19.5299  20.9236  27.2010

     occupation numbers 
     1.0000   1.0000   1.0000   1.0000   1.0000   1.0000   1.0000   1.0000
     1.0000   1.0000   1.0000   1.0000   1.0000   1.0000   1.0000   1.0000
     0.6817   0.0000   0.0000   0.0000   0.0000

          k = 0.0000 0.1925 0.2050 (  2886 PWs)   bands (ev):

   -75.5879 -75.5633 -38.9822 -38.8589 -38.8219 -38.7889 -38.7761 -38.7607
    11.4017  13.7794  16.2902  16.9717  17.0647  17.5324  17.7107  17.9585
    18.7235  18.8469  19.3742  19.9980  30.3309
[...]
    19.6195  19.6693  20.7799  23.2511  28.0784

     occupation numbers 
     1.0000   1.0000   1.0000   1.0000   1.0000   1.0000   1.0000   1.0000
     1.0000   1.0000   1.0000   1.0000   1.0000   1.0000   1.0000   0.0000
     0.0000   0.0000   0.0000   0.0000   0.0000

          k = 0.0833 0.5292 0.1025 (  2894 PWs)   bands (ev):

   -75.5567 -75.5408 -39.0372 -38.9894 -38.9050 -38.8590 -38.8152 -38.7932
    14.4021  15.0245  15.5607  16.0864  17.3137  17.7880  17.8324  19.4067
    19.5617  19.6576  20.6466  22.9181  27.0391

     occupation numbers 
     1.0000   1.0000   1.0000   1.0000   1.0000   1.0000   1.0000   1.0000
     1.0000   1.0000   1.0000   1.0000   1.0000   1.0000   1.0000   0.0000
     0.0000   0.0000   0.0000   0.0000   0.0000

          k = 0.0833 0.5292 0.2050 (  2896 PWs)   bands (ev):

   -75.5533 -75.5442 -39.0503 -39.0205 -38.8714 -38.8375 -38.8230 -38.7963
    14.3874  14.8612  15.8583  16.1627  17.3551  18.1026  18.2905  18.9554
    19.5144  19.7411  20.4370  21.9959  26.5056

     occupation numbers 
     1.0000   1.0000   1.0000   1.0000   1.0000   1.0000   1.0000   1.0000
     1.0000   1.0000   1.0000   1.0000   1.0000   1.0000   1.0000   0.0000
     0.0000   0.0000   0.0000   0.0000   0.0000

          k = 0.0833 0.5292-0.3075 (  2892 PWs)   bands (ev):

   -75.5487 -75.5487 -39.0447 -39.0447 -38.8449 -38.8449 -38.8097 -38.8097
    14.5642  14.5642  16.1157  16.1157  17.8438  17.8438  18.6064  18.6064
    19.5966  19.5966  20.9594  20.9594  26.7611

     occupation numbers 
     1.0000   1.0000   1.0000   1.0000   1.0000   1.0000   1.0000   1.0000
     1.0000   1.0000   1.0000   1.0000   1.0000   1.0000   0.0000   0.0000
     0.0000   0.0000   0.0000   0.0000   0.0000

          k = 0.1667 0.2887 0.0000 (  2886 PWs)   bands (ev):

   -75.5808 -75.5436 -38.9955 -38.9141 -38.9051 -38.8254 -38.7810 -38.7730
    12.1114  15.5208  15.8315  16.2055  17.3683  17.4099  17.9319  18.2826
    18.8489  19.1982  19.5890  24.2416  25.9970

     occupation numbers 
     1.0000   1.0000   1.0000   1.0000   1.0000   1.0000   1.0000   1.0000
     1.0000   1.0000   1.0000   1.0000   1.0000   1.0000   1.0000   1.0000
     0.0000   0.0000   0.0000   0.0000   0.0000

          k = 0.1667 0.2887 0.1025 (  2888 PWs)   bands (ev):

   -75.5783 -75.5461 -38.9963 -38.9119 -38.8968 -38.8313 -38.7850 -38.7730
    12.3223  15.4305  15.7495  16.2704  17.2737  17.4363  17.8269  18.3769
    18.9738  19.0774  19.5967  22.6092  28.1752

     occupation numbers 
     1.0000   1.0000   1.0000   1.0000   1.0000   1.0000   1.0000   1.0000
     1.0000   1.0000   1.0000   1.0000   1.0000   1.0000   1.0000   0.0199
     0.0000   0.0000   0.0000   0.0000   0.0000

          k = 0.1667 0.2887 0.2050 (  2889 PWs)   bands (ev):

   -75.5715 -75.5529 -38.9885 -38.9350 -38.8609 -38.8338 -38.7947 -38.7817
    12.9209  14.7372  15.9996  16.4356  17.0110  17.2760  17.8815  18.4661
    19.0719  19.1946  19.5497  20.9243  31.3945

     occupation numbers 
     1.0000   1.0000   1.0000   1.0000   1.0000   1.0000   1.0000   1.0000
     1.0000   1.0000   1.0000   1.0000   1.0000   1.0000   1.0000   0.0000
     0.0000   0.0000   0.0000   0.0000   0.0000

          k = 0.1667 0.2887-0.3075 (  2892 PWs)   bands (ev):

   -75.5622 -75.5622 -38.9658 -38.9658 -38.8340 -38.8340 -38.7976 -38.7976
    13.7956  13.7956  16.3703  16.3703  16.9692  16.9692  18.1801  18.1801
    19.3803  19.3803  19.7734  19.7734  33.2577

     occupation numbers 
     1.0000   1.0000   1.0000   1.0000   1.0000   1.0000   1.0000   1.0000
     1.0000   1.0000   1.0000   1.0000   1.0000   1.0000   1.0000   1.0000
     0.0000   0.0000   0.0000   0.0000   0.0000

          k = 0.1667 0.3849 0.0000 (  2899 PWs)   bands (ev):

   -75.5684 -75.5405 -38.9623 -38.9605 -38.9400 -38.8542 -38.8024 -38.7936
    13.3609  15.5443  15.5978  16.0162  17.1675  17.5415  17.6982  18.6222
    19.3448  19.5812  19.9103  25.9902  26.2621

     occupation numbers 
     1.0000   1.0000   1.0000   1.0000   1.0000   1.0000   1.0000   1.0000
     1.0000   1.0000   1.0000   1.0000   1.0000   1.0000   1.0000   0.0000
     0.0000   0.0000   0.0000   0.0000   0.0000

          k = 0.1667 0.3849 0.1025 (  2896 PWs)   bands (ev):

   -75.5665 -75.5423 -38.9924 -38.9568 -38.9095 -38.8589 -38.8079 -38.7875
    13.5094  15.4050  15.6987  16.1170  17.1366  17.5155  17.6523  18.6653
    19.3217  19.4447  20.0139  23.6921  28.3829

     occupation numbers 
     1.0000   1.0000   1.0000   1.0000   1.0000   1.0000   1.0000   1.0000
     1.0000   1.0000   1.0000   1.0000   1.0000   1.0000   1.0000   0.0000
     0.0000   0.0000   0.0000   0.0000   0.0000

          k = 0.1667 0.3849 0.2050 (  2890 PWs)   bands (ev):

   -75.5614 -75.5474 -39.0061 -38.9770 -38.8718 -38.8551 -38.8155 -38.7875
    13.9167  15.0207  15.9755  16.3258  16.9961  17.2416  17.8405  18.6408
    19.1770  19.6243  20.0935  21.7337  29.3428

     occupation numbers 
     1.0000   1.0000   1.0000   1.0000   1.0000   1.0000   1.0000   1.0000
     1.0000   1.0000   1.0000   1.0000   1.0000   1.0000   1.0000   0.0000
     0.0000   0.0000   0.0000   0.0000   0.0000

          k = 0.1667 0.3849-0.3075 (  2886 PWs)   bands (ev):

   -75.5544 -75.5544 -38.9987 -38.9987 -38.8546 -38.8546 -38.8031 -38.8031
    14.4732  14.4732  16.3097  16.3097  16.9711  16.9711  18.2007  18.2007
    19.6194  19.6194  20.4360  20.4360  30.4384

     occupation numbers 
     1.0000   1.0000   1.0000   1.0000   1.0000   1.0000   1.0000   1.0000
     1.0000   1.0000   1.0000   1.0000   1.0000   1.0000   1.0000   1.0000
     0.0000   0.0000   0.0000   0.0000   0.0000

          k = 0.1667 0.4811 0.0000 (  2893 PWs)   bands (ev):

   -75.5580 -75.5395 -39.0005 -38.9577 -38.9268 -38.8811 -38.8169 -38.8167
    14.4684  15.3785  15.3800  16.0601  17.1084  17.4353  17.7738  19.0738
    19.5743  19.5963  20.8058  24.7156  27.8760

     occupation numbers 
     1.0000   1.0000   1.0000   1.0000   1.0000   1.0000   1.0000   1.0000
     1.0000   1.0000   1.0000   1.0000   1.0000   1.0000   1.0000   0.0000
     0.0000   0.0000   0.0000   0.0000   0.0000

          k = 0.1667 0.4811 0.1025 (  2900 PWs)   bands (ev):

   -75.5567 -75.5408 -39.0130 -38.9754 -38.9079 -38.8732 -38.8276 -38.8025
    14.4899  15.3248  15.5441  16.0986  17.1191  17.4101  17.8426  19.0675
    19.3442  19.6696  20.8550  24.1037  26.8916

     occupation numbers 
     1.0000   1.0000   1.0000   1.0000   1.0000   1.0000   1.0000   1.0000
     1.0000   1.0000   1.0000   1.0000   1.0000   1.0000   1.0000   0.0000
     0.0000   0.0000   0.0000   0.0000   0.0000

          k = 0.1667 0.4811 0.2050 (  2897 PWs)   bands (ev):

   -75.5534 -75.5441 -39.0274 -39.0029 -38.8910 -38.8562 -38.8277 -38.7941
    14.6000  15.1216  15.8687  16.3637  16.9515  17.3829  18.0590  18.7582
    19.2821  19.7643  21.0020  22.6783  27.0229

     occupation numbers 
     1.0000   1.0000   1.0000   1.0000   1.0000   1.0000   1.0000   1.0000
     1.0000   1.0000   1.0000   1.0000   1.0000   1.0000   1.0000   0.0000
     0.0000   0.0000   0.0000   0.0000   0.0000

          k = 0.1667 0.4811-0.3075 (  2896 PWs)   bands (ev):

   -75.5487 -75.5487 -39.0241 -39.0241 -38.8719 -38.8719 -38.8037 -38.8037
    14.8288  14.8288  16.2693  16.2693  17.1245  17.1245  18.3334  18.3334
    19.6114  19.6114  21.5202  21.5202  27.8232

     occupation numbers 
     1.0000   1.0000   1.0000   1.0000   1.0000   1.0000   1.0000   1.0000
     1.0000   1.0000   1.0000   1.0000   1.0000   1.0000   0.9933   0.9933
     0.0000   0.0000   0.0000   0.0000   0.0000

          k = 0.1667 0.5774 0.0000 (  2908 PWs)   bands (ev):

   -75.5534 -75.5400 -39.0143 -38.9631 -38.9098 -38.8922 -38.8299 -38.8221
    14.9394  15.2433  15.3251  16.1169  17.1570  17.2681  17.8776  19.3918
    19.5715  19.5723  21.7017  23.1613  28.9550

     occupation numbers 
     1.0000   1.0000   1.0000   1.0000   1.0000   1.0000   1.0000   1.0000
     1.0000   1.0000   1.0000   1.0000   1.0000   1.0000   1.0000   0.0000
     0.0000   0.0000   0.0000   0.0000   0.0000

          k = 0.1667 0.5774 0.1025 (  2900 PWs)   bands (ev):

   -75.5525 -75.5409 -39.0244 -38.9798 -38.9115 -38.8669 -38.8392 -38.8095
    14.7977  15.2854  15.6847  15.9457  17.0786  17.4419  17.9553  19.3172
    19.3907  19.6326  21.7302  23.0653  28.0190

     occupation numbers 
     1.0000   1.0000   1.0000   1.0000   1.0000   1.0000   1.0000   1.0000
     1.0000   1.0000   1.0000   1.0000   1.0000   1.0000   1.0000   0.0000
     0.0000   0.0000   0.0000   0.0000   0.0000

          k = 0.1667 0.5774 0.2050 (  2904 PWs)   bands (ev):

   -75.5500 -75.5433 -39.0370 -39.0110 -38.8994 -38.8565 -38.8294 -38.7977
    14.7596  15.1812  15.9354  16.2772  16.8650  17.5545  18.2041  18.8271
    19.4179  19.6790  21.8559  22.7460  26.9362

     occupation numbers 
     1.0000   1.0000   1.0000   1.0000   1.0000   1.0000   1.0000   1.0000
     1.0000   1.0000   1.0000   1.0000   1.0000   1.0000   1.0000   0.0000
     0.0000   0.0000   0.0000   0.0000   0.0000

          k = 0.1667 0.5774-0.3075 (  2906 PWs)   bands (ev):

   -75.5467 -75.5467 -39.0335 -39.0335 -38.8785 -38.8785 -38.8035 -38.8035
    14.9137  14.9137  16.2611  16.2611  17.1772  17.1772  18.4933  18.4933
    19.5479  19.5479  22.2444  22.2444  26.5628

     occupation numbers 
     1.0000   1.0000   1.0000   1.0000   1.0000   1.0000   1.0000   1.0000
     1.0000   1.0000   1.0000   1.0000   1.0000   1.0000   0.0000   0.0000
     0.0000   0.0000   0.0000   0.0000   0.0000

          k = 0.2500 0.4330 0.0000 (  2910 PWs)   bands (ev):

   -75.5580 -75.5395 -38.9796 -38.9581 -38.9270 -38.8828 -38.8360 -38.8165
    14.4737  15.4533  15.7176  15.7454  17.0148  17.4630  17.7781  18.8298
    19.5259  19.5981  20.8460  26.2631  27.1000

     occupation numbers 
     1.0000   1.0000   1.0000   1.0000   1.0000   1.0000   1.0000   1.0000
     1.0000   1.0000   1.0000   1.0000   1.0000   1.0000   1.0000   0.0000
     0.0000   0.0000   0.0000   0.0000   0.0000

          k = 0.2500 0.4330 0.1025 (  2900 PWs)   bands (ev):

   -75.5568 -75.5407 -38.9865 -38.9832 -38.8940 -38.8936 -38.8381 -38.8046
    14.5551  15.3698  15.7845  15.9274  17.0541  17.2862  17.7853  18.8728
    19.2867  19.6774  20.9464  24.8241  27.3830

     occupation numbers 
     1.0000   1.0000   1.0000   1.0000   1.0000   1.0000   1.0000   1.0000
     1.0000   1.0000   1.0000   1.0000   1.0000   1.0000   1.0000   0.0000
     0.0000   0.0000   0.0000   0.0000   0.0000

          k = 0.2500 0.4330 0.2050 (  2897 PWs)   bands (ev):

   -75.5534 -75.5441 -39.0092 -38.9970 -38.8986 -38.8742 -38.8270 -38.7937
    14.7632  15.2249  16.0003  16.2750  16.9063  17.0232  17.8720  18.6609
    19.2417  19.7731  21.1763  22.9887  28.1513

     occupation numbers 
     1.0000   1.0000   1.0000   1.0000   1.0000   1.0000   1.0000   1.0000
     1.0000   1.0000   1.0000   1.0000   1.0000   1.0000   1.0000   0.0000
     0.0000   0.0000   0.0000   0.0000   0.0000

          k = 0.2500 0.4330-0.3075 (  2888 PWs)   bands (ev):

   -75.5487 -75.5487 -39.0111 -39.0111 -38.8867 -38.8867 -38.8020 -38.8020
    15.0143  15.0143  16.3305  16.3305  16.8001  16.8001  18.1688  18.1688
    19.6349  19.6349  21.7312  21.7312  29.1480

     occupation numbers 
     1.0000   1.0000   1.0000   1.0000   1.0000   1.0000   1.0000   1.0000
     1.0000   1.0000   1.0000   1.0000   1.0000   1.0000   1.0000   1.0000
     0.0000   0.0000   0.0000   0.0000   0.0000

          k = 0.2500 0.5292 0.0000 (  2908 PWs)   bands (ev):

   -75.5502 -75.5407 -38.9927 -38.9491 -38.9136 -38.8972 -38.8575 -38.8403
    15.1984  15.4276  15.5602  15.8222  17.0148  17.2195  17.9752  19.1357
    19.4933  19.5326  22.1129  24.3315  26.4182

     occupation numbers 
     1.0000   1.0000   1.0000   1.0000   1.0000   1.0000   1.0000   1.0000
     1.0000   1.0000   1.0000   1.0000   1.0000   1.0000   1.0000   0.0000
     0.0000   0.0000   0.0000   0.0000   0.0000

          k = 0.2500 0.5292 0.1025 (  2907 PWs)   bands (ev):

   -75.5496 -75.5413 -38.9976 -38.9696 -38.9293 -38.8751 -38.8569 -38.8215
    15.1660  15.5341  15.6424  15.8912  16.9891  17.1199  17.9874  19.1573
    19.2504  19.5873  22.2704  24.3075  26.4805

     occupation numbers 
     1.0000   1.0000   1.0000   1.0000   1.0000   1.0000   1.0000   1.0000
     1.0000   1.0000   1.0000   1.0000   1.0000   1.0000   1.0000   0.0000
     0.0000   0.0000   0.0000   0.0000   0.0000

          k = 0.2500 0.5292 0.2050 (  2905 PWs)   bands (ev):

   -75.5478 -75.5431 -39.0113 -38.9968 -38.9292 -38.8887 -38.8225 -38.8012
    15.2050  15.4908  15.9151  16.2325  16.7368  16.9792  18.0594  18.6933
    19.3311  19.6384  22.6452  23.9487  26.5385

     occupation numbers 
     1.0000   1.0000   1.0000   1.0000   1.0000   1.0000   1.0000   1.0000
     1.0000   1.0000   1.0000   1.0000   1.0000   1.0000   1.0000   0.0000
     0.0000   0.0000   0.0000   0.0000   0.0000

          k = 0.2500 0.5292-0.3075 (  2898 PWs)   bands (ev):

   -75.5455 -75.5455 -39.0136 -39.0136 -38.9107 -38.9107 -38.8005 -38.8005
    15.3360  15.3360  16.3044  16.3044  16.6983  16.6983  18.2664  18.2664
    19.5373  19.5373  23.2280  23.2280  27.0730

     occupation numbers 
     1.0000   1.0000   1.0000   1.0000   1.0000   1.0000   1.0000   1.0000
     1.0000   1.0000   1.0000   1.0000   1.0000   1.0000   1.0000   1.0000
     0.0000   0.0000   0.0000   0.0000   0.0000

          k = 0.3333 0.5774 0.0000 (  2898 PWs)   bands (ev):

   -75.5443 -75.5443 -38.9824 -38.9341 -38.9341 -38.8830 -38.8676 -38.8676
    15.4647  15.5528  15.5528  15.7483  17.0511  17.0511  18.0817  19.3030
    19.3030  19.4612  23.5540  24.3244  24.3244

     occupation numbers 
     1.0000   1.0000   1.0000   1.0000   1.0000   1.0000   1.0000   1.0000
     1.0000   1.0000   1.0000   1.0000   1.0000   1.0000   1.0000   0.0000
     0.0000   0.0000   0.0000   0.0000   0.0000

          k = 0.3333 0.5774 0.1025 (  2910 PWs)   bands (ev):

   -75.5443 -75.5443 -38.9758 -38.9591 -38.9591 -38.8897 -38.8425 -38.8425
    15.5356  15.6259  15.6259  15.7800  16.9652  16.9652  18.0624  19.1948
    19.3526  19.3526  23.9594  24.3731  24.3731

     occupation numbers 
     1.0000   1.0000   1.0000   1.0000   1.0000   1.0000   1.0000   1.0000
     1.0000   1.0000   1.0000   1.0000   1.0000   1.0000   1.0000   0.0000
     0.0000   0.0000   0.0000   0.0000   0.0000

          k = 0.3333 0.5774 0.2050 (  2910 PWs)   bands (ev):

   -75.5443 -75.5443 -38.9900 -38.9900 -38.9577 -38.9079 -38.8114 -38.8114
    15.7006  15.8006  15.8006  15.8392  16.7729  16.7729  18.0635  18.6628
    19.4438  19.4438  24.4940  24.4940  24.9490

     occupation numbers 
     1.0000   1.0000   1.0000   1.0000   1.0000   1.0000   1.0000   1.0000
     1.0000   1.0000   1.0000   1.0000   1.0000   1.0000   1.0000   0.0000
     0.0000   0.0000   0.0000   0.0000   0.0000

          k = 0.3333 0.5774-0.3075 (  2910 PWs)   bands (ev):

   -75.5443 -75.5443 -39.0019 -39.0019 -38.9328 -38.9328 -38.7993 -38.7993
    15.8319  15.8319  15.9154  15.9154  16.6529  16.6529  18.2347  18.2347
    19.4858  19.4858  24.5711  24.5711  26.2591

     occupation numbers 
     1.0000   1.0000   1.0000   1.0000   1.0000   1.0000   1.0000   1.0000
     1.0000   1.0000   1.0000   1.0000   1.0000   1.0000   1.0000   1.0000
     0.0000   0.0000   0.0000   0.0000   0.0000

     the Fermi energy is    18.3571 ev

!    total energy              =    -753.45489527 Ry
     total all-electron energy =     -5573.811586 Ry
     estimated scf accuracy    <       0.00000046 Ry
     smearing contrib. (-TS)   =      -0.00001810 Ry
     internal energy E=F+TS    =    -753.45487717 Ry

     The total energy is F=E-TS. E is the sum of the following terms:
     one-electron contribution =    -285.88078585 Ry
     hartree contribution      =     166.17658041 Ry
     xc contribution           =     -61.38238954 Ry
     ewald contribution        =    -397.19369186 Ry
     one-center paw contrib.   =    -175.17459032 Ry
      -> PAW hartree energy AE =     221.89807425 Ry
      -> PAW hartree energy PS =    -220.84304144 Ry
      -> PAW xc energy AE      =    -117.66609816 Ry
      -> PAW xc energy PS      =      29.02377020 Ry
      -> total E_H with PAW    =     167.23161322 Ry
      -> total E_XC with PAW   =    -150.02471751 Ry

     total magnetization       =     3.36 Bohr mag/cell
     absolute magnetization    =     3.69 Bohr mag/cell

     convergence has been achieved in   9 iterations

     Writing all to output data dir ./out/Co.save/
 
     init_run     :      0.40s CPU      0.51s WALL (       1 calls)
     electrons    :     16.59s CPU     17.53s WALL (       1 calls)

     Called by init_run:
     wfcinit      :      0.27s CPU      0.36s WALL (       1 calls)
     potinit      :      0.09s CPU      0.11s WALL (       1 calls)
     hinit0       :      0.03s CPU      0.03s WALL (       1 calls)

     Called by electrons:
     c_bands      :     14.13s CPU     14.84s WALL (       9 calls)
     sum_band     :      1.67s CPU      1.75s WALL (       9 calls)
     v_of_rho     :      0.03s CPU      0.03s WALL (      10 calls)
     v_h          :      0.00s CPU      0.00s WALL (      10 calls)
     v_xc         :      0.03s CPU      0.03s WALL (      10 calls)
     newd         :      0.04s CPU      0.04s WALL (      10 calls)
     PAW_pot      :      0.80s CPU      0.94s WALL (      10 calls)
     mix_rho      :      0.01s CPU      0.01s WALL (       9 calls)

     Called by c_bands:
     init_us_2    :      0.10s CPU      0.11s WALL (    2736 calls)
     init_us_2:cp :      0.10s CPU      0.10s WALL (    2736 calls)
     cegterg      :     13.49s CPU     14.10s WALL (    1368 calls)

     Called by sum_band:
     sum_band:wei :      0.01s CPU      0.01s WALL (       9 calls)
     sum_band:loo :      1.58s CPU      1.66s WALL (       9 calls)
     sum_band:buf :      0.01s CPU      0.01s WALL (    1368 calls)
     sum_band:ini :      0.06s CPU      0.05s WALL (    1368 calls)
     sum_band:cal :      0.14s CPU      0.14s WALL (    1368 calls)
     sum_band:bec :      0.00s CPU      0.01s WALL (    1368 calls)
     addusdens    :      0.06s CPU      0.06s WALL (       9 calls)
                                        0.00s GPU  (       9 calls)
     addusd:skk   :      0.00s CPU      0.00s WALL (       9 calls)
                                        0.00s GPU  (       9 calls)

     Called by *egterg:
     cdiaghg      :      3.05s CPU      3.13s WALL (    6549 calls)
     cegterg:over :      0.46s CPU      0.43s WALL (    5333 calls)
     cegterg:upda :      0.05s CPU      0.10s WALL (    5333 calls)
     cegterg:last :      0.17s CPU      0.20s WALL (    4009 calls)
     h_psi        :      9.20s CPU      9.68s WALL (    6701 calls)
     s_psi        :      0.17s CPU      0.15s WALL (    6701 calls)
     g_psi        :      0.02s CPU      0.03s WALL (    5333 calls)

     Called by h_psi:
     h_psi:calbec :      0.52s CPU      0.49s WALL (    6701 calls)
     vloc_psi     :      8.57s CPU      8.98s WALL (    6701 calls)
     add_vuspsi   :      0.09s CPU      0.16s WALL (    6701 calls)

     General routines
     calbec       :      0.65s CPU      0.62s WALL (    8069 calls)
     fft          :      0.02s CPU      0.02s WALL (     244 calls)
     ffts         :      0.00s CPU      0.00s WALL (      38 calls)
     fftw         :      9.36s CPU      9.69s WALL (  217190 calls)
     interpolate  :      0.00s CPU      0.00s WALL (      20 calls)
 
     Parallel routines

     PAW routines
     PAW_pot      :      0.80s CPU      0.94s WALL (      10 calls)
     PAW_symme    :      0.01s CPU      0.01s WALL (      18 calls)
 
     PWSCF        :     17.33s CPU     18.82s WALL

 
   This run was terminated on:   7:16:46  22Mar2024            

=------------------------------------------------------------------------------=
   JOB DONE.
=------------------------------------------------------------------------------=
