
     Program PWSCF v.7.2 starts on 22Mar2024 at  7:21:21 

     This program is part of the open-source Quantum ESPRESSO suite
     for quantum simulation of materials; please cite
         "P. Giannozzi et al., J. Phys.:Condens. Matter 21 395502 (2009);
         "P. Giannozzi et al., J. Phys.:Condens. Matter 29 465901 (2017);
         "P. Giannozzi et al., J. Chem. Phys. 152 154105 (2020);
          URL http://www.quantum-espresso.org", 
     in publications or presentations arising from this work. More details at
     http://www.quantum-espresso.org/quote

     Parallel version (MPI), running on    20 processors

     MPI processes distributed on     1 nodes
     352041 MiB available memory on the printing compute node when the environment starts
 
     Waiting for input...
     Reading input from standard input

     Current dimensions of program PWSCF are:
     Max number of different atomic species (ntypx) = 10
     Max number of k-points (npk) = 120000
     Max angular momentum in pseudopotentials (lmaxx) =  4
     file Co.pbe-spn-kjpaw_psl.0.3.1.UPF: wavefunction(s)  3P 3D renormalized
 
     R & G space division:  proc/nbgrp/npool/nimage =      20
     Subspace diagonalization in iterative solution of the eigenvalue problem:
     a serial algorithm will be used

 
     Parallelization info
     --------------------
     sticks:   dense  smooth     PW     G-vecs:    dense   smooth      PW
     Min          34      33      9                 1205     1163     185
     Max          36      34     10                 1210     1172     194
     Sum         691     673    199                24153    23367    3827
 
     Using Slab Decomposition
 


     bravais-lattice index     =            4
     lattice parameter (alat)  =       4.7432  a.u.
     unit-cell volume          =     150.0384 (a.u.)^3
     number of atoms/cell      =            2
     number of atomic types    =            1
     number of electrons       =        34.00
     number of Kohn-Sham states=           21
     kinetic-energy cutoff     =     110.0000  Ry
     charge density cutoff     =     450.0000  Ry
     scf convergence threshold =      1.0E-06
     mixing beta               =       0.7000
     number of iterations used =            8  plain     mixing
     Exchange-correlation= SLA  PW   PBX  PBC
                           (   1   4   3   4   0   0   0)

     celldm(1)=   4.743213  celldm(2)=   0.000000  celldm(3)=   1.623506
     celldm(4)=   0.000000  celldm(5)=   0.000000  celldm(6)=   0.000000

     crystal axes: (cart. coord. in units of alat)
               a(1) = (   1.000000   0.000000   0.000000 )  
               a(2) = (  -0.500000   0.866025   0.000000 )  
               a(3) = (   0.000000   0.000000   1.623506 )  

     reciprocal axes: (cart. coord. in units 2 pi/alat)
               b(1) = (  1.000000  0.577350  0.000000 )  
               b(2) = (  0.000000  1.154701  0.000000 )  
               b(3) = (  0.000000  0.000000  0.615951 )  


     PseudoPot. # 1 for Co read from file:
     /truba/home/amuhaymin/ZnS/pseudo/QE/Co.pbe-spn-kjpaw_psl.0.3.1.UPF
     MD5 check sum: b0a1ad65bf214e88c1f3d33b20c7d919
     Pseudo is Projector augmented-wave + core cor, Zval = 17.0
     Generated using &quot;atomic&quot; code by A. Dal Corso  v.6.2.2
     Shape of augmentation charge: PSQ
     Using radial grid of 1193 points,  6 beta functions with: 
                l(1) =   0
                l(2) =   0
                l(3) =   1
                l(4) =   1
                l(5) =   2
                l(6) =   2
     Q(r) pseudized with 0 coefficients 


     atomic species   valence    mass     pseudopotential
        Co            17.00    58.93300     Co( 1.00)

     Starting magnetic structure 
     atomic species   magnetization
        Co           0.294

     24 Sym. Ops., with inversion, found (12 have fractional translation)


                                    s                        frac. trans.

      isym =  1     identity                                     

 cryst.   s( 1) = (     1          0          0      )
                  (     0          1          0      )
                  (     0          0          1      )

 cart.    s( 1) = (  1.0000000  0.0000000  0.0000000 )
                  (  0.0000000  1.0000000  0.0000000 )
                  (  0.0000000  0.0000000  1.0000000 )


      isym =  2     180 deg rotation - cart. axis [0,0,1]        

 cryst.   s( 2) = (    -1          0          0      )    f =(  0.0000000 )
                  (     0         -1          0      )       ( -0.0000000 )
                  (     0          0          1      )       ( -0.5000000 )

 cart.    s( 2) = ( -1.0000000  0.0000000  0.0000000 )    f =(  0.0000000 )
                  (  0.0000000 -1.0000000  0.0000000 )       ( -0.0000000 )
                  (  0.0000000  0.0000000  1.0000000 )       ( -0.8117530 )


      isym =  3     180 deg rotation - cart. axis [0,1,0]        

 cryst.   s( 3) = (    -1          0          0      )    f =(  0.0000000 )
                  (     1          1          0      )       (  0.0000000 )
                  (     0          0         -1      )       (  0.5000000 )

 cart.    s( 3) = ( -1.0000000  0.0000000  0.0000000 )    f =(  0.0000000 )
                  (  0.0000000  1.0000000  0.0000000 )       (  0.0000000 )
                  (  0.0000000  0.0000000 -1.0000000 )       (  0.8117530 )


      isym =  4     180 deg rotation - cart. axis [1,0,0]        

 cryst.   s( 4) = (     1          0          0      )
                  (    -1         -1          0      )
                  (     0          0         -1      )

 cart.    s( 4) = (  1.0000000  0.0000000  0.0000000 )
                  (  0.0000000 -1.0000000  0.0000000 )
                  (  0.0000000  0.0000000 -1.0000000 )


      isym =  5      60 deg rotation - cryst. axis [0,0,1]       

 cryst.   s( 5) = (     1          1          0      )    f =(  0.0000000 )
                  (    -1          0          0      )       ( -0.0000000 )
                  (     0          0          1      )       ( -0.5000000 )

 cart.    s( 5) = (  0.5000000 -0.8660254  0.0000000 )    f =(  0.0000000 )
                  (  0.8660254  0.5000000  0.0000000 )       ( -0.0000000 )
                  (  0.0000000  0.0000000  1.0000000 )       ( -0.8117530 )


      isym =  6      60 deg rotation - cryst. axis [0,0,-1]      

 cryst.   s( 6) = (     0         -1          0      )    f =(  0.0000000 )
                  (     1          1          0      )       ( -0.0000000 )
                  (     0          0          1      )       ( -0.5000000 )

 cart.    s( 6) = (  0.5000000  0.8660254  0.0000000 )    f =(  0.0000000 )
                  ( -0.8660254  0.5000000  0.0000000 )       ( -0.0000000 )
                  (  0.0000000  0.0000000  1.0000000 )       ( -0.8117530 )


      isym =  7     120 deg rotation - cryst. axis [0,0,1]       

 cryst.   s( 7) = (     0          1          0      )
                  (    -1         -1          0      )
                  (     0          0          1      )

 cart.    s( 7) = ( -0.5000000 -0.8660254  0.0000000 )
                  (  0.8660254 -0.5000000  0.0000000 )
                  (  0.0000000  0.0000000  1.0000000 )


      isym =  8     120 deg rotation - cryst. axis [0,0,-1]      

 cryst.   s( 8) = (    -1         -1          0      )
                  (     1          0          0      )
                  (     0          0          1      )

 cart.    s( 8) = ( -0.5000000  0.8660254  0.0000000 )
                  ( -0.8660254 -0.5000000  0.0000000 )
                  (  0.0000000  0.0000000  1.0000000 )


      isym =  9     180 deg rotation - cryst. axis [1,-1,0]      

 cryst.   s( 9) = (     0         -1          0      )    f =( -0.0000000 )
                  (    -1          0          0      )       ( -0.0000000 )
                  (     0          0         -1      )       (  0.5000000 )

 cart.    s( 9) = (  0.5000000 -0.8660254  0.0000000 )    f =( -0.0000000 )
                  ( -0.8660254 -0.5000000  0.0000000 )       ( -0.0000000 )
                  (  0.0000000  0.0000000 -1.0000000 )       (  0.8117530 )


      isym = 10     180 deg rotation - cryst. axis [2,1,0]       

 cryst.   s(10) = (     1          1          0      )    f =(  0.0000000 )
                  (     0         -1          0      )       ( -0.0000000 )
                  (     0          0         -1      )       (  0.5000000 )

 cart.    s(10) = (  0.5000000  0.8660254  0.0000000 )    f =(  0.0000000 )
                  (  0.8660254 -0.5000000  0.0000000 )       ( -0.0000000 )
                  (  0.0000000  0.0000000 -1.0000000 )       (  0.8117530 )


      isym = 11     180 deg rotation - cryst. axis [0,1,0]       

 cryst.   s(11) = (    -1         -1          0      )
                  (     0          1          0      )
                  (     0          0         -1      )

 cart.    s(11) = ( -0.5000000 -0.8660254  0.0000000 )
                  ( -0.8660254  0.5000000  0.0000000 )
                  (  0.0000000  0.0000000 -1.0000000 )


      isym = 12     180 deg rotation - cryst. axis [1,1,0]       

 cryst.   s(12) = (     0          1          0      )
                  (     1          0          0      )
                  (     0          0         -1      )

 cart.    s(12) = ( -0.5000000  0.8660254  0.0000000 )
                  (  0.8660254  0.5000000  0.0000000 )
                  (  0.0000000  0.0000000 -1.0000000 )


      isym = 13     inversion                                    

 cryst.   s(13) = (    -1          0          0      )
                  (     0         -1          0      )
                  (     0          0         -1      )

 cart.    s(13) = ( -1.0000000  0.0000000  0.0000000 )
                  (  0.0000000 -1.0000000  0.0000000 )
                  (  0.0000000  0.0000000 -1.0000000 )


      isym = 14     inv. 180 deg rotation - cart. axis [0,0,1]   

 cryst.   s(14) = (     1          0          0      )    f =(  0.0000000 )
                  (     0          1          0      )       (  0.0000000 )
                  (     0          0         -1      )       (  0.5000000 )

 cart.    s(14) = (  1.0000000  0.0000000  0.0000000 )    f =(  0.0000000 )
                  (  0.0000000  1.0000000  0.0000000 )       (  0.0000000 )
                  (  0.0000000  0.0000000 -1.0000000 )       (  0.8117530 )


      isym = 15     inv. 180 deg rotation - cart. axis [0,1,0]   

 cryst.   s(15) = (     1          0          0      )    f =(  0.0000000 )
                  (    -1         -1          0      )       ( -0.0000000 )
                  (     0          0          1      )       ( -0.5000000 )

 cart.    s(15) = (  1.0000000  0.0000000  0.0000000 )    f =(  0.0000000 )
                  (  0.0000000 -1.0000000  0.0000000 )       ( -0.0000000 )
                  (  0.0000000  0.0000000  1.0000000 )       ( -0.8117530 )


      isym = 16     inv. 180 deg rotation - cart. axis [1,0,0]   

 cryst.   s(16) = (    -1          0          0      )
                  (     1          1          0      )
                  (     0          0          1      )

 cart.    s(16) = ( -1.0000000  0.0000000  0.0000000 )
                  (  0.0000000  1.0000000  0.0000000 )
                  (  0.0000000  0.0000000  1.0000000 )


      isym = 17     inv.  60 deg rotation - cryst. axis [0,0,1]  

 cryst.   s(17) = (    -1         -1          0      )    f =(  0.0000000 )
                  (     1          0          0      )       ( -0.0000000 )
                  (     0          0         -1      )       (  0.5000000 )

 cart.    s(17) = ( -0.5000000  0.8660254  0.0000000 )    f =(  0.0000000 )
                  ( -0.8660254 -0.5000000  0.0000000 )       ( -0.0000000 )
                  (  0.0000000  0.0000000 -1.0000000 )       (  0.8117530 )


      isym = 18     inv.  60 deg rotation - cryst. axis [0,0,-1] 

 cryst.   s(18) = (     0          1          0      )    f =( -0.0000000 )
                  (    -1         -1          0      )       ( -0.0000000 )
                  (     0          0         -1      )       (  0.5000000 )

 cart.    s(18) = ( -0.5000000 -0.8660254  0.0000000 )    f =(  0.0000000 )
                  (  0.8660254 -0.5000000  0.0000000 )       ( -0.0000000 )
                  (  0.0000000  0.0000000 -1.0000000 )       (  0.8117530 )


      isym = 19     inv. 120 deg rotation - cryst. axis [0,0,1]  

 cryst.   s(19) = (     0         -1          0      )
                  (     1          1          0      )
                  (     0          0         -1      )

 cart.    s(19) = (  0.5000000  0.8660254  0.0000000 )
                  ( -0.8660254  0.5000000  0.0000000 )
                  (  0.0000000  0.0000000 -1.0000000 )


      isym = 20     inv. 120 deg rotation - cryst. axis [0,0,-1] 

 cryst.   s(20) = (     1          1          0      )
                  (    -1          0          0      )
                  (     0          0         -1      )

 cart.    s(20) = (  0.5000000 -0.8660254  0.0000000 )
                  (  0.8660254  0.5000000  0.0000000 )
                  (  0.0000000  0.0000000 -1.0000000 )


      isym = 21     inv. 180 deg rotation - cryst. axis [1,-1,0] 

 cryst.   s(21) = (     0          1          0      )    f =(  0.0000000 )
                  (     1          0          0      )       ( -0.0000000 )
                  (     0          0          1      )       ( -0.5000000 )

 cart.    s(21) = ( -0.5000000  0.8660254  0.0000000 )    f =(  0.0000000 )
                  (  0.8660254  0.5000000  0.0000000 )       ( -0.0000000 )
                  (  0.0000000  0.0000000  1.0000000 )       ( -0.8117530 )


      isym = 22     inv. 180 deg rotation - cryst. axis [2,1,0]  

 cryst.   s(22) = (    -1         -1          0      )    f =(  0.0000000 )
                  (     0          1          0      )       ( -0.0000000 )
                  (     0          0          1      )       ( -0.5000000 )

 cart.    s(22) = ( -0.5000000 -0.8660254  0.0000000 )    f =(  0.0000000 )
                  ( -0.8660254  0.5000000  0.0000000 )       ( -0.0000000 )
                  (  0.0000000  0.0000000  1.0000000 )       ( -0.8117530 )


      isym = 23     inv. 180 deg rotation - cryst. axis [0,1,0]  

 cryst.   s(23) = (     1          1          0      )
                  (     0         -1          0      )
                  (     0          0          1      )

 cart.    s(23) = (  0.5000000  0.8660254  0.0000000 )
                  (  0.8660254 -0.5000000  0.0000000 )
                  (  0.0000000  0.0000000  1.0000000 )


      isym = 24     inv. 180 deg rotation - cryst. axis [1,1,0]  

 cryst.   s(24) = (     0         -1          0      )
                  (    -1          0          0      )
                  (     0          0          1      )

 cart.    s(24) = (  0.5000000 -0.8660254  0.0000000 )
                  ( -0.8660254 -0.5000000  0.0000000 )
                  (  0.0000000  0.0000000  1.0000000 )


     point group D_6h(6/mmm)
     there are 12 classes
     the character table:

       E     2C6   2C3   C2    3C2'  3C2'' i     2S3   2S6   s_h   3s_d  3s_v 
A_1g   1.00  1.00  1.00  1.00  1.00  1.00  1.00  1.00  1.00  1.00  1.00  1.00
A_2g   1.00  1.00  1.00  1.00 -1.00 -1.00  1.00  1.00  1.00  1.00 -1.00 -1.00
B_1g   1.00 -1.00  1.00 -1.00  1.00 -1.00  1.00 -1.00  1.00 -1.00  1.00 -1.00
B_2g   1.00 -1.00  1.00 -1.00 -1.00  1.00  1.00 -1.00  1.00 -1.00 -1.00  1.00
E_1g   2.00  1.00 -1.00 -2.00  0.00  0.00  2.00  1.00 -1.00 -2.00  0.00  0.00
E_2g   2.00 -1.00 -1.00  2.00  0.00  0.00  2.00 -1.00 -1.00  2.00  0.00  0.00
A_1u   1.00  1.00  1.00  1.00  1.00  1.00 -1.00 -1.00 -1.00 -1.00 -1.00 -1.00
A_2u   1.00  1.00  1.00  1.00 -1.00 -1.00 -1.00 -1.00 -1.00 -1.00  1.00  1.00
B_1u   1.00 -1.00  1.00 -1.00  1.00 -1.00 -1.00  1.00 -1.00  1.00 -1.00  1.00
B_2u   1.00 -1.00  1.00 -1.00 -1.00  1.00 -1.00  1.00 -1.00  1.00  1.00 -1.00
E_1u   2.00  1.00 -1.00 -2.00  0.00  0.00 -2.00 -1.00  1.00  2.00  0.00  0.00
E_2u   2.00 -1.00 -1.00  2.00  0.00  0.00 -2.00  1.00  1.00 -2.00  0.00  0.00

     the symmetry operations in each class and the name of the first element:

     E        1
          identity                                               
     2C6      5    6
           60 deg rotation - cryst. axis [0,0,1]                 
     2C3      7    8
          120 deg rotation - cryst. axis [0,0,1]                 
     C2       2
          180 deg rotation - cart. axis [0,0,1]                  
     3C2'     4   12   11
          180 deg rotation - cart. axis [1,0,0]                  
     3C2''    3    9   10
          180 deg rotation - cart. axis [0,1,0]                  
     i       13
          inversion                                              
     2S3     17   18
          inv.  60 deg rotation - cryst. axis [0,0,1]            
     2S6     19   20
          inv. 120 deg rotation - cryst. axis [0,0,1]            
     s_h     14
          inv. 180 deg rotation - cart. axis [0,0,1]             
     3s_d    16   24   23
          inv. 180 deg rotation - cart. axis [1,0,0]             
     3s_v    15   21   22
          inv. 180 deg rotation - cart. axis [0,1,0]             

   Cartesian axes

     site n.     atom                  positions (alat units)
         1           Co  tau(   1) = (  -0.0000000   0.5773503   0.4058765  )
         2           Co  tau(   2) = (   0.5000000   0.2886751   1.2176295  )

   Crystallographic axes

     site n.     atom                  positions (cryst. coord.)
         1           Co  tau(   1) = (  0.3333333  0.6666667  0.2500000  )
         2           Co  tau(   2) = (  0.6666667  0.3333333  0.7500000  )

     number of k points=    76  Gaussian smearing, width (Ry)=  0.0010
                       cart. coord. in units 2pi/alat
        k(    1) = (   0.0000000   0.0000000   0.0000000), wk =   0.0011574
        k(    2) = (   0.0000000   0.0000000   0.1026585), wk =   0.0023148
        k(    3) = (   0.0000000   0.0000000   0.2053170), wk =   0.0023148
        k(    4) = (   0.0000000   0.0000000  -0.3079755), wk =   0.0011574
        k(    5) = (   0.0000000   0.0962250   0.0000000), wk =   0.0069444
        k(    6) = (   0.0000000   0.0962250   0.1026585), wk =   0.0138889
        k(    7) = (   0.0000000   0.0962250   0.2053170), wk =   0.0138889
        k(    8) = (   0.0000000   0.0962250  -0.3079755), wk =   0.0069444
        k(    9) = (   0.0000000   0.1924501   0.0000000), wk =   0.0069444
        k(   10) = (   0.0000000   0.1924501   0.1026585), wk =   0.0138889
        k(   11) = (   0.0000000   0.1924501   0.2053170), wk =   0.0138889
        k(   12) = (   0.0000000   0.1924501  -0.3079755), wk =   0.0069444
        k(   13) = (   0.0000000   0.2886751   0.0000000), wk =   0.0069444
        k(   14) = (   0.0000000   0.2886751   0.1026585), wk =   0.0138889
        k(   15) = (   0.0000000   0.2886751   0.2053170), wk =   0.0138889
        k(   16) = (   0.0000000   0.2886751  -0.3079755), wk =   0.0069444
        k(   17) = (   0.0000000   0.3849002   0.0000000), wk =   0.0069444
        k(   18) = (   0.0000000   0.3849002   0.1026585), wk =   0.0138889
        k(   19) = (   0.0000000   0.3849002   0.2053170), wk =   0.0138889
        k(   20) = (   0.0000000   0.3849002  -0.3079755), wk =   0.0069444
        k(   21) = (   0.0000000   0.4811252   0.0000000), wk =   0.0069444
        k(   22) = (   0.0000000   0.4811252   0.1026585), wk =   0.0138889
        k(   23) = (   0.0000000   0.4811252   0.2053170), wk =   0.0138889
        k(   24) = (   0.0000000   0.4811252  -0.3079755), wk =   0.0069444
        k(   25) = (   0.0000000  -0.5773503   0.0000000), wk =   0.0034722
        k(   26) = (   0.0000000  -0.5773503   0.1026585), wk =   0.0069444
        k(   27) = (   0.0000000  -0.5773503   0.2053170), wk =   0.0069444
        k(   28) = (   0.0000000  -0.5773503  -0.3079755), wk =   0.0034722
        k(   29) = (   0.0833333   0.1443376   0.0000000), wk =   0.0069444
        k(   30) = (   0.0833333   0.1443376   0.1026585), wk =   0.0138889
        k(   31) = (   0.0833333   0.1443376   0.2053170), wk =   0.0138889
        k(   32) = (   0.0833333   0.1443376  -0.3079755), wk =   0.0069444
        k(   33) = (   0.0833333   0.2405626   0.0000000), wk =   0.0138889
        k(   34) = (   0.0833333   0.2405626   0.1026585), wk =   0.0277778
        k(   35) = (   0.0833333   0.2405626   0.2053170), wk =   0.0277778
        k(   36) = (   0.0833333   0.2405626  -0.3079755), wk =   0.0138889
        k(   37) = (   0.0833333   0.3367877   0.0000000), wk =   0.0138889
        k(   38) = (   0.0833333   0.3367877   0.1026585), wk =   0.0277778
        k(   39) = (   0.0833333   0.3367877   0.2053170), wk =   0.0277778
        k(   40) = (   0.0833333   0.3367877  -0.3079755), wk =   0.0138889
        k(   41) = (   0.0833333   0.4330127   0.0000000), wk =   0.0138889
        k(   42) = (   0.0833333   0.4330127   0.1026585), wk =   0.0277778
        k(   43) = (   0.0833333   0.4330127   0.2053170), wk =   0.0277778
        k(   44) = (   0.0833333   0.4330127  -0.3079755), wk =   0.0138889
        k(   45) = (   0.0833333   0.5292377   0.0000000), wk =   0.0138889
        k(   46) = (   0.0833333   0.5292377   0.1026585), wk =   0.0277778
        k(   47) = (   0.0833333   0.5292377   0.2053170), wk =   0.0277778
        k(   48) = (   0.0833333   0.5292377  -0.3079755), wk =   0.0138889
        k(   49) = (   0.1666667   0.2886751   0.0000000), wk =   0.0069444
        k(   50) = (   0.1666667   0.2886751   0.1026585), wk =   0.0138889
        k(   51) = (   0.1666667   0.2886751   0.2053170), wk =   0.0138889
        k(   52) = (   0.1666667   0.2886751  -0.3079755), wk =   0.0069444
        k(   53) = (   0.1666667   0.3849002   0.0000000), wk =   0.0138889
        k(   54) = (   0.1666667   0.3849002   0.1026585), wk =   0.0277778
        k(   55) = (   0.1666667   0.3849002   0.2053170), wk =   0.0277778
        k(   56) = (   0.1666667   0.3849002  -0.3079755), wk =   0.0138889
        k(   57) = (   0.1666667   0.4811252   0.0000000), wk =   0.0138889
        k(   58) = (   0.1666667   0.4811252   0.1026585), wk =   0.0277778
        k(   59) = (   0.1666667   0.4811252   0.2053170), wk =   0.0277778
        k(   60) = (   0.1666667   0.4811252  -0.3079755), wk =   0.0138889
        k(   61) = (   0.1666667   0.5773503   0.0000000), wk =   0.0069444
        k(   62) = (   0.1666667   0.5773503   0.1026585), wk =   0.0138889
        k(   63) = (   0.1666667   0.5773503   0.2053170), wk =   0.0138889
        k(   64) = (   0.1666667   0.5773503  -0.3079755), wk =   0.0069444
        k(   65) = (   0.2500000   0.4330127   0.0000000), wk =   0.0069444
        k(   66) = (   0.2500000   0.4330127   0.1026585), wk =   0.0138889
        k(   67) = (   0.2500000   0.4330127   0.2053170), wk =   0.0138889
        k(   68) = (   0.2500000   0.4330127  -0.3079755), wk =   0.0069444
        k(   69) = (   0.2500000   0.5292377   0.0000000), wk =   0.0138889
        k(   70) = (   0.2500000   0.5292377   0.1026585), wk =   0.0277778
        k(   71) = (   0.2500000   0.5292377   0.2053170), wk =   0.0277778
        k(   72) = (   0.2500000   0.5292377  -0.3079755), wk =   0.0138889
        k(   73) = (   0.3333333   0.5773503   0.0000000), wk =   0.0023148
        k(   74) = (   0.3333333   0.5773503   0.1026585), wk =   0.0046296
        k(   75) = (   0.3333333   0.5773503   0.2053170), wk =   0.0046296
        k(   76) = (   0.3333333   0.5773503  -0.3079755), wk =   0.0023148

                       cryst. coord.
        k(    1) = (   0.0000000   0.0000000   0.0000000), wk =   0.0011574
        k(    2) = (   0.0000000   0.0000000   0.1666667), wk =   0.0023148
        k(    3) = (   0.0000000   0.0000000   0.3333333), wk =   0.0023148
        k(    4) = (   0.0000000   0.0000000  -0.5000000), wk =   0.0011574
        k(    5) = (   0.0000000   0.0833333   0.0000000), wk =   0.0069444
        k(    6) = (   0.0000000   0.0833333   0.1666667), wk =   0.0138889
        k(    7) = (   0.0000000   0.0833333   0.3333333), wk =   0.0138889
        k(    8) = (   0.0000000   0.0833333  -0.5000000), wk =   0.0069444
        k(    9) = (   0.0000000   0.1666667   0.0000000), wk =   0.0069444
        k(   10) = (   0.0000000   0.1666667   0.1666667), wk =   0.0138889
        k(   11) = (   0.0000000   0.1666667   0.3333333), wk =   0.0138889
        k(   12) = (   0.0000000   0.1666667  -0.5000000), wk =   0.0069444
        k(   13) = (   0.0000000   0.2500000   0.0000000), wk =   0.0069444
        k(   14) = (   0.0000000   0.2500000   0.1666667), wk =   0.0138889
        k(   15) = (   0.0000000   0.2500000   0.3333333), wk =   0.0138889
        k(   16) = (   0.0000000   0.2500000  -0.5000000), wk =   0.0069444
        k(   17) = (   0.0000000   0.3333333   0.0000000), wk =   0.0069444
        k(   18) = (   0.0000000   0.3333333   0.1666667), wk =   0.0138889
        k(   19) = (   0.0000000   0.3333333   0.3333333), wk =   0.0138889
        k(   20) = (   0.0000000   0.3333333  -0.5000000), wk =   0.0069444
        k(   21) = (   0.0000000   0.4166667   0.0000000), wk =   0.0069444
        k(   22) = (   0.0000000   0.4166667   0.1666667), wk =   0.0138889
        k(   23) = (   0.0000000   0.4166667   0.3333333), wk =   0.0138889
        k(   24) = (   0.0000000   0.4166667  -0.5000000), wk =   0.0069444
        k(   25) = (   0.0000000  -0.5000000   0.0000000), wk =   0.0034722
        k(   26) = (   0.0000000  -0.5000000   0.1666667), wk =   0.0069444
        k(   27) = (   0.0000000  -0.5000000   0.3333333), wk =   0.0069444
        k(   28) = (   0.0000000  -0.5000000  -0.5000000), wk =   0.0034722
        k(   29) = (   0.0833333   0.0833333   0.0000000), wk =   0.0069444
        k(   30) = (   0.0833333   0.0833333   0.1666667), wk =   0.0138889
        k(   31) = (   0.0833333   0.0833333   0.3333333), wk =   0.0138889
        k(   32) = (   0.0833333   0.0833333  -0.5000000), wk =   0.0069444
        k(   33) = (   0.0833333   0.1666667   0.0000000), wk =   0.0138889
        k(   34) = (   0.0833333   0.1666667   0.1666667), wk =   0.0277778
        k(   35) = (   0.0833333   0.1666667   0.3333333), wk =   0.0277778
        k(   36) = (   0.0833333   0.1666667  -0.5000000), wk =   0.0138889
        k(   37) = (   0.0833333   0.2500000   0.0000000), wk =   0.0138889
        k(   38) = (   0.0833333   0.2500000   0.1666667), wk =   0.0277778
        k(   39) = (   0.0833333   0.2500000   0.3333333), wk =   0.0277778
        k(   40) = (   0.0833333   0.2500000  -0.5000000), wk =   0.0138889
        k(   41) = (   0.0833333   0.3333333   0.0000000), wk =   0.0138889
        k(   42) = (   0.0833333   0.3333333   0.1666667), wk =   0.0277778
        k(   43) = (   0.0833333   0.3333333   0.3333333), wk =   0.0277778
        k(   44) = (   0.0833333   0.3333333  -0.5000000), wk =   0.0138889
        k(   45) = (   0.0833333   0.4166667   0.0000000), wk =   0.0138889
        k(   46) = (   0.0833333   0.4166667   0.1666667), wk =   0.0277778
        k(   47) = (   0.0833333   0.4166667   0.3333333), wk =   0.0277778
        k(   48) = (   0.0833333   0.4166667  -0.5000000), wk =   0.0138889
        k(   49) = (   0.1666667   0.1666667   0.0000000), wk =   0.0069444
        k(   50) = (   0.1666667   0.1666667   0.1666667), wk =   0.0138889
        k(   51) = (   0.1666667   0.1666667   0.3333333), wk =   0.0138889
        k(   52) = (   0.1666667   0.1666667  -0.5000000), wk =   0.0069444
        k(   53) = (   0.1666667   0.2500000   0.0000000), wk =   0.0138889
        k(   54) = (   0.1666667   0.2500000   0.1666667), wk =   0.0277778
        k(   55) = (   0.1666667   0.2500000   0.3333333), wk =   0.0277778
        k(   56) = (   0.1666667   0.2500000  -0.5000000), wk =   0.0138889
        k(   57) = (   0.1666667   0.3333333   0.0000000), wk =   0.0138889
        k(   58) = (   0.1666667   0.3333333   0.1666667), wk =   0.0277778
        k(   59) = (   0.1666667   0.3333333   0.3333333), wk =   0.0277778
        k(   60) = (   0.1666667   0.3333333  -0.5000000), wk =   0.0138889
        k(   61) = (   0.1666667   0.4166667   0.0000000), wk =   0.0069444
        k(   62) = (   0.1666667   0.4166667   0.1666667), wk =   0.0138889
        k(   63) = (   0.1666667   0.4166667   0.3333333), wk =   0.0138889
        k(   64) = (   0.1666667   0.4166667  -0.5000000), wk =   0.0069444
        k(   65) = (   0.2500000   0.2500000   0.0000000), wk =   0.0069444
        k(   66) = (   0.2500000   0.2500000   0.1666667), wk =   0.0138889
        k(   67) = (   0.2500000   0.2500000   0.3333333), wk =   0.0138889
        k(   68) = (   0.2500000   0.2500000  -0.5000000), wk =   0.0069444
        k(   69) = (   0.2500000   0.3333333   0.0000000), wk =   0.0138889
        k(   70) = (   0.2500000   0.3333333   0.1666667), wk =   0.0277778
        k(   71) = (   0.2500000   0.3333333   0.3333333), wk =   0.0277778
        k(   72) = (   0.2500000   0.3333333  -0.5000000), wk =   0.0138889
        k(   73) = (   0.3333333   0.3333333   0.0000000), wk =   0.0023148
        k(   74) = (   0.3333333   0.3333333   0.1666667), wk =   0.0046296
        k(   75) = (   0.3333333   0.3333333   0.3333333), wk =   0.0046296
        k(   76) = (   0.3333333   0.3333333  -0.5000000), wk =   0.0023148

     Dense  grid:    24153 G-vectors     FFT dimensions: (  36,  36,  54)

     Smooth grid:    23367 G-vectors     FFT dimensions: (  32,  32,  54)

     Dynamical RAM for                 wfc:       0.05 MB

     Dynamical RAM for     wfc (w. buffer):       7.16 MB

     Dynamical RAM for           str. fact:       0.02 MB

     Dynamical RAM for           local pot:       0.00 MB

     Dynamical RAM for          nlocal pot:       0.08 MB

     Dynamical RAM for                qrad:       1.70 MB

     Dynamical RAM for          rho,v,vnew:       0.29 MB

     Dynamical RAM for               rhoin:       0.10 MB

     Dynamical RAM for            rho*nmix:       0.59 MB

     Dynamical RAM for           G-vectors:       0.08 MB

     Dynamical RAM for          h,s,v(r/c):       0.08 MB

     Dynamical RAM for          <psi|beta>:       0.01 MB

     Dynamical RAM for                 psi:       0.09 MB

     Dynamical RAM for                hpsi:       0.09 MB

     Dynamical RAM for                spsi:       0.09 MB

     Dynamical RAM for      wfcinit/wfcrot:       0.10 MB

     Dynamical RAM for           addusdens:       3.48 MB

     Estimated static dynamical RAM per process >       9.64 MB

     Estimated max dynamical RAM per process >      13.71 MB

     Estimated total dynamical RAM >     274.20 MB

     Check: negative core charge=   -0.000043
     Generating pointlists ...
     new r_m :   0.4109 (alat units)  1.9490 (a.u.) for type    1

     The initial density is read from file :
     ./out/Co.save/charge-density


     starting charge      34.0418, renormalised to      34.0000
     Starting wfcs from file
     Checking if some PAW data can be deallocated... 

     total cpu time spent up to now is        0.6 secs

     Self-consistent Calculation

     iteration #  1     ecut=   110.00 Ry     beta= 0.70
     Davidson diagonalization with overlap

---- Real-time Memory Report at c_bands before calling an iterative solver
            54 MiB given to the printing process from OS
             0 MiB allocation reported by mallinfo(arena+hblkhd)
        351457 MiB available memory on the node where the printing process lives
------------------
     ethr =  1.00E-05,  avg # of iterations =  4.9

     total cpu time spent up to now is        2.8 secs

     total energy              =    -753.44553499 Ry
     estimated scf accuracy    <       0.00585637 Ry

     total magnetization       =     3.35 Bohr mag/cell
     absolute magnetization    =     3.66 Bohr mag/cell

     iteration #  2     ecut=   110.00 Ry     beta= 0.70
     Davidson diagonalization with overlap

---- Real-time Memory Report at c_bands before calling an iterative solver
            76 MiB given to the printing process from OS
             0 MiB allocation reported by mallinfo(arena+hblkhd)
        351220 MiB available memory on the node where the printing process lives
------------------
     ethr =  1.72E-05,  avg # of iterations =  5.6

     total cpu time spent up to now is        5.1 secs

     total energy              =    -753.44859588 Ry
     estimated scf accuracy    <       0.03206367 Ry

     total magnetization       =     3.39 Bohr mag/cell
     absolute magnetization    =     3.72 Bohr mag/cell

     iteration #  3     ecut=   110.00 Ry     beta= 0.70
     Davidson diagonalization with overlap

---- Real-time Memory Report at c_bands before calling an iterative solver
            78 MiB given to the printing process from OS
             0 MiB allocation reported by mallinfo(arena+hblkhd)
        351207 MiB available memory on the node where the printing process lives
------------------
     ethr =  1.72E-05,  avg # of iterations =  4.1

     total cpu time spent up to now is        7.0 secs

     total energy              =    -753.45410946 Ry
     estimated scf accuracy    <       0.00092427 Ry

     total magnetization       =     3.36 Bohr mag/cell
     absolute magnetization    =     3.69 Bohr mag/cell

     iteration #  4     ecut=   110.00 Ry     beta= 0.70
     Davidson diagonalization with overlap

---- Real-time Memory Report at c_bands before calling an iterative solver
            79 MiB given to the printing process from OS
             0 MiB allocation reported by mallinfo(arena+hblkhd)
        351199 MiB available memory on the node where the printing process lives
------------------
     ethr =  2.72E-06,  avg # of iterations =  2.9

     total cpu time spent up to now is        8.5 secs

     total energy              =    -753.45438623 Ry
     estimated scf accuracy    <       0.00000864 Ry

     total magnetization       =     3.36 Bohr mag/cell
     absolute magnetization    =     3.69 Bohr mag/cell

     iteration #  5     ecut=   110.00 Ry     beta= 0.70
     Davidson diagonalization with overlap

---- Real-time Memory Report at c_bands before calling an iterative solver
            81 MiB given to the printing process from OS
             0 MiB allocation reported by mallinfo(arena+hblkhd)
        351188 MiB available memory on the node where the printing process lives
------------------
     ethr =  2.54E-08,  avg # of iterations = 10.1

     total cpu time spent up to now is       11.8 secs

     total energy              =    -753.45443877 Ry
     estimated scf accuracy    <       0.00005653 Ry

     total magnetization       =     3.36 Bohr mag/cell
     absolute magnetization    =     3.69 Bohr mag/cell

     iteration #  6     ecut=   110.00 Ry     beta= 0.70
     Davidson diagonalization with overlap

---- Real-time Memory Report at c_bands before calling an iterative solver
            82 MiB given to the printing process from OS
             0 MiB allocation reported by mallinfo(arena+hblkhd)
        351180 MiB available memory on the node where the printing process lives
------------------
     ethr =  2.54E-08,  avg # of iterations =  5.3

     total cpu time spent up to now is       14.1 secs

     total energy              =    -753.45445273 Ry
     estimated scf accuracy    <       0.00000660 Ry

     total magnetization       =     3.36 Bohr mag/cell
     absolute magnetization    =     3.70 Bohr mag/cell

     iteration #  7     ecut=   110.00 Ry     beta= 0.70
     Davidson diagonalization with overlap

---- Real-time Memory Report at c_bands before calling an iterative solver
            83 MiB given to the printing process from OS
             0 MiB allocation reported by mallinfo(arena+hblkhd)
        351172 MiB available memory on the node where the printing process lives
------------------
     ethr =  1.94E-08,  avg # of iterations =  2.2
 
     Magnetic moment per site  (integrated on atomic sphere of radius R)
     atom   1 (R=0.411)  charge= 15.6125  magn=  1.7571
     atom   2 (R=0.411)  charge= 15.6125  magn=  1.7571

     total cpu time spent up to now is       15.4 secs

     End of self-consistent calculation

 ------ SPIN UP ------------


          k = 0.0000 0.0000 0.0000 (  2875 PWs)   bands (ev):

   -77.9846 -77.9348 -41.3747 -41.1020 -41.1020 -41.0781 -41.0591 -41.0591
     9.2872  13.0535  15.5002  15.5505  15.5505  15.8472  15.8472  16.1806
    16.1806  17.2325  17.2325  17.8801  24.1645

     occupation numbers 
     1.0000   1.0000   1.0000   1.0000   1.0000   1.0000   1.0000   1.0000
     1.0000   1.0000   1.0000   1.0000   1.0000   1.0000   1.0000   1.0000
     1.0000   1.0000   1.0000   1.0000   0.0000

          k = 0.0000 0.0000 0.1027 (  2918 PWs)   bands (ev):

   -77.9813 -77.9382 -41.3551 -41.0992 -41.0992 -41.0982 -41.0620 -41.0620
     9.5580  12.9799  15.4330  15.4890  15.4890  15.7774  15.7774  16.3356
    16.3356  16.9315  17.2162  17.2162  25.6762

     occupation numbers 
     1.0000   1.0000   1.0000   1.0000   1.0000   1.0000   1.0000   1.0000
     1.0000   1.0000   1.0000   1.0000   1.0000   1.0000   1.0000   1.0000
     1.0000   1.0000   1.0000   1.0000   0.0000

          k = 0.0000 0.0000 0.2053 (  2906 PWs)   bands (ev):

   -77.9722 -77.9473 -41.3013 -41.1530 -41.0913 -41.0913 -41.0699 -41.0699
    10.3355  12.5324  15.2780  15.4367  15.4367  15.6233  15.6233  15.6407
    16.6416  16.6416  17.1312  17.1312  28.8542

     occupation numbers 
     1.0000   1.0000   1.0000   1.0000   1.0000   1.0000   1.0000   1.0000
     1.0000   1.0000   1.0000   1.0000   1.0000   1.0000   1.0000   1.0000
     1.0000   1.0000   1.0000   1.0000   0.0000

          k = 0.0000 0.0000-0.3080 (  2918 PWs)   bands (ev):

   -77.9597 -77.9597 -41.2274 -41.2274 -41.0806 -41.0806 -41.0806 -41.0806
    11.4730  11.4730  15.2046  15.2046  15.4860  15.4860  15.4860  15.4860
    16.9341  16.9341  16.9341  16.9341  32.6465

     occupation numbers 
     1.0000   1.0000   1.0000   1.0000   1.0000   1.0000   1.0000   1.0000
     1.0000   1.0000   1.0000   1.0000   1.0000   1.0000   1.0000   1.0000
     1.0000   1.0000   1.0000   1.0000   0.0000

          k = 0.0000 0.0962 0.0000 (  2895 PWs)   bands (ev):

   -77.9818 -77.9335 -41.3682 -41.1165 -41.1068 -41.0807 -41.0741 -41.0616
     9.5251  13.1961  15.3142  15.6605  15.7021  15.8006  15.9447  16.0294
    16.1125  16.4700  17.2609  18.9578  24.2062

     occupation numbers 
     1.0000   1.0000   1.0000   1.0000   1.0000   1.0000   1.0000   1.0000
     1.0000   1.0000   1.0000   1.0000   1.0000   1.0000   1.0000   1.0000
     1.0000   1.0000   1.0000   0.0000   0.0000

          k = 0.0000 0.0962 0.1027 (  2912 PWs)   bands (ev):

   -77.9785 -77.9367 -41.3497 -41.1132 -41.1044 -41.1037 -41.0727 -41.0646
     9.7918  13.1370  15.3127  15.5356  15.5829  15.6279  15.8692  16.1527
    16.2934  16.3745  17.2376  18.1799  25.7868

     occupation numbers 
     1.0000   1.0000   1.0000   1.0000   1.0000   1.0000   1.0000   1.0000
     1.0000   1.0000   1.0000   1.0000   1.0000   1.0000   1.0000   1.0000
     1.0000   1.0000   1.0000   0.0000   0.0000

          k = 0.0000 0.0962 0.2053 (  2906 PWs)   bands (ev):

   -77.9697 -77.9456 -41.2989 -41.1581 -41.1040 -41.0955 -41.0799 -41.0729
    10.5574  12.7177  15.2080  15.2596  15.3624  15.5239  15.7138  15.7742
    16.6174  16.6605  17.1369  17.4226  29.0079

     occupation numbers 
     1.0000   1.0000   1.0000   1.0000   1.0000   1.0000   1.0000   1.0000
     1.0000   1.0000   1.0000   1.0000   1.0000   1.0000   1.0000   1.0000
     1.0000   1.0000   1.0000   1.0000   0.0000

          k = 0.0000 0.0962-0.3080 (  2902 PWs)   bands (ev):

   -77.9576 -77.9576 -41.2289 -41.2289 -41.0918 -41.0918 -41.0842 -41.0842
    11.6768  11.6768  15.0660  15.0660  15.4974  15.4974  15.5746  15.5746
    16.9236  16.9236  17.0227  17.0227  32.8137

     occupation numbers 
     1.0000   1.0000   1.0000   1.0000   1.0000   1.0000   1.0000   1.0000
     1.0000   1.0000   1.0000   1.0000   1.0000   1.0000   1.0000   1.0000
     1.0000   1.0000   1.0000   1.0000   0.0000

          k = 0.0000 0.1925 0.0000 (  2894 PWs)   bands (ev):

   -77.9738 -77.9299 -41.3499 -41.1560 -41.1193 -41.1146 -41.0888 -41.0686
    10.2138  13.5494  15.0564  15.3228  15.6287  15.9446  15.9710  15.9941
    16.1260  16.2181  17.3211  20.5101  24.3527

     occupation numbers 
     1.0000   1.0000   1.0000   1.0000   1.0000   1.0000   1.0000   1.0000
     1.0000   1.0000   1.0000   1.0000   1.0000   1.0000   1.0000   1.0000
     1.0000   1.0000   1.0000   0.0000   0.0000

          k = 0.0000 0.1925 0.1027 (  2903 PWs)   bands (ev):

   -77.9709 -77.9329 -41.3349 -41.1514 -41.1327 -41.1159 -41.0906 -41.0720
    10.4654  13.5345  15.0594  15.0955  15.5131  15.7843  15.8855  16.1073
    16.2768  16.3613  17.2825  19.3793  26.1458

     occupation numbers 
     1.0000   1.0000   1.0000   1.0000   1.0000   1.0000   1.0000   1.0000
     1.0000   1.0000   1.0000   1.0000   1.0000   1.0000   1.0000   1.0000
     1.0000   1.0000   1.0000   0.0000   0.0000

          k = 0.0000 0.1925 0.2053 (  2923 PWs)   bands (ev):

   -77.9629 -77.9409 -41.2937 -41.1789 -41.1365 -41.1066 -41.1011 -41.0813
    11.1839  13.1986  14.7318  15.1489  15.2438  15.7147  15.7365  15.9645
    16.5929  16.7452  17.1493  18.0504  29.4674

     occupation numbers 
     1.0000   1.0000   1.0000   1.0000   1.0000   1.0000   1.0000   1.0000
     1.0000   1.0000   1.0000   1.0000   1.0000   1.0000   1.0000   1.0000
     1.0000   1.0000   1.0000   1.0000   0.0000

          k = 0.0000 0.1925-0.3080 (  2912 PWs)   bands (ev):

   -77.9519 -77.9519 -41.2369 -41.2369 -41.1184 -41.1184 -41.0940 -41.0940
    12.2272  12.2272  14.8453  14.8453  15.4411  15.4411  15.8108  15.8108
    16.9089  16.9089  17.2615  17.2615  33.2706

     occupation numbers 
     1.0000   1.0000   1.0000   1.0000   1.0000   1.0000   1.0000   1.0000
     1.0000   1.0000   1.0000   1.0000   1.0000   1.0000   1.0000   1.0000
     1.0000   1.0000   1.0000   1.0000   0.0000

          k = 0.0000 0.2887 0.0000 (  2924 PWs)   bands (ev):

   -77.9625 -77.9255 -41.3223 -41.2104 -41.1691 -41.1360 -41.1022 -41.0785
    11.2589  13.8357  14.6249  14.8989  15.5332  15.7424  15.9313  16.4086
    16.4211  16.6107  17.3776  22.2648  24.6381

     occupation numbers 
     1.0000   1.0000   1.0000   1.0000   1.0000   1.0000   1.0000   1.0000
     1.0000   1.0000   1.0000   1.0000   1.0000   1.0000   1.0000   1.0000
     1.0000   1.0000   1.0000   0.0000   0.0000

          k = 0.0000 0.2887 0.1027 (  2918 PWs)   bands (ev):

   -77.9601 -77.9280 -41.3153 -41.2019 -41.1822 -41.1322 -41.1047 -41.0823
    11.4696  13.8740  14.4864  14.9480  15.3879  15.7798  15.9349  16.4619
    16.5257  16.5679  17.3256  20.6308  26.7891

     occupation numbers 
     1.0000   1.0000   1.0000   1.0000   1.0000   1.0000   1.0000   1.0000
     1.0000   1.0000   1.0000   1.0000   1.0000   1.0000   1.0000   1.0000
     1.0000   1.0000   1.0000   0.0000   0.0000

          k = 0.0000 0.2887 0.2053 (  2916 PWs)   bands (ev):

   -77.9533 -77.9348 -41.2940 -41.2210 -41.1721 -41.1217 -41.1173 -41.0929
    12.0569  13.6312  14.4116  14.9749  15.2662  15.7834  15.8978  16.3175
    16.7120  16.8996  17.1747  18.8070  30.1078

     occupation numbers 
     1.0000   1.0000   1.0000   1.0000   1.0000   1.0000   1.0000   1.0000
     1.0000   1.0000   1.0000   1.0000   1.0000   1.0000   1.0000   1.0000
     1.0000   1.0000   1.0000   0.0000   0.0000

          k = 0.0000 0.2887-0.3080 (  2940 PWs)   bands (ev):

   -77.9440 -77.9440 -41.2603 -41.2603 -41.1421 -41.1421 -41.1073 -41.1073
    12.8713  12.8713  14.6963  14.6963  15.4988  15.4988  16.0912  16.0912
    16.9516  16.9516  17.5979  17.5979  32.2417

     occupation numbers 
     1.0000   1.0000   1.0000   1.0000   1.0000   1.0000   1.0000   1.0000
     1.0000   1.0000   1.0000   1.0000   1.0000   1.0000   1.0000   1.0000
     1.0000   1.0000   1.0000   1.0000   0.0000

          k = 0.0000 0.3849 0.0000 (  2914 PWs)   bands (ev):

   -77.9505 -77.9219 -41.2901 -41.2653 -41.2225 -41.1523 -41.1202 -41.0887
    12.4080  13.7748  14.1215  15.0032  15.5600  15.6503  15.7562  16.9005
    17.0361  17.0739  17.4159  24.1825  24.7438

     occupation numbers 
     1.0000   1.0000   1.0000   1.0000   1.0000   1.0000   1.0000   1.0000
     1.0000   1.0000   1.0000   1.0000   1.0000   1.0000   1.0000   1.0000
     1.0000   1.0000   1.0000   0.0000   0.0000

          k = 0.0000 0.3849 0.1027 (  2916 PWs)   bands (ev):

   -77.9486 -77.9238 -41.3059 -41.2449 -41.2273 -41.1481 -41.1201 -41.0930
    12.5095  13.8029  14.1528  14.8623  15.5775  15.6486  16.0922  16.9171
    16.9475  17.0116  17.3675  21.8557  26.8774

     occupation numbers 
     1.0000   1.0000   1.0000   1.0000   1.0000   1.0000   1.0000   1.0000
     1.0000   1.0000   1.0000   1.0000   1.0000   1.0000   1.0000   1.0000
     1.0000   1.0000   1.0000   0.0000   0.0000

          k = 0.0000 0.3849 0.2053 (  2931 PWs)   bands (ev):

   -77.9433 -77.9290 -41.3114 -41.2697 -41.1891 -41.1365 -41.1279 -41.1047
    12.7912  13.6214  14.2902  14.7787  15.6786  15.8983  16.3927  16.6425
    17.0174  17.1213  17.2598  19.6870  27.9604

     occupation numbers 
     1.0000   1.0000   1.0000   1.0000   1.0000   1.0000   1.0000   1.0000
     1.0000   1.0000   1.0000   1.0000   1.0000   1.0000   1.0000   1.0000
     1.0000   1.0000   1.0000   0.0000   0.0000

          k = 0.0000 0.3849-0.3080 (  2922 PWs)   bands (ev):

   -77.9362 -77.9362 -41.2975 -41.2975 -41.1516 -41.1516 -41.1206 -41.1206
    13.1966  13.1966  14.5720  14.5720  16.0804  16.0804  16.2590  16.2590
    17.1345  17.1345  18.0737  18.0737  29.0637

     occupation numbers 
     1.0000   1.0000   1.0000   1.0000   1.0000   1.0000   1.0000   1.0000
     1.0000   1.0000   1.0000   1.0000   1.0000   1.0000   1.0000   1.0000
     1.0000   1.0000   1.0000   1.0000   0.0000

          k = 0.0000 0.4811 0.0000 (  2934 PWs)   bands (ev):

   -77.9406 -77.9202 -41.3057 -41.2612 -41.2602 -41.1641 -41.1397 -41.0964
    13.1762  13.5928  13.8215  15.3487  15.4354  15.6321  15.8480  17.2588
    17.3877  17.4362  18.1603  22.9674  26.1673

     occupation numbers 
     1.0000   1.0000   1.0000   1.0000   1.0000   1.0000   1.0000   1.0000
     1.0000   1.0000   1.0000   1.0000   1.0000   1.0000   1.0000   1.0000
     1.0000   1.0000   0.0002   0.0000   0.0000

          k = 0.0000 0.4811 0.1027 (  2921 PWs)   bands (ev):

   -77.9392 -77.9216 -41.3234 -41.2772 -41.2301 -41.1596 -41.1359 -41.1009
    13.0758  13.5899  14.1179  14.7585  15.5435  15.8505  16.4389  17.1903
    17.2899  17.4492  18.0085  22.2050  25.4668

     occupation numbers 
     1.0000   1.0000   1.0000   1.0000   1.0000   1.0000   1.0000   1.0000
     1.0000   1.0000   1.0000   1.0000   1.0000   1.0000   1.0000   1.0000
     1.0000   1.0000   1.0000   0.0000   0.0000

          k = 0.0000 0.4811 0.2053 (  2934 PWs)   bands (ev):

   -77.9355 -77.9253 -41.3367 -41.3064 -41.1871 -41.1472 -41.1363 -41.1134
    13.0498  13.5156  14.2760  14.5892  15.8500  16.0937  16.7940  17.3203
    17.3542  17.4202  17.7258  20.5247  25.5989

     occupation numbers 
     1.0000   1.0000   1.0000   1.0000   1.0000   1.0000   1.0000   1.0000
     1.0000   1.0000   1.0000   1.0000   1.0000   1.0000   1.0000   1.0000
     1.0000   1.0000   1.0000   0.0000   0.0000

          k = 0.0000 0.4811-0.3080 (  2924 PWs)   bands (ev):

   -77.9304 -77.9304 -41.3301 -41.3301 -41.1531 -41.1531 -41.1303 -41.1303
    13.2308  13.2308  14.4541  14.4541  16.2998  16.2998  16.7793  16.7793
    17.3709  17.3709  18.9085  18.9085  26.3719

     occupation numbers 
     1.0000   1.0000   1.0000   1.0000   1.0000   1.0000   1.0000   1.0000
     1.0000   1.0000   1.0000   1.0000   1.0000   1.0000   1.0000   1.0000
     1.0000   1.0000   0.0000   0.0000   0.0000

          k = 0.0000-0.5774 0.0000 (  2938 PWs)   bands (ev):

   -77.9365 -77.9202 -41.3206 -41.2752 -41.2463 -41.1684 -41.1498 -41.0992
    13.4418  13.4512  13.7220  15.3913  15.5873  15.5911  15.9205  17.3883
    17.4423  17.5299  19.3037  21.2593  27.4571

     occupation numbers 
     1.0000   1.0000   1.0000   1.0000   1.0000   1.0000   1.0000   1.0000
     1.0000   1.0000   1.0000   1.0000   1.0000   1.0000   1.0000   1.0000
     1.0000   1.0000   0.0000   0.0000   0.0000

          k = 0.0000-0.5774 0.1027 (  2930 PWs)   bands (ev):

   -77.9354 -77.9212 -41.3345 -41.2904 -41.2227 -41.1637 -41.1441 -41.1039
    13.1808  13.4982  14.1516  14.7307  15.5050  15.9339  16.6341  17.2451
    17.4284  17.5225  19.1101  21.0933  26.5818

     occupation numbers 
     1.0000   1.0000   1.0000   1.0000   1.0000   1.0000   1.0000   1.0000
     1.0000   1.0000   1.0000   1.0000   1.0000   1.0000   1.0000   1.0000
     1.0000   1.0000   0.0000   0.0000   0.0000

          k = 0.0000-0.5774 0.2053 (  2922 PWs)   bands (ev):

   -77.9324 -77.9242 -41.3477 -41.3199 -41.1834 -41.1511 -41.1404 -41.1166
    13.0737  13.4740  14.3010  14.5017  15.8279  16.2314  16.8255  17.4465
    17.4674  17.5022  18.8249  20.5273  25.5412

     occupation numbers 
     1.0000   1.0000   1.0000   1.0000   1.0000   1.0000   1.0000   1.0000
     1.0000   1.0000   1.0000   1.0000   1.0000   1.0000   1.0000   1.0000
     1.0000   1.0000   0.0000   0.0000   0.0000

          k = 0.0000-0.5774-0.3080 (  2920 PWs)   bands (ev):

   -77.9283 -77.9283 -41.3426 -41.3426 -41.1530 -41.1530 -41.1338 -41.1338
    13.2170  13.2170  14.4079  14.4079  16.3026  16.3026  17.0093  17.0093
    17.4744  17.4744  19.5695  19.5695  25.1186

     occupation numbers 
     1.0000   1.0000   1.0000   1.0000   1.0000   1.0000   1.0000   1.0000
     1.0000   1.0000   1.0000   1.0000   1.0000   1.0000   1.0000   1.0000
     1.0000   1.0000   0.0000   0.0000   0.0000

          k = 0.0833 0.1443 0.0000 (  2892 PWs)   bands (ev):

   -77.9764 -77.9310 -41.3558 -41.1410 -41.1215 -41.0963 -41.0861 -41.0682
     9.9892  13.4496  15.1114  15.5606  15.6984  15.8490  15.8850  15.9148
    16.1590  16.2443  17.2955  20.0746  24.3022

     occupation numbers 
     1.0000   1.0000   1.0000   1.0000   1.0000   1.0000   1.0000   1.0000
     1.0000   1.0000   1.0000   1.0000   1.0000   1.0000   1.0000   1.0000
     1.0000   1.0000   1.0000   0.0000   0.0000

          k = 0.0833 0.1443 0.1027 (  2896 PWs)   bands (ev):

   -77.9733 -77.9341 -41.3396 -41.1367 -41.1262 -41.1109 -41.0844 -41.0714
    10.2465  13.4204  15.1369  15.2398  15.5557  15.7436  15.8637  16.0261
    16.2963  16.3518  17.2644  19.0537  26.0235

     occupation numbers 
     1.0000   1.0000   1.0000   1.0000   1.0000   1.0000   1.0000   1.0000
     1.0000   1.0000   1.0000   1.0000   1.0000   1.0000   1.0000   1.0000
     1.0000   1.0000   1.0000   0.0000   0.0000

          k = 0.0833 0.1443 0.2053 (  2918 PWs)   bands (ev):

   -77.9650 -77.9424 -41.2950 -41.1710 -41.1251 -41.1073 -41.0914 -41.0802
    10.9832  13.0571  14.8508  15.1943  15.2548  15.6712  15.7307  15.8868
    16.6208  16.6928  17.1484  17.8684  29.3172

     occupation numbers 
     1.0000   1.0000   1.0000   1.0000   1.0000   1.0000   1.0000   1.0000
     1.0000   1.0000   1.0000   1.0000   1.0000   1.0000   1.0000   1.0000
     1.0000   1.0000   1.0000   1.0000   0.0000

          k = 0.0833 0.1443-0.3080 (  2910 PWs)   bands (ev):

   -77.9537 -77.9537 -41.2335 -41.2335 -41.1104 -41.1104 -41.0913 -41.0913
    12.0573  12.0573  14.9014  14.9014  15.4420  15.4420  15.7488  15.7488
    16.9139  16.9139  17.1869  17.1869  33.1360

     occupation numbers 
     1.0000   1.0000   1.0000   1.0000   1.0000   1.0000   1.0000   1.0000
     1.0000   1.0000   1.0000   1.0000   1.0000   1.0000   1.0000   1.0000
     1.0000   1.0000   1.0000   1.0000   0.0000

          k = 0.0833 0.2406 0.0000 (  2908 PWs)   bands (ev):

   -77.9667 -77.9271 -41.3328 -41.1845 -41.1582 -41.1222 -41.0969 -41.0794
    10.8642  13.8126  14.8523  14.8808  15.5771  15.6977  16.0966  16.0982
    16.2941  16.5610  17.3377  21.6311  24.5384

     occupation numbers 
     1.0000   1.0000   1.0000   1.0000   1.0000   1.0000   1.0000   1.0000
     1.0000   1.0000   1.0000   1.0000   1.0000   1.0000   1.0000   1.0000
     1.0000   1.0000   1.0000   0.0000   0.0000

          k = 0.0833 0.2406 0.1027 (  2914 PWs)   bands (ev):

   -77.9641 -77.9297 -41.3220 -41.1785 -41.1669 -41.1269 -41.0973 -41.0828
    11.0954  13.8417  14.6774  14.8998  15.4612  15.7177  15.9205  16.2223
    16.4768  16.5412  17.3017  20.1989  26.5455

     occupation numbers 
     1.0000   1.0000   1.0000   1.0000   1.0000   1.0000   1.0000   1.0000
     1.0000   1.0000   1.0000   1.0000   1.0000   1.0000   1.0000   1.0000
     1.0000   1.0000   1.0000   0.0000   0.0000

          k = 0.0833 0.2406 0.2053 (  2927 PWs)   bands (ev):

   -77.9568 -77.9370 -41.2918 -41.2032 -41.1575 -41.1257 -41.1046 -41.0921
    11.7493  13.5683  14.4921  15.0008  15.2062  15.6146  15.8767  16.1936
    16.7089  16.8167  17.1866  18.5435  29.9213

     occupation numbers 
     1.0000   1.0000   1.0000   1.0000   1.0000   1.0000   1.0000   1.0000
     1.0000   1.0000   1.0000   1.0000   1.0000   1.0000   1.0000   1.0000
     1.0000   1.0000   1.0000   0.0000   0.0000

          k = 0.0833 0.2406-0.3080 (  2928 PWs)   bands (ev):

   -77.9469 -77.9469 -41.2487 -41.2487 -41.1352 -41.1352 -41.1037 -41.1037
    12.6828  12.6828  14.7510  14.7510  15.3413  15.3413  16.0177  16.0177
    16.9578  16.9578  17.4771  17.4771  33.5109

     occupation numbers 
     1.0000   1.0000   1.0000   1.0000   1.0000   1.0000   1.0000   1.0000
     1.0000   1.0000   1.0000   1.0000   1.0000   1.0000   1.0000   1.0000
     1.0000   1.0000   1.0000   1.0000   0.0000

          k = 0.0833 0.3368 0.0000 (  2915 PWs)   bands (ev):

   -77.9550 -77.9231 -41.3027 -41.2378 -41.2042 -41.1459 -41.1128 -41.0916
    11.9966  13.9354  14.3289  14.7853  15.5162  15.5826  15.9067  16.4899
    16.7791  17.1072  17.3729  23.4304  24.9036

     occupation numbers 
     1.0000   1.0000   1.0000   1.0000   1.0000   1.0000   1.0000   1.0000
     1.0000   1.0000   1.0000   1.0000   1.0000   1.0000   1.0000   1.0000
     1.0000   1.0000   1.0000   0.0000   0.0000

          k = 0.0833 0.3368 0.1027 (  2916 PWs)   bands (ev):

   -77.9529 -77.9252 -41.3048 -41.2271 -41.2098 -41.1461 -41.1126 -41.0948
    12.1601  13.9959  14.2393  14.8305  15.3780  15.7359  15.8846  16.5148
    16.8636  16.9734  17.3836  21.4405  27.2893

     occupation numbers 
     1.0000   1.0000   1.0000   1.0000   1.0000   1.0000   1.0000   1.0000
     1.0000   1.0000   1.0000   1.0000   1.0000   1.0000   1.0000   1.0000
     1.0000   1.0000   1.0000   0.0000   0.0000

          k = 0.0833 0.3368 0.2053 (  2922 PWs)   bands (ev):

   -77.9471 -77.9311 -41.2995 -41.2486 -41.1831 -41.1414 -41.1189 -41.1039
    12.6023  13.7538  14.3447  14.8974  15.2969  15.7563  15.9430  16.5078
    16.9271  17.0849  17.3548  19.3869  29.5860

     occupation numbers 
     1.0000   1.0000   1.0000   1.0000   1.0000   1.0000   1.0000   1.0000
     1.0000   1.0000   1.0000   1.0000   1.0000   1.0000   1.0000   1.0000
     1.0000   1.0000   1.0000   0.0000   0.0000

          k = 0.0833 0.3368-0.3080 (  2926 PWs)   bands (ev):

   -77.9391 -77.9391 -41.2791 -41.2791 -41.1517 -41.1517 -41.1170 -41.1170
    13.1914  13.1914  14.6724  14.6724  15.5099  15.5099  16.2024  16.2024
    17.1527  17.1527  17.9280  17.9280  30.7623

     occupation numbers 
     1.0000   1.0000   1.0000   1.0000   1.0000   1.0000   1.0000   1.0000
     1.0000   1.0000   1.0000   1.0000   1.0000   1.0000   1.0000   1.0000
     1.0000   1.0000   1.0000   1.0000   0.0000

          k = 0.0833 0.4330 0.0000 (  2924 PWs)   bands (ev):

   -77.9439 -77.9206 -41.2851 -41.2707 -41.2445 -41.1647 -41.1325 -41.1021
    13.0043  13.7684  13.9568  15.0046  15.4006  15.7148  15.7679  16.9848
    17.1922  17.3944  17.8808  24.2799  25.3902

     occupation numbers 
     1.0000   1.0000   1.0000   1.0000   1.0000   1.0000   1.0000   1.0000
     1.0000   1.0000   1.0000   1.0000   1.0000   1.0000   1.0000   1.0000
     1.0000   1.0000   1.0000   0.0000   0.0000

          k = 0.0833 0.4330 0.1027 (  2928 PWs)   bands (ev):

   -77.9423 -77.9222 -41.3092 -41.2627 -41.2307 -41.1619 -41.1299 -41.1051
    13.0035  13.7894  14.0998  14.7698  15.4765  15.7911  16.0517  16.9352
    17.2225  17.2499  17.8803  22.5146  26.0000

     occupation numbers 
     1.0000   1.0000   1.0000   1.0000   1.0000   1.0000   1.0000   1.0000
     1.0000   1.0000   1.0000   1.0000   1.0000   1.0000   1.0000   1.0000
     1.0000   1.0000   1.0000   0.0000   0.0000

          k = 0.0833 0.4330 0.2053 (  2917 PWs)   bands (ev):

   -77.9381 -77.9264 -41.3215 -41.2895 -41.1903 -41.1523 -41.1329 -41.1130
    13.0920  13.6589  14.2810  14.7377  15.5816  15.9926  16.4279  16.6876
    17.1019  17.3998  17.9483  20.4037  26.7010

     occupation numbers 
     1.0000   1.0000   1.0000   1.0000   1.0000   1.0000   1.0000   1.0000
     1.0000   1.0000   1.0000   1.0000   1.0000   1.0000   1.0000   1.0000
     1.0000   1.0000   1.0000   0.0000   0.0000

          k = 0.0833 0.4330-0.3080 (  2918 PWs)   bands (ev):

   -77.9323 -77.9323 -41.3134 -41.3134 -41.1595 -41.1595 -41.1268 -41.1268
    13.3340  13.3340  14.5591  14.5591  16.0050  16.0050  16.3759  16.3759
    17.3516  17.3516  18.7665  18.7665  27.7308

     occupation numbers 
     1.0000   1.0000   1.0000   1.0000   1.0000   1.0000   1.0000   1.0000
     1.0000   1.0000   1.0000   1.0000   1.0000   1.0000   1.0000   1.0000
     1.0000   1.0000   0.0000   0.0000   0.0000

          k = 0.0833 0.5292 0.0000 (  2932 PWs)   bands (ev):

   -77.9365 -77.9201 -41.3125 -41.2678 -41.2465 -41.1750 -41.1497 -41.1081
    13.4633  13.6083  13.7713  15.3576  15.3584  15.5842  15.9183  17.3407
    17.4037  17.4122  19.1343  22.0191  27.2653

     occupation numbers 
     1.0000   1.0000   1.0000   1.0000   1.0000   1.0000   1.0000   1.0000
     1.0000   1.0000   1.0000   1.0000   1.0000   1.0000   1.0000   1.0000
     1.0000   1.0000   0.0000   0.0000   0.0000

          k = 0.0833 0.5292 0.1027 (  2925 PWs)   bands (ev):

   -77.9354 -77.9212 -41.3267 -41.2835 -41.2238 -41.1694 -41.1449 -41.1112
    13.2582  13.6248  14.1822  14.7140  15.4069  15.9741  16.3099  17.1935
    17.3634  17.4414  19.0748  21.7714  25.9942

     occupation numbers 
     1.0000   1.0000   1.0000   1.0000   1.0000   1.0000   1.0000   1.0000
     1.0000   1.0000   1.0000   1.0000   1.0000   1.0000   1.0000   1.0000
     1.0000   1.0000   0.0000   0.0000   0.0000

          k = 0.0833 0.5292 0.2053 (  2927 PWs)   bands (ev):

   -77.9324 -77.9242 -41.3401 -41.3128 -41.1895 -41.1538 -41.1448 -41.1183
    13.1736  13.5963  14.3085  14.6051  15.5746  16.2874  16.6801  16.9310
    17.3244  17.5087  19.1305  20.9464  25.2638

     occupation numbers 
     1.0000   1.0000   1.0000   1.0000   1.0000   1.0000   1.0000   1.0000
     1.0000   1.0000   1.0000   1.0000   1.0000   1.0000   1.0000   1.0000
     1.0000   1.0000   0.0000   0.0000   0.0000

          k = 0.0833 0.5292-0.3080 (  2924 PWs)   bands (ev):

   -77.9283 -77.9283 -41.3352 -41.3352 -41.1633 -41.1633 -41.1310 -41.1310
    13.3264  13.3264  14.4777  14.4777  16.1001  16.1001  16.7962  16.7962
    17.3912  17.3912  19.8531  19.8531  25.5372

     occupation numbers 
     1.0000   1.0000   1.0000   1.0000   1.0000   1.0000   1.0000   1.0000
     1.0000   1.0000   1.0000   1.0000   1.0000   1.0000   1.0000   1.0000
     1.0000   1.0000   0.0000   0.0000   0.0000

          k = 0.1667 0.2887 0.0000 (  2918 PWs)   bands (ev):

   -77.9567 -77.9236 -41.3070 -41.2163 -41.2077 -41.1386 -41.1103 -41.0989
    11.8512  14.1066  14.4387  14.5702  15.4462  15.5846  16.0001  16.2573
    16.7669  17.1289  17.3352  23.1763  24.9355

     occupation numbers 
     1.0000   1.0000   1.0000   1.0000   1.0000   1.0000   1.0000   1.0000
     1.0000   1.0000   1.0000   1.0000   1.0000   1.0000   1.0000   1.0000
     1.0000   1.0000   1.0000   0.0000   0.0000

          k = 0.1667 0.2887 0.1027 (  2924 PWs)   bands (ev):

   -77.9544 -77.9258 -41.3052 -41.2150 -41.2035 -41.1467 -41.1063 -41.1026
    12.0355  14.1982  14.2996  14.6208  15.4139  15.5946  15.8867  16.3415
    16.8785  16.9638  17.3966  21.3033  27.2756

     occupation numbers 
     1.0000   1.0000   1.0000   1.0000   1.0000   1.0000   1.0000   1.0000
     1.0000   1.0000   1.0000   1.0000   1.0000   1.0000   1.0000   1.0000
     1.0000   1.0000   1.0000   0.0000   0.0000

          k = 0.1667 0.2887 0.2053 (  2928 PWs)   bands (ev):

   -77.9484 -77.9318 -41.2944 -41.2394 -41.1753 -41.1500 -41.1114 -41.1089
    12.5406  13.8695  14.4473  14.7664  15.2420  15.4650  15.8863  16.4480
    16.9347  17.0687  17.4285  19.3101  30.5983

     occupation numbers 
     1.0000   1.0000   1.0000   1.0000   1.0000   1.0000   1.0000   1.0000
     1.0000   1.0000   1.0000   1.0000   1.0000   1.0000   1.0000   1.0000
     1.0000   1.0000   1.0000   0.0000   0.0000

          k = 0.1667 0.2887-0.3080 (  2916 PWs)   bands (ev):

   -77.9401 -77.9401 -41.2706 -41.2706 -41.1524 -41.1524 -41.1168 -41.1168
    13.2219  13.2219  14.7564  14.7564  15.1942  15.1942  16.1536  16.1536
    17.2002  17.2002  17.9081  17.9081  32.4848

     occupation numbers 
     1.0000   1.0000   1.0000   1.0000   1.0000   1.0000   1.0000   1.0000
     1.0000   1.0000   1.0000   1.0000   1.0000   1.0000   1.0000   1.0000
     1.0000   1.0000   1.0000   1.0000   0.0000

          k = 0.1667 0.3849 0.0000 (  2931 PWs)   bands (ev):

   -77.9457 -77.9209 -41.2764 -41.2582 -41.2387 -41.1640 -41.1287 -41.1178
    12.9382  14.0939  14.0954  14.5442  15.2942  15.7218  15.8125  16.5583
    17.1906  17.3295  17.9083  25.0000  25.3465

     occupation numbers 
     1.0000   1.0000   1.0000   1.0000   1.0000   1.0000   1.0000   1.0000
     1.0000   1.0000   1.0000   1.0000   1.0000   1.0000   1.0000   1.0000
     1.0000   1.0000   1.0000   0.0000   0.0000

          k = 0.1667 0.3849 0.1027 (  2923 PWs)   bands (ev):

   -77.9441 -77.9225 -41.2954 -41.2551 -41.2200 -41.1706 -41.1259 -41.1166
    13.0183  14.0272  14.1910  14.6217  15.3438  15.7076  15.7704  16.5923
    17.1269  17.2744  17.9898  22.5812  27.4388

     occupation numbers 
     1.0000   1.0000   1.0000   1.0000   1.0000   1.0000   1.0000   1.0000
     1.0000   1.0000   1.0000   1.0000   1.0000   1.0000   1.0000   1.0000
     1.0000   1.0000   1.0000   0.0000   0.0000

          k = 0.1667 0.3849 0.2053 (  2915 PWs)   bands (ev):

   -77.9395 -77.9271 -41.3055 -41.2752 -41.1869 -41.1696 -41.1313 -41.1151
    13.2348  13.8295  14.4264  14.8412  15.2669  15.5521  15.9034  16.5642
    17.0383  17.4169  18.1681  20.4136  28.3986

     occupation numbers 
     1.0000   1.0000   1.0000   1.0000   1.0000   1.0000   1.0000   1.0000
     1.0000   1.0000   1.0000   1.0000   1.0000   1.0000   1.0000   1.0000
     1.0000   1.0000   0.0000   0.0000   0.0000

          k = 0.1667 0.3849-0.3080 (  2920 PWs)   bands (ev):

   -77.9333 -77.9333 -41.2969 -41.2969 -41.1694 -41.1694 -41.1254 -41.1254
    13.5316  13.5316  14.7521  14.7521  15.3461  15.3461  16.1669  16.1669
    17.4016  17.4016  18.8505  18.8505  29.5346

     occupation numbers 
     1.0000   1.0000   1.0000   1.0000   1.0000   1.0000   1.0000   1.0000
     1.0000   1.0000   1.0000   1.0000   1.0000   1.0000   1.0000   1.0000
     1.0000   1.0000   0.0000   0.0000   0.0000

          k = 0.1667 0.4811 0.0000 (  2936 PWs)   bands (ev):

   -77.9365 -77.9201 -41.2916 -41.2541 -41.2468 -41.1877 -41.1493 -41.1305
    13.6337  13.8821  13.9016  14.8416  15.2540  15.6067  15.9159  16.9579
    17.3245  17.3976  19.0593  23.6611  26.9807

     occupation numbers 
     1.0000   1.0000   1.0000   1.0000   1.0000   1.0000   1.0000   1.0000
     1.0000   1.0000   1.0000   1.0000   1.0000   1.0000   1.0000   1.0000
     1.0000   1.0000   0.0000   0.0000   0.0000

          k = 0.1667 0.4811 0.1027 (  2934 PWs)   bands (ev):

   -77.9354 -77.9212 -41.3064 -41.2724 -41.2226 -41.1845 -41.1469 -41.1272
    13.4879  13.9604  14.1313  14.6618  15.3036  15.7421  15.9872  16.9430
    17.1403  17.4559  19.1407  23.1204  25.8023

     occupation numbers 
     1.0000   1.0000   1.0000   1.0000   1.0000   1.0000   1.0000   1.0000
     1.0000   1.0000   1.0000   1.0000   1.0000   1.0000   1.0000   1.0000
     1.0000   1.0000   0.0000   0.0000   0.0000

          k = 0.1667 0.4811 0.2053 (  2926 PWs)   bands (ev):

   -77.9324 -77.9242 -41.3210 -41.2981 -41.2019 -41.1718 -41.1460 -41.1210
    13.4510  13.8779  14.3253  14.8461  15.2040  15.8670  16.2022  16.6458
    17.1239  17.5274  19.4494  21.6254  25.8814

     occupation numbers 
     1.0000   1.0000   1.0000   1.0000   1.0000   1.0000   1.0000   1.0000
     1.0000   1.0000   1.0000   1.0000   1.0000   1.0000   1.0000   1.0000
     1.0000   1.0000   0.0000   0.0000   0.0000

          k = 0.1667 0.4811-0.3080 (  2934 PWs)   bands (ev):

   -77.9283 -77.9283 -41.3179 -41.3179 -41.1835 -41.1835 -41.1284 -41.1284
    13.6033  13.6033  14.6545  14.6545  15.5995  15.5995  16.3495  16.3495
    17.4065  17.4065  20.2448  20.2448  26.7522

     occupation numbers 
     1.0000   1.0000   1.0000   1.0000   1.0000   1.0000   1.0000   1.0000
     1.0000   1.0000   1.0000   1.0000   1.0000   1.0000   1.0000   1.0000
     1.0000   1.0000   0.0000   0.0000   0.0000

          k = 0.1667 0.5774 0.0000 (  2942 PWs)   bands (ev):

   -77.9325 -77.9205 -41.3038 -41.2588 -41.2318 -41.1976 -41.1610 -41.1351
    13.8065  13.8080  13.8113  15.0558  15.2751  15.4960  15.9990  17.2293
    17.3224  17.3719  20.3138  21.8305  28.2021

     occupation numbers 
     1.0000   1.0000   1.0000   1.0000   1.0000   1.0000   1.0000   1.0000
     1.0000   1.0000   1.0000   1.0000   1.0000   1.0000   1.0000   1.0000
     1.0000   1.0000   0.0000   0.0000   0.0000

          k = 0.1667 0.5774 0.1027 (  2935 PWs)   bands (ev):

   -77.9317 -77.9213 -41.3152 -41.2755 -41.2246 -41.1813 -41.1598 -41.1315
    13.5162  13.8792  14.2923  14.6414  15.2280  15.8612  16.0751  17.1130
    17.2258  17.4207  20.4129  21.7868  27.0958

     occupation numbers 
     1.0000   1.0000   1.0000   1.0000   1.0000   1.0000   1.0000   1.0000
     1.0000   1.0000   1.0000   1.0000   1.0000   1.0000   1.0000   1.0000
     1.0000   1.0000   0.0000   0.0000   0.0000

          k = 0.1667 0.5774 0.2053 (  2926 PWs)   bands (ev):

   -77.9295 -77.9235 -41.3285 -41.3052 -41.2089 -41.1702 -41.1510 -41.1239
    13.4511  13.8917  14.3608  14.8034  15.1237  16.0611  16.3206  16.7134
    17.2409  17.4575  20.7185  21.6059  25.8157

     occupation numbers 
     1.0000   1.0000   1.0000   1.0000   1.0000   1.0000   1.0000   1.0000
     1.0000   1.0000   1.0000   1.0000   1.0000   1.0000   1.0000   1.0000
     1.0000   1.0000   0.0000   0.0000   0.0000

          k = 0.1667 0.5774-0.3080 (  2930 PWs)   bands (ev):

   -77.9265 -77.9265 -41.3258 -41.3258 -41.1890 -41.1890 -41.1289 -41.1289
    13.6077  13.6077  14.6158  14.6158  15.6364  15.6364  16.5487  16.5487
    17.3471  17.3471  21.2002  21.2002  25.3306

     occupation numbers 
     1.0000   1.0000   1.0000   1.0000   1.0000   1.0000   1.0000   1.0000
     1.0000   1.0000   1.0000   1.0000   1.0000   1.0000   1.0000   1.0000
     1.0000   1.0000   0.0000   0.0000   0.0000

          k = 0.2500 0.4330 0.0000 (  2934 PWs)   bands (ev):

   -77.9366 -77.9201 -41.2734 -41.2547 -41.2469 -41.1888 -41.1492 -41.1473
    13.7595  13.9461  14.2856  14.3317  15.1867  15.6257  15.9243  16.7316
    17.2837  17.4016  19.0666  25.3936  26.1641

     occupation numbers 
     1.0000   1.0000   1.0000   1.0000   1.0000   1.0000   1.0000   1.0000
     1.0000   1.0000   1.0000   1.0000   1.0000   1.0000   1.0000   1.0000
     1.0000   1.0000   0.0000   0.0000   0.0000

          k = 0.2500 0.4330 0.1027 (  2925 PWs)   bands (ev):

   -77.9355 -77.9212 -41.2868 -41.2775 -41.2097 -41.2018 -41.1498 -41.1346
    13.7651  13.8990  14.3424  14.4586  15.3336  15.4865  15.9195  16.7672
    17.0886  17.4629  19.1876  23.8794  26.4408

     occupation numbers 
     1.0000   1.0000   1.0000   1.0000   1.0000   1.0000   1.0000   1.0000
     1.0000   1.0000   1.0000   1.0000   1.0000   1.0000   1.0000   1.0000
     1.0000   1.0000   0.0000   0.0000   0.0000

          k = 0.2500 0.4330 0.2053 (  2930 PWs)   bands (ev):

   -77.9324 -77.9242 -41.3068 -41.2925 -41.2060 -41.1869 -41.1457 -41.1222
    13.7700  13.8445  14.4992  14.8269  15.1757  15.4434  15.9533  16.5608
    17.0931  17.5346  19.5572  21.8889  27.2077

     occupation numbers 
     1.0000   1.0000   1.0000   1.0000   1.0000   1.0000   1.0000   1.0000
     1.0000   1.0000   1.0000   1.0000   1.0000   1.0000   1.0000   1.0000
     1.0000   1.0000   0.0000   0.0000   0.0000

          k = 0.2500 0.4330-0.3080 (  2930 PWs)   bands (ev):

   -77.9283 -77.9283 -41.3072 -41.3072 -41.1951 -41.1951 -41.1276 -41.1276
    13.7979  13.7979  14.8034  14.8034  15.2380  15.2380  16.1531  16.1531
    17.4251  17.4251  20.3915  20.3915  28.2148

     occupation numbers 
     1.0000   1.0000   1.0000   1.0000   1.0000   1.0000   1.0000   1.0000
     1.0000   1.0000   1.0000   1.0000   1.0000   1.0000   1.0000   1.0000
     1.0000   1.0000   0.0000   0.0000   0.0000

          k = 0.2500 0.5292 0.0000 (  2930 PWs)   bands (ev):

   -77.9297 -77.9212 -41.2850 -41.2466 -41.2206 -41.2158 -41.1703 -41.1662
    13.8782  14.0531  14.1539  14.6334  15.2039  15.4308  16.0859  17.0004
    17.2568  17.3413  20.7005  23.2162  25.5204

     occupation numbers 
     1.0000   1.0000   1.0000   1.0000   1.0000   1.0000   1.0000   1.0000
     1.0000   1.0000   1.0000   1.0000   1.0000   1.0000   1.0000   1.0000
     1.0000   1.0000   0.0000   0.0000   0.0000

          k = 0.2500 0.5292 0.1027 (  2930 PWs)   bands (ev):

   -77.9291 -77.9218 -41.2917 -41.2684 -41.2339 -41.1905 -41.1715 -41.1483
    13.8202  14.1780  14.2717  14.5315  15.2311  15.4370  16.0935  17.0044
    17.0678  17.3837  20.8830  23.2393  25.5588

     occupation numbers 
     1.0000   1.0000   1.0000   1.0000   1.0000   1.0000   1.0000   1.0000
     1.0000   1.0000   1.0000   1.0000   1.0000   1.0000   1.0000   1.0000
     1.0000   1.0000   0.0000   0.0000   0.0000

          k = 0.2500 0.5292 0.2053 (  2934 PWs)   bands (ev):

   -77.9276 -77.9233 -41.3071 -41.2938 -41.2321 -41.1958 -41.1464 -41.1289
    13.8344  14.1738  14.4268  14.7099  15.1025  15.4602  16.1402  16.5855
    17.1618  17.4235  21.3714  22.9598  25.4655

     occupation numbers 
     1.0000   1.0000   1.0000   1.0000   1.0000   1.0000   1.0000   1.0000
     1.0000   1.0000   1.0000   1.0000   1.0000   1.0000   1.0000   1.0000
     1.0000   1.0000   0.0000   0.0000   0.0000

          k = 0.2500 0.5292-0.3080 (  2930 PWs)   bands (ev):

   -77.9254 -77.9254 -41.3095 -41.3095 -41.2149 -41.2149 -41.1275 -41.1275
    13.9657  13.9657  14.7048  14.7048  15.2439  15.2439  16.2635  16.2635
    17.3391  17.3391  22.1312  22.1312  25.9960

     occupation numbers 
     1.0000   1.0000   1.0000   1.0000   1.0000   1.0000   1.0000   1.0000
     1.0000   1.0000   1.0000   1.0000   1.0000   1.0000   1.0000   1.0000
     1.0000   1.0000   0.0000   0.0000   0.0000

          k = 0.3333 0.5774 0.0000 (  2946 PWs)   bands (ev):

   -77.9244 -77.9244 -41.2764 -41.2335 -41.2335 -41.1945 -41.1945 -41.1885
    13.8883  14.2457  14.2457  14.5226  15.2709  15.2709  16.1814  17.1418
    17.1418  17.2298  22.4345  23.2084  23.2084

     occupation numbers 
     1.0000   1.0000   1.0000   1.0000   1.0000   1.0000   1.0000   1.0000
     1.0000   1.0000   1.0000   1.0000   1.0000   1.0000   1.0000   1.0000
     1.0000   1.0000   0.0000   0.0000   0.0000

          k = 0.3333 0.5774 0.1027 (  2931 PWs)   bands (ev):

   -77.9244 -77.9244 -41.2705 -41.2605 -41.2605 -41.1944 -41.1674 -41.1674
    13.9790  14.2655  14.2655  14.5406  15.2486  15.2486  16.1552  17.0086
    17.1816  17.1816  22.8215  23.2847  23.2847

     occupation numbers 
     1.0000   1.0000   1.0000   1.0000   1.0000   1.0000   1.0000   1.0000
     1.0000   1.0000   1.0000   1.0000   1.0000   1.0000   1.0000   1.0000
     1.0000   1.0000   0.0000   0.0000   0.0000

          k = 0.3333 0.5774 0.2053 (  2943 PWs)   bands (ev):

   -77.9244 -77.9244 -41.2897 -41.2897 -41.2545 -41.2105 -41.1380 -41.1380
    14.2110  14.3031  14.3031  14.5532  15.2104  15.2104  16.1207  16.5547
    17.2575  17.2575  23.4754  23.4754  23.8179

     occupation numbers 
     1.0000   1.0000   1.0000   1.0000   1.0000   1.0000   1.0000   1.0000
     1.0000   1.0000   1.0000   1.0000   1.0000   1.0000   1.0000   1.0000
     1.0000   1.0000   0.0000   0.0000   0.0000

          k = 0.3333 0.5774-0.3080 (  2964 PWs)   bands (ev):

   -77.9244 -77.9244 -41.3006 -41.3006 -41.2325 -41.2325 -41.1270 -41.1270
    14.3207  14.3207  14.4525  14.4525  15.1946  15.1946  16.2128  16.2128
    17.2938  17.2938  23.5997  23.5997  25.1971

     occupation numbers 
     1.0000   1.0000   1.0000   1.0000   1.0000   1.0000   1.0000   1.0000
     1.0000   1.0000   1.0000   1.0000   1.0000   1.0000   1.0000   1.0000
     1.0000   1.0000   0.0000   0.0000   0.0000

 ------ SPIN DOWN ----------


          k = 0.0000 0.0000 0.0000 (  2875 PWs)   bands (ev):

   -75.8372 -75.7834 -39.2922 -39.0136 -39.0136 -38.9675 -38.9673 -38.9673
     9.2844  14.0297  17.2036  17.2622  17.2622  17.6141  17.6141  17.8160
    18.0466  18.0466  19.2223  19.2223  25.2355

     occupation numbers 
     1.0000   1.0000   1.0000   1.0000   1.0000   1.0000   1.0000   1.0000
     1.0000   1.0000   1.0000   1.0000   1.0000   1.0000   1.0000   1.0000
     1.0000   1.0000   0.0000   0.0000   0.0000

          k = 0.0000 0.0000 0.1027 (  2918 PWs)   bands (ev):

   -75.8336 -75.7871 -39.2708 -39.0105 -39.0105 -38.9896 -38.9705 -38.9705
     9.5565  13.7835  17.1146  17.1997  17.1997  17.2543  17.5343  17.5343
    18.2159  18.2159  19.2060  19.2060  26.5339

     occupation numbers 
     1.0000   1.0000   1.0000   1.0000   1.0000   1.0000   1.0000   1.0000
     1.0000   1.0000   1.0000   1.0000   1.0000   1.0000   1.0000   1.0000
     0.0000   0.0000   0.0000   0.0000   0.0000

          k = 0.0000 0.0000 0.2053 (  2906 PWs)   bands (ev):

   -75.8238 -75.7969 -39.2119 -39.0496 -39.0021 -39.0021 -38.9789 -38.9789
    10.3445  12.8754  16.6630  16.8883  17.1461  17.1461  17.3589  17.3589
    18.5590  18.5590  19.1131  19.1131  29.4701

     occupation numbers 
     1.0000   1.0000   1.0000   1.0000   1.0000   1.0000   1.0000   1.0000
     1.0000   1.0000   1.0000   1.0000   1.0000   1.0000   1.0000   1.0000
     0.0000   0.0000   0.0000   0.0000   0.0000

          k = 0.0000 0.0000-0.3080 (  2918 PWs)   bands (ev):

   -75.8104 -75.8104 -39.1311 -39.1311 -38.9905 -38.9905 -38.9905 -38.9905
    11.5432  11.5432  16.6525  16.6525  17.2032  17.2032  17.2032  17.2032
    18.8906  18.8906  18.8906  18.8906  33.0817

     occupation numbers 
     1.0000   1.0000   1.0000   1.0000   1.0000   1.0000   1.0000   1.0000
     1.0000   1.0000   1.0000   1.0000   1.0000   1.0000   1.0000   1.0000
     0.0000   0.0000   0.0000   0.0000   0.0000

          k = 0.0000 0.0962 0.0000 (  2895 PWs)   bands (ev):

   -75.8341 -75.7820 -39.2851 -39.0294 -39.0187 -38.9837 -38.9704 -38.9700
     9.5234  14.1936  16.9762  17.2373  17.3840  17.4351  17.5500  17.7222
    17.9660  17.9746  19.2566  20.0207  25.2530

     occupation numbers 
     1.0000   1.0000   1.0000   1.0000   1.0000   1.0000   1.0000   1.0000
     1.0000   1.0000   1.0000   1.0000   1.0000   1.0000   1.0000   1.0000
     1.0000   1.0000   0.0000   0.0000   0.0000

          k = 0.0000 0.0962 0.1027 (  2912 PWs)   bands (ev):

   -75.8306 -75.7855 -39.2649 -39.0258 -39.0155 -39.0014 -38.9772 -38.9733
     9.7920  13.9603  16.8285  16.9741  17.2473  17.3060  17.5593  17.6352
    18.1629  18.1765  19.2317  19.6892  26.6176

     occupation numbers 
     1.0000   1.0000   1.0000   1.0000   1.0000   1.0000   1.0000   1.0000
     1.0000   1.0000   1.0000   1.0000   1.0000   1.0000   1.0000   1.0000
     0.0001   0.0000   0.0000   0.0000   0.0000

          k = 0.0000 0.0962 0.2053 (  2906 PWs)   bands (ev):

   -75.8211 -75.7951 -39.2094 -39.0568 -39.0157 -39.0066 -38.9883 -38.9822
    10.5697  13.0684  16.4564  16.8792  17.0416  17.2440  17.3782  17.4582
    18.5278  18.5612  19.1193  19.2973  29.6074

     occupation numbers 
     1.0000   1.0000   1.0000   1.0000   1.0000   1.0000   1.0000   1.0000
     1.0000   1.0000   1.0000   1.0000   1.0000   1.0000   1.0000   1.0000
     0.0000   0.0000   0.0000   0.0000   0.0000

          k = 0.0000 0.0962-0.3080 (  2902 PWs)   bands (ev):

   -75.8081 -75.8081 -39.1333 -39.1333 -39.0021 -39.0021 -38.9944 -38.9944
    11.7525  11.7525  16.5645  16.5645  17.1657  17.1657  17.3013  17.3013
    18.8766  18.8766  18.9506  18.9506  33.2423

     occupation numbers 
     1.0000   1.0000   1.0000   1.0000   1.0000   1.0000   1.0000   1.0000
     1.0000   1.0000   1.0000   1.0000   1.0000   1.0000   1.0000   1.0000
     0.0000   0.0000   0.0000   0.0000   0.0000

          k = 0.0000 0.1925 0.0000 (  2894 PWs)   bands (ev):

   -75.8255 -75.7782 -39.2648 -39.0727 -39.0324 -39.0280 -38.9791 -38.9775
    10.2196  14.6165  16.4429  16.6367  17.3242  17.7302  17.7540  17.7684
    17.8086  18.0261  19.3284  21.4358  25.3233

     occupation numbers 
     1.0000   1.0000   1.0000   1.0000   1.0000   1.0000   1.0000   1.0000
     1.0000   1.0000   1.0000   1.0000   1.0000   1.0000   1.0000   1.0000
     1.0000   1.0000   0.0000   0.0000   0.0000

          k = 0.0000 0.1925 0.1027 (  2903 PWs)   bands (ev):

   -75.8224 -75.7814 -39.2488 -39.0673 -39.0422 -39.0288 -38.9868 -38.9812
    10.4760  14.4257  16.2008  16.6756  17.2161  17.5002  17.5481  17.8944
    18.1221  18.1710  19.2843  20.6645  26.8990

     occupation numbers 
     1.0000   1.0000   1.0000   1.0000   1.0000   1.0000   1.0000   1.0000
     1.0000   1.0000   1.0000   1.0000   1.0000   1.0000   1.0000   1.0000
     0.6549   0.0000   0.0000   0.0000   0.0000

          k = 0.0000 0.1925 0.2053 (  2923 PWs)   bands (ev):

   -75.8137 -75.7900 -39.2048 -39.0857 -39.0501 -39.0187 -39.0055 -38.9912
    11.2169  13.5890  16.0929  16.7624  16.8598  17.3182  17.4872  17.7335
    18.4885  18.6114  19.1310  19.7465  30.0218

     occupation numbers 
     1.0000   1.0000   1.0000   1.0000   1.0000   1.0000   1.0000   1.0000
     1.0000   1.0000   1.0000   1.0000   1.0000   1.0000   1.0000   1.0000
     0.0000   0.0000   0.0000   0.0000   0.0000

          k = 0.0000 0.1925-0.3080 (  2912 PWs)   bands (ev):

   -75.8019 -75.8019 -39.1447 -39.1447 -39.0284 -39.0284 -39.0050 -39.0050
    12.3398  12.3398  16.3762  16.3762  17.0493  17.0493  17.5645  17.5645
    18.8534  18.8534  19.1195  19.1195  33.6846

     occupation numbers 
     1.0000   1.0000   1.0000   1.0000   1.0000   1.0000   1.0000   1.0000
     1.0000   1.0000   1.0000   1.0000   1.0000   1.0000   1.0000   1.0000
     0.0000   0.0000   0.0000   0.0000   0.0000

          k = 0.0000 0.2887 0.0000 (  2924 PWs)   bands (ev):

   -75.8134 -75.7734 -39.2345 -39.1324 -39.0875 -39.0506 -38.9936 -38.9882
    11.3013  15.0384  15.8053  16.3299  17.1652  17.5324  17.5872  18.1838
    18.2384  18.4649  19.3949  23.0834  25.4743

     occupation numbers 
     1.0000   1.0000   1.0000   1.0000   1.0000   1.0000   1.0000   1.0000
     1.0000   1.0000   1.0000   1.0000   1.0000   1.0000   1.0000   0.0000
     0.0000   0.0000   0.0000   0.0000   0.0000

          k = 0.0000 0.2887 0.1027 (  2918 PWs)   bands (ev):

   -75.8107 -75.7761 -39.2284 -39.1216 -39.0993 -39.0465 -38.9990 -38.9924
    11.5297  14.9167  15.6895  16.3900  17.0344  17.5136  17.5663  18.2812
    18.3509  18.4286  19.3326  21.7446  27.4311

     occupation numbers 
[...]
    19.3690  19.4238  20.5140  22.9573  27.7719

     occupation numbers 
     1.0000   1.0000   1.0000   1.0000   1.0000   1.0000   1.0000   1.0000
     1.0000   1.0000   1.0000   1.0000   1.0000   1.0000   1.0000   0.0000
     0.0000   0.0000   0.0000   0.0000   0.0000

          k = 0.0833 0.5292 0.1027 (  2925 PWs)   bands (ev):

   -75.7841 -75.7688 -39.2570 -39.2107 -39.1301 -39.0861 -39.0433 -39.0222
    14.2146  14.8420  15.3695  15.8833  17.0974  17.5672  17.6129  19.1625
    19.3151  19.4071  20.3830  22.6317  26.7184

     occupation numbers 
     1.0000   1.0000   1.0000   1.0000   1.0000   1.0000   1.0000   1.0000
     1.0000   1.0000   1.0000   1.0000   1.0000   1.0000   1.0000   0.0000
     0.0000   0.0000   0.0000   0.0000   0.0000

          k = 0.0833 0.5292 0.2053 (  2927 PWs)   bands (ev):

   -75.7808 -75.7720 -39.2698 -39.2409 -39.0976 -39.0650 -39.0509 -39.0250
    14.2052  14.6772  15.6646  15.9662  17.1387  17.8749  18.0612  18.7166
    19.2679  19.4909  20.1771  21.7227  26.1758

     occupation numbers 
     1.0000   1.0000   1.0000   1.0000   1.0000   1.0000   1.0000   1.0000
     1.0000   1.0000   1.0000   1.0000   1.0000   1.0000   1.0000   0.0000
     0.0000   0.0000   0.0000   0.0000   0.0000

          k = 0.0833 0.5292-0.3080 (  2924 PWs)   bands (ev):

   -75.7764 -75.7764 -39.2644 -39.2644 -39.0721 -39.0721 -39.0380 -39.0380
    14.3823  14.3823  15.9218  15.9218  17.6195  17.6195  18.3713  18.3713
    19.3486  19.3486  20.6962  20.6962  26.4293

     occupation numbers 
     1.0000   1.0000   1.0000   1.0000   1.0000   1.0000   1.0000   1.0000
     1.0000   1.0000   1.0000   1.0000   1.0000   1.0000   0.0000   0.0000
     0.0000   0.0000   0.0000   0.0000   0.0000

          k = 0.1667 0.2887 0.0000 (  2918 PWs)   bands (ev):

   -75.8070 -75.7713 -39.2177 -39.1387 -39.1299 -39.0536 -39.0105 -39.0025
    11.9183  15.3264  15.6409  16.0079  17.1519  17.1990  17.7063  18.0614
    18.6106  18.9547  19.3443  23.9604  25.6994

     occupation numbers 
     1.0000   1.0000   1.0000   1.0000   1.0000   1.0000   1.0000   1.0000
     1.0000   1.0000   1.0000   1.0000   1.0000   1.0000   1.0000   1.0000
     0.0000   0.0000   0.0000   0.0000   0.0000

          k = 0.1667 0.2887 0.1027 (  2924 PWs)   bands (ev):

   -75.8046 -75.7737 -39.2185 -39.1364 -39.1220 -39.0594 -39.0144 -39.0025
    12.1290  15.2367  15.5575  16.0719  17.0607  17.2257  17.6016  18.1513
    18.7340  18.8367  19.3510  22.3343  27.8720

     occupation numbers 
     1.0000   1.0000   1.0000   1.0000   1.0000   1.0000   1.0000   1.0000
     1.0000   1.0000   1.0000   1.0000   1.0000   1.0000   1.0000   0.0042
     0.0000   0.0000   0.0000   0.0000   0.0000

          k = 0.1667 0.2887 0.2053 (  2928 PWs)   bands (ev):

   -75.7981 -75.7802 -39.2109 -39.1589 -39.0872 -39.0617 -39.0238 -39.0109
    12.7273  14.5444  15.8034  16.2346  16.8041  17.0669  17.6556  18.2330
    18.8341  18.9521  19.3037  20.6624  31.0781

     occupation numbers 
     1.0000   1.0000   1.0000   1.0000   1.0000   1.0000   1.0000   1.0000
     1.0000   1.0000   1.0000   1.0000   1.0000   1.0000   1.0000   0.0000
     0.0000   0.0000   0.0000   0.0000   0.0000

          k = 0.1667 0.2887-0.3080 (  2916 PWs)   bands (ev):

   -75.7892 -75.7892 -39.1888 -39.1888 -39.0614 -39.0614 -39.0265 -39.0265
    13.6022  13.6022  16.1698  16.1698  16.7636  16.7636  17.9504  17.9504
    19.1358  19.1358  19.5251  19.5251  32.9029

     occupation numbers 
     1.0000   1.0000   1.0000   1.0000   1.0000   1.0000   1.0000   1.0000
     1.0000   1.0000   1.0000   1.0000   1.0000   1.0000   1.0000   1.0000
     0.0000   0.0000   0.0000   0.0000   0.0000

          k = 0.1667 0.3849 0.0000 (  2931 PWs)   bands (ev):

   -75.7952 -75.7684 -39.1849 -39.1840 -39.1633 -39.0813 -39.0310 -39.0225
    13.1613  15.3574  15.4053  15.8177  16.9550  17.3291  17.4774  18.3945
    19.0988  19.3375  19.6541  25.6960  25.9643

     occupation numbers 
     1.0000   1.0000   1.0000   1.0000   1.0000   1.0000   1.0000   1.0000
     1.0000   1.0000   1.0000   1.0000   1.0000   1.0000   1.0000   0.0000
     0.0000   0.0000   0.0000   0.0000   0.0000

          k = 0.1667 0.3849 0.1027 (  2923 PWs)   bands (ev):

   -75.7934 -75.7702 -39.2144 -39.1796 -39.1341 -39.0859 -39.0364 -39.0165
    13.3109  15.2180  15.5055  15.9173  16.9259  17.3018  17.4318  18.4354
    19.0802  19.1975  19.7577  23.4093  28.0532

     occupation numbers 
     1.0000   1.0000   1.0000   1.0000   1.0000   1.0000   1.0000   1.0000
     1.0000   1.0000   1.0000   1.0000   1.0000   1.0000   1.0000   0.0000
     0.0000   0.0000   0.0000   0.0000   0.0000

          k = 0.1667 0.3849 0.2053 (  2915 PWs)   bands (ev):

   -75.7885 -75.7751 -39.2277 -39.1992 -39.0979 -39.0820 -39.0437 -39.0164
    13.7214  14.8326  15.7796  16.1235  16.7887  17.0295  17.6175  18.4069
    18.9382  19.3748  19.8365  21.4640  28.9981

     occupation numbers 
     1.0000   1.0000   1.0000   1.0000   1.0000   1.0000   1.0000   1.0000
     1.0000   1.0000   1.0000   1.0000   1.0000   1.0000   1.0000   0.0000
     0.0000   0.0000   0.0000   0.0000   0.0000

          k = 0.1667 0.3849-0.3080 (  2920 PWs)   bands (ev):

   -75.7818 -75.7818 -39.2204 -39.2204 -39.0814 -39.0814 -39.0316 -39.0316
    14.2819  14.2819  16.1095  16.1095  16.7626  16.7626  17.9726  17.9726
    19.3713  19.3713  20.1770  20.1770  30.0917

     occupation numbers 
     1.0000   1.0000   1.0000   1.0000   1.0000   1.0000   1.0000   1.0000
     1.0000   1.0000   1.0000   1.0000   1.0000   1.0000   1.0000   1.0000
     0.0000   0.0000   0.0000   0.0000   0.0000

          k = 0.1667 0.4811 0.0000 (  2936 PWs)   bands (ev):

   -75.7853 -75.7676 -39.2215 -39.1801 -39.1515 -39.1072 -39.0449 -39.0449
    14.2685  15.1921  15.1937  15.8553  16.8967  17.2200  17.5582  18.8372
    19.3314  19.3474  20.5361  24.4104  27.5693

     occupation numbers 
     1.0000   1.0000   1.0000   1.0000   1.0000   1.0000   1.0000   1.0000
     1.0000   1.0000   1.0000   1.0000   1.0000   1.0000   1.0000   0.0000
     0.0000   0.0000   0.0000   0.0000   0.0000

          k = 0.1667 0.4811 0.1027 (  2934 PWs)   bands (ev):

   -75.7841 -75.7687 -39.2338 -39.1974 -39.1329 -39.0995 -39.0553 -39.0311
    14.2944  15.1376  15.3533  15.8968  16.9075  17.1951  17.6233  18.8301
    19.1038  19.4198  20.5855  23.8118  26.5669

     occupation numbers 
     1.0000   1.0000   1.0000   1.0000   1.0000   1.0000   1.0000   1.0000
     1.0000   1.0000   1.0000   1.0000   1.0000   1.0000   1.0000   0.0000
     0.0000   0.0000   0.0000   0.0000   0.0000

          k = 0.1667 0.4811 0.2053 (  2926 PWs)   bands (ev):

   -75.7809 -75.7720 -39.2479 -39.2241 -39.1167 -39.0829 -39.0553 -39.0228
    14.4107  14.9339  15.6744  16.1616  16.7431  17.1660  17.8338  18.5238
    19.0410  19.5135  20.7324  22.3996  26.6903

     occupation numbers 
     1.0000   1.0000   1.0000   1.0000   1.0000   1.0000   1.0000   1.0000
     1.0000   1.0000   1.0000   1.0000   1.0000   1.0000   1.0000   0.0000
     0.0000   0.0000   0.0000   0.0000   0.0000

          k = 0.1667 0.4811-0.3080 (  2934 PWs)   bands (ev):

   -75.7764 -75.7764 -39.2447 -39.2447 -39.0981 -39.0981 -39.0321 -39.0321
    14.6420  14.6420  16.0714  16.0714  16.9104  16.9104  18.1041  18.1041
    19.3637  19.3637  21.2483  21.2483  27.4888

     occupation numbers 
     1.0000   1.0000   1.0000   1.0000   1.0000   1.0000   1.0000   1.0000
     1.0000   1.0000   1.0000   1.0000   1.0000   1.0000   0.9884   0.9884
     0.0000   0.0000   0.0000   0.0000   0.0000

          k = 0.1667 0.5774 0.0000 (  2942 PWs)   bands (ev):

   -75.7809 -75.7680 -39.2348 -39.1852 -39.1350 -39.1180 -39.0577 -39.0498
    14.7428  15.0574  15.1410  15.9068  16.9427  17.0579  17.6607  19.1486
    19.3249  19.3289  21.4241  22.8618  28.6179

     occupation numbers 
     1.0000   1.0000   1.0000   1.0000   1.0000   1.0000   1.0000   1.0000
     1.0000   1.0000   1.0000   1.0000   1.0000   1.0000   1.0000   0.0000
     0.0000   0.0000   0.0000   0.0000   0.0000

          k = 0.1667 0.5774 0.1027 (  2935 PWs)   bands (ev):

   -75.7800 -75.7689 -39.2447 -39.2015 -39.1366 -39.0933 -39.0665 -39.0378
    14.6095  15.0984  15.4903  15.7423  16.8676  17.2264  17.7346  19.0769
    19.1473  19.3850  21.4539  22.7691  27.6989

     occupation numbers 
     1.0000   1.0000   1.0000   1.0000   1.0000   1.0000   1.0000   1.0000
     1.0000   1.0000   1.0000   1.0000   1.0000   1.0000   1.0000   0.0000
     0.0000   0.0000   0.0000   0.0000   0.0000

          k = 0.1667 0.5774 0.2053 (  2926 PWs)   bands (ev):

   -75.7777 -75.7712 -39.2571 -39.2319 -39.1248 -39.0831 -39.0569 -39.0263
    14.5753  14.9929  15.7398  16.0756  16.6577  17.3352  17.9766  18.5921
    19.1736  19.4305  21.5817  22.4591  26.6221

     occupation numbers 
     1.0000   1.0000   1.0000   1.0000   1.0000   1.0000   1.0000   1.0000
     1.0000   1.0000   1.0000   1.0000   1.0000   1.0000   1.0000   0.0000
     0.0000   0.0000   0.0000   0.0000   0.0000

          k = 0.1667 0.5774-0.3080 (  2930 PWs)   bands (ev):

   -75.7744 -75.7744 -39.2537 -39.2537 -39.1045 -39.1045 -39.0318 -39.0318
    14.7286  14.7286  16.0642  16.0642  16.9620  16.9620  18.2616  18.2616
    19.3012  19.3012  21.9671  21.9671  26.2337

     occupation numbers 
     1.0000   1.0000   1.0000   1.0000   1.0000   1.0000   1.0000   1.0000
     1.0000   1.0000   1.0000   1.0000   1.0000   1.0000   0.0000   0.0000
     0.0000   0.0000   0.0000   0.0000   0.0000

          k = 0.2500 0.4330 0.0000 (  2934 PWs)   bands (ev):

   -75.7853 -75.7675 -39.2015 -39.1807 -39.1517 -39.1086 -39.0631 -39.0448
    14.2703  15.2671  15.5243  15.5479  16.8052  17.2468  17.5624  18.5987
    19.2843  19.3496  20.5748  25.9528  26.7736

     occupation numbers 
     1.0000   1.0000   1.0000   1.0000   1.0000   1.0000   1.0000   1.0000
     1.0000   1.0000   1.0000   1.0000   1.0000   1.0000   1.0000   0.0000
     0.0000   0.0000   0.0000   0.0000   0.0000

          k = 0.2500 0.4330 0.1027 (  2925 PWs)   bands (ev):

   -75.7841 -75.7687 -39.2085 -39.2050 -39.1195 -39.1189 -39.0653 -39.0330
    14.3536  15.1836  15.5907  15.7283  16.8438  17.0729  17.5679  18.6395
    19.0477  19.4277  20.6746  24.5314  27.0557

     occupation numbers 
     1.0000   1.0000   1.0000   1.0000   1.0000   1.0000   1.0000   1.0000
     1.0000   1.0000   1.0000   1.0000   1.0000   1.0000   1.0000   0.0000
     0.0000   0.0000   0.0000   0.0000   0.0000

          k = 0.2500 0.4330 0.2053 (  2930 PWs)   bands (ev):

   -75.7809 -75.7720 -39.2306 -39.2184 -39.1240 -39.1001 -39.0546 -39.0224
    14.5670  15.0382  15.8039  16.0719  16.6987  16.8131  17.6514  18.4287
    19.0015  19.5220  20.9033  22.7067  27.8217

     occupation numbers 
     1.0000   1.0000   1.0000   1.0000   1.0000   1.0000   1.0000   1.0000
     1.0000   1.0000   1.0000   1.0000   1.0000   1.0000   1.0000   0.0000
     0.0000   0.0000   0.0000   0.0000   0.0000

          k = 0.2500 0.4330-0.3080 (  2930 PWs)   bands (ev):

   -75.7764 -75.7764 -39.2323 -39.2323 -39.1124 -39.1124 -39.0304 -39.0304
    14.8240  14.8240  16.1290  16.1290  16.5929  16.5929  17.9432  17.9432
    19.3867  19.3867  21.4558  21.4558  28.8157

     occupation numbers 
     1.0000   1.0000   1.0000   1.0000   1.0000   1.0000   1.0000   1.0000
     1.0000   1.0000   1.0000   1.0000   1.0000   1.0000   1.0000   1.0000
     0.0000   0.0000   0.0000   0.0000   0.0000

          k = 0.2500 0.5292 0.0000 (  2930 PWs)   bands (ev):

   -75.7779 -75.7687 -39.2141 -39.1719 -39.1381 -39.1228 -39.0838 -39.0678
    14.9973  15.2413  15.3676  15.6201  16.8053  17.0081  17.7569  18.8986
    19.2530  19.2871  21.8274  24.0226  26.0962

     occupation numbers 
     1.0000   1.0000   1.0000   1.0000   1.0000   1.0000   1.0000   1.0000
     1.0000   1.0000   1.0000   1.0000   1.0000   1.0000   1.0000   0.0000
     0.0000   0.0000   0.0000   0.0000   0.0000

          k = 0.2500 0.5292 0.1027 (  2930 PWs)   bands (ev):

   -75.7773 -75.7693 -39.2190 -39.1920 -39.1535 -39.1010 -39.0834 -39.0494
    14.9718  15.3402  15.4494  15.6909  16.7801  16.9094  17.7677  18.9191
    19.0125  19.3407  21.9841  24.0027  26.1626

     occupation numbers 
     1.0000   1.0000   1.0000   1.0000   1.0000   1.0000   1.0000   1.0000
     1.0000   1.0000   1.0000   1.0000   1.0000   1.0000   1.0000   0.0000
     0.0000   0.0000   0.0000   0.0000   0.0000

          k = 0.2500 0.5292 0.2053 (  2934 PWs)   bands (ev):

   -75.7756 -75.7710 -39.2325 -39.2185 -39.1533 -39.1140 -39.0502 -39.0296
    15.0149  15.2979  15.7187  16.0300  16.5318  16.7686  17.8369  18.4618
    19.0886  19.3903  22.3576  23.6545  26.2192

     occupation numbers 
     1.0000   1.0000   1.0000   1.0000   1.0000   1.0000   1.0000   1.0000
     1.0000   1.0000   1.0000   1.0000   1.0000   1.0000   1.0000   0.0000
     0.0000   0.0000   0.0000   0.0000   0.0000

          k = 0.2500 0.5292-0.3080 (  2930 PWs)   bands (ev):

   -75.7733 -75.7733 -39.2347 -39.2347 -39.1353 -39.1353 -39.0289 -39.0289
    15.1459  15.1459  16.1046  16.1046  16.4901  16.4901  18.0403  18.0403
    19.2904  19.2904  22.9390  22.9390  26.7493

     occupation numbers 
     1.0000   1.0000   1.0000   1.0000   1.0000   1.0000   1.0000   1.0000
     1.0000   1.0000   1.0000   1.0000   1.0000   1.0000   1.0000   1.0000
     0.0000   0.0000   0.0000   0.0000   0.0000

          k = 0.3333 0.5774 0.0000 (  2946 PWs)   bands (ev):

   -75.7722 -75.7722 -39.2045 -39.1576 -39.1576 -39.1081 -39.0942 -39.0942
    15.2774  15.3527  15.3527  15.5513  16.8420  16.8420  17.8619  19.0628
    19.0628  19.2219  23.2614  24.0120  24.0120

     occupation numbers 
     1.0000   1.0000   1.0000   1.0000   1.0000   1.0000   1.0000   1.0000
     1.0000   1.0000   1.0000   1.0000   1.0000   1.0000   1.0000   0.0000
     0.0000   0.0000   0.0000   0.0000   0.0000

          k = 0.3333 0.5774 0.1027 (  2931 PWs)   bands (ev):

   -75.7722 -75.7722 -39.1981 -39.1820 -39.1820 -39.1146 -39.0697 -39.0697
    15.3471  15.4263  15.4263  15.5832  16.7569  16.7569  17.8424  18.9583
    19.1109  19.1109  23.6642  24.0626  24.0626

     occupation numbers 
     1.0000   1.0000   1.0000   1.0000   1.0000   1.0000   1.0000   1.0000
     1.0000   1.0000   1.0000   1.0000   1.0000   1.0000   1.0000   0.0000
     0.0000   0.0000   0.0000   0.0000   0.0000

          k = 0.3333 0.5774 0.2053 (  2943 PWs)   bands (ev):

   -75.7722 -75.7722 -39.2121 -39.2121 -39.1805 -39.1323 -39.0394 -39.0394
    15.5093  15.6025  15.6025  15.6431  16.5656  16.5656  17.8425  18.4326
    19.1989  19.1989  24.1886  24.1886  24.6475

     occupation numbers 
     1.0000   1.0000   1.0000   1.0000   1.0000   1.0000   1.0000   1.0000
     1.0000   1.0000   1.0000   1.0000   1.0000   1.0000   1.0000   0.0000
     0.0000   0.0000   0.0000   0.0000   0.0000

          k = 0.3333 0.5774-0.3080 (  2964 PWs)   bands (ev):

   -75.7722 -75.7722 -39.2237 -39.2237 -39.1564 -39.1564 -39.0277 -39.0277
    15.6376  15.6376  15.7185  15.7185  16.4455  16.4455  18.0104  18.0104
    19.2394  19.2394  24.2692  24.2692  25.9507

     occupation numbers 
     1.0000   1.0000   1.0000   1.0000   1.0000   1.0000   1.0000   1.0000
     1.0000   1.0000   1.0000   1.0000   1.0000   1.0000   1.0000   1.0000
     0.0000   0.0000   0.0000   0.0000   0.0000

     the Fermi energy is    18.1259 ev

!    total energy              =    -753.45445403 Ry
     total all-electron energy =     -5573.811145 Ry
     estimated scf accuracy    <       0.00000003 Ry
     smearing contrib. (-TS)   =      -0.00001817 Ry
     internal energy E=F+TS    =    -753.45443587 Ry

     The total energy is F=E-TS. E is the sum of the following terms:
     one-electron contribution =    -288.11768454 Ry
     hartree contribution      =     167.01832077 Ry
     xc contribution           =     -61.36880031 Ry
     ewald contribution        =    -395.81259071 Ry
     one-center paw contrib.   =    -175.17368108 Ry
      -> PAW hartree energy AE =     221.85113641 Ry
      -> PAW hartree energy PS =    -220.79606920 Ry
      -> PAW xc energy AE      =    -117.66357411 Ry
      -> PAW xc energy PS      =      29.02166636 Ry
      -> total E_H with PAW    =     168.07338797 Ry
      -> total E_XC with PAW   =    -150.01070805 Ry

     total magnetization       =     3.36 Bohr mag/cell
     absolute magnetization    =     3.70 Bohr mag/cell

     convergence has been achieved in   7 iterations

     Writing all to output data dir ./out/Co.save/
 
     init_run     :      0.39s CPU      0.50s WALL (       1 calls)
     electrons    :     14.03s CPU     14.81s WALL (       1 calls)

     Called by init_run:
     wfcinit      :      0.26s CPU      0.35s WALL (       1 calls)
     potinit      :      0.08s CPU      0.11s WALL (       1 calls)
     hinit0       :      0.03s CPU      0.03s WALL (       1 calls)

     Called by electrons:
     c_bands      :     12.15s CPU     12.75s WALL (       7 calls)
     sum_band     :      1.25s CPU      1.32s WALL (       7 calls)
     v_of_rho     :      0.03s CPU      0.03s WALL (       8 calls)
     v_h          :      0.00s CPU      0.00s WALL (       8 calls)
     v_xc         :      0.03s CPU      0.03s WALL (       8 calls)
     newd         :      0.03s CPU      0.04s WALL (       8 calls)
     PAW_pot      :      0.63s CPU      0.76s WALL (       8 calls)
     mix_rho      :      0.00s CPU      0.00s WALL (       7 calls)

     Called by c_bands:
     init_us_2    :      0.08s CPU      0.09s WALL (    2128 calls)
     init_us_2:cp :      0.08s CPU      0.08s WALL (    2128 calls)
     cegterg      :     11.64s CPU     12.16s WALL (    1064 calls)

     Called by sum_band:
     sum_band:wei :      0.01s CPU      0.01s WALL (       7 calls)
     sum_band:loo :      1.19s CPU      1.24s WALL (       7 calls)
     sum_band:buf :      0.00s CPU      0.01s WALL (    1064 calls)
     sum_band:ini :      0.05s CPU      0.04s WALL (    1064 calls)
     sum_band:cal :      0.11s CPU      0.10s WALL (    1064 calls)
     sum_band:bec :      0.00s CPU      0.01s WALL (    1064 calls)
     addusdens    :      0.05s CPU      0.05s WALL (       7 calls)
                                        0.00s GPU  (       7 calls)
     addusd:skk   :      0.00s CPU      0.00s WALL (       7 calls)
                                        0.00s GPU  (       7 calls)

     Called by *egterg:
     cdiaghg      :      2.99s CPU      3.06s WALL (    6243 calls)
     cegterg:over :      0.42s CPU      0.39s WALL (    5331 calls)
     cegterg:upda :      0.05s CPU      0.10s WALL (    5331 calls)
     cegterg:last :      0.15s CPU      0.18s WALL (    3513 calls)
     h_psi        :      7.57s CPU      7.94s WALL (    6395 calls)
     s_psi        :      0.16s CPU      0.14s WALL (    6395 calls)
     g_psi        :      0.02s CPU      0.03s WALL (    5331 calls)

     Called by h_psi:
     h_psi:calbec :      0.44s CPU      0.41s WALL (    6395 calls)
     vloc_psi     :      7.01s CPU      7.33s WALL (    6395 calls)
     add_vuspsi   :      0.09s CPU      0.15s WALL (    6395 calls)

     General routines
     calbec       :      0.54s CPU      0.51s WALL (    7459 calls)
     fft          :      0.02s CPU      0.02s WALL (     194 calls)
     ffts         :      0.00s CPU      0.00s WALL (      30 calls)
     fftw         :      7.52s CPU      7.77s WALL (  182676 calls)
     interpolate  :      0.00s CPU      0.00s WALL (      16 calls)
 
     Parallel routines

     PAW routines
     PAW_pot      :      0.63s CPU      0.76s WALL (       8 calls)
     PAW_symme    :      0.01s CPU      0.01s WALL (      14 calls)
 
     PWSCF        :     14.74s CPU     16.09s WALL

 
   This run was terminated on:   7:21:38  22Mar2024            

=------------------------------------------------------------------------------=
   JOB DONE.
=------------------------------------------------------------------------------=
