
     Program PWSCF v.7.2 starts on 22Mar2024 at  8:40: 2 

     This program is part of the open-source Quantum ESPRESSO suite
     for quantum simulation of materials; please cite
         "P. Giannozzi et al., J. Phys.:Condens. Matter 21 395502 (2009);
         "P. Giannozzi et al., J. Phys.:Condens. Matter 29 465901 (2017);
         "P. Giannozzi et al., J. Chem. Phys. 152 154105 (2020);
          URL http://www.quantum-espresso.org", 
     in publications or presentations arising from this work. More details at
     http://www.quantum-espresso.org/quote

     Parallel version (MPI), running on    20 processors

     MPI processes distributed on     1 nodes
     241511 MiB available memory on the printing compute node when the environment starts
 
     Waiting for input...
     Reading input from standard input

     Current dimensions of program PWSCF are:
     Max number of different atomic species (ntypx) = 10
     Max number of k-points (npk) = 120000
     Max angular momentum in pseudopotentials (lmaxx) =  4
     file Co.pbe-spn-kjpaw_psl.0.3.1.UPF: wavefunction(s)  3P 3D renormalized
 
     R & G space division:  proc/nbgrp/npool/nimage =      20
     Subspace diagonalization in iterative solution of the eigenvalue problem:
     a serial algorithm will be used

 
     Parallelization info
     --------------------
     sticks:   dense  smooth     PW     G-vecs:    dense   smooth      PW
     Min          32      32      9                 1135     1094     179
     Max          35      33     10                 1145     1101     186
     Sum         661     649    199                22779    21951    3657
 
     Using Slab Decomposition
 


     bravais-lattice index     =            4
     lattice parameter (alat)  =       4.6204  a.u.
     unit-cell volume          =     140.9706 (a.u.)^3
     number of atoms/cell      =            2
     number of atomic types    =            1
     number of electrons       =        34.00
     number of Kohn-Sham states=           21
     kinetic-energy cutoff     =     110.0000  Ry
     charge density cutoff     =     450.0000  Ry
     scf convergence threshold =      1.0E-06
     mixing beta               =       0.7000
     number of iterations used =            8  plain     mixing
     Exchange-correlation= SLA  PW   PBX  PBC
                           (   1   4   3   4   0   0   0)

     celldm(1)=   4.620380  celldm(2)=   0.000000  celldm(3)=   1.650307
     celldm(4)=   0.000000  celldm(5)=   0.000000  celldm(6)=   0.000000

     crystal axes: (cart. coord. in units of alat)
               a(1) = (   1.000000   0.000000   0.000000 )  
               a(2) = (  -0.500000   0.866025   0.000000 )  
               a(3) = (   0.000000   0.000000   1.650307 )  

     reciprocal axes: (cart. coord. in units 2 pi/alat)
               b(1) = (  1.000000  0.577350  0.000000 )  
               b(2) = (  0.000000  1.154701  0.000000 )  
               b(3) = (  0.000000  0.000000  0.605948 )  


     PseudoPot. # 1 for Co read from file:
     /truba/home/amuhaymin/ZnS/pseudo/QE/Co.pbe-spn-kjpaw_psl.0.3.1.UPF
     MD5 check sum: b0a1ad65bf214e88c1f3d33b20c7d919
     Pseudo is Projector augmented-wave + core cor, Zval = 17.0
     Generated using &quot;atomic&quot; code by A. Dal Corso  v.6.2.2
     Shape of augmentation charge: PSQ
     Using radial grid of 1193 points,  6 beta functions with: 
                l(1) =   0
                l(2) =   0
                l(3) =   1
                l(4) =   1
                l(5) =   2
                l(6) =   2
     Q(r) pseudized with 0 coefficients 


     atomic species   valence    mass     pseudopotential
        Co            17.00    58.93300     Co( 1.00)

     Starting magnetic structure 
     atomic species   magnetization
        Co           0.294

     24 Sym. Ops., with inversion, found (12 have fractional translation)


                                    s                        frac. trans.

      isym =  1     identity                                     

 cryst.   s( 1) = (     1          0          0      )
                  (     0          1          0      )
                  (     0          0          1      )

 cart.    s( 1) = (  1.0000000  0.0000000  0.0000000 )
                  (  0.0000000  1.0000000  0.0000000 )
                  (  0.0000000  0.0000000  1.0000000 )


      isym =  2     180 deg rotation - cart. axis [0,0,1]        

 cryst.   s( 2) = (    -1          0          0      )    f =(  0.0000000 )
                  (     0         -1          0      )       ( -0.0000000 )
                  (     0          0          1      )       ( -0.5000000 )

 cart.    s( 2) = ( -1.0000000  0.0000000  0.0000000 )    f =(  0.0000000 )
                  (  0.0000000 -1.0000000  0.0000000 )       ( -0.0000000 )
                  (  0.0000000  0.0000000  1.0000000 )       ( -0.8251534 )


      isym =  3     180 deg rotation - cart. axis [0,1,0]        

 cryst.   s( 3) = (    -1          0          0      )    f =(  0.0000000 )
                  (     1          1          0      )       (  0.0000000 )
                  (     0          0         -1      )       (  0.5000000 )

 cart.    s( 3) = ( -1.0000000  0.0000000  0.0000000 )    f =(  0.0000000 )
                  (  0.0000000  1.0000000  0.0000000 )       (  0.0000000 )
                  (  0.0000000  0.0000000 -1.0000000 )       (  0.8251534 )


      isym =  4     180 deg rotation - cart. axis [1,0,0]        

 cryst.   s( 4) = (     1          0          0      )
                  (    -1         -1          0      )
                  (     0          0         -1      )

 cart.    s( 4) = (  1.0000000  0.0000000  0.0000000 )
                  (  0.0000000 -1.0000000  0.0000000 )
                  (  0.0000000  0.0000000 -1.0000000 )


      isym =  5      60 deg rotation - cryst. axis [0,0,1]       

 cryst.   s( 5) = (     1          1          0      )    f =(  0.0000000 )
                  (    -1          0          0      )       ( -0.0000000 )
                  (     0          0          1      )       ( -0.5000000 )

 cart.    s( 5) = (  0.5000000 -0.8660254  0.0000000 )    f =(  0.0000000 )
                  (  0.8660254  0.5000000  0.0000000 )       ( -0.0000000 )
                  (  0.0000000  0.0000000  1.0000000 )       ( -0.8251534 )


      isym =  6      60 deg rotation - cryst. axis [0,0,-1]      

 cryst.   s( 6) = (     0         -1          0      )    f =(  0.0000000 )
                  (     1          1          0      )       ( -0.0000000 )
                  (     0          0          1      )       ( -0.5000000 )

 cart.    s( 6) = (  0.5000000  0.8660254  0.0000000 )    f =(  0.0000000 )
                  ( -0.8660254  0.5000000  0.0000000 )       ( -0.0000000 )
                  (  0.0000000  0.0000000  1.0000000 )       ( -0.8251534 )


      isym =  7     120 deg rotation - cryst. axis [0,0,1]       

 cryst.   s( 7) = (     0          1          0      )
                  (    -1         -1          0      )
                  (     0          0          1      )

 cart.    s( 7) = ( -0.5000000 -0.8660254  0.0000000 )
                  (  0.8660254 -0.5000000  0.0000000 )
                  (  0.0000000  0.0000000  1.0000000 )


      isym =  8     120 deg rotation - cryst. axis [0,0,-1]      

 cryst.   s( 8) = (    -1         -1          0      )
                  (     1          0          0      )
                  (     0          0          1      )

 cart.    s( 8) = ( -0.5000000  0.8660254  0.0000000 )
                  ( -0.8660254 -0.5000000  0.0000000 )
                  (  0.0000000  0.0000000  1.0000000 )


      isym =  9     180 deg rotation - cryst. axis [1,-1,0]      

 cryst.   s( 9) = (     0         -1          0      )    f =( -0.0000000 )
                  (    -1          0          0      )       ( -0.0000000 )
                  (     0          0         -1      )       (  0.5000000 )

 cart.    s( 9) = (  0.5000000 -0.8660254  0.0000000 )    f =( -0.0000000 )
                  ( -0.8660254 -0.5000000  0.0000000 )       ( -0.0000000 )
                  (  0.0000000  0.0000000 -1.0000000 )       (  0.8251534 )


      isym = 10     180 deg rotation - cryst. axis [2,1,0]       

 cryst.   s(10) = (     1          1          0      )    f =(  0.0000000 )
                  (     0         -1          0      )       ( -0.0000000 )
                  (     0          0         -1      )       (  0.5000000 )

 cart.    s(10) = (  0.5000000  0.8660254  0.0000000 )    f =(  0.0000000 )
                  (  0.8660254 -0.5000000  0.0000000 )       ( -0.0000000 )
                  (  0.0000000  0.0000000 -1.0000000 )       (  0.8251534 )


      isym = 11     180 deg rotation - cryst. axis [0,1,0]       

 cryst.   s(11) = (    -1         -1          0      )
                  (     0          1          0      )
                  (     0          0         -1      )

 cart.    s(11) = ( -0.5000000 -0.8660254  0.0000000 )
                  ( -0.8660254  0.5000000  0.0000000 )
                  (  0.0000000  0.0000000 -1.0000000 )


      isym = 12     180 deg rotation - cryst. axis [1,1,0]       

 cryst.   s(12) = (     0          1          0      )
                  (     1          0          0      )
                  (     0          0         -1      )

 cart.    s(12) = ( -0.5000000  0.8660254  0.0000000 )
                  (  0.8660254  0.5000000  0.0000000 )
                  (  0.0000000  0.0000000 -1.0000000 )


      isym = 13     inversion                                    

 cryst.   s(13) = (    -1          0          0      )
                  (     0         -1          0      )
                  (     0          0         -1      )

 cart.    s(13) = ( -1.0000000  0.0000000  0.0000000 )
                  (  0.0000000 -1.0000000  0.0000000 )
                  (  0.0000000  0.0000000 -1.0000000 )


      isym = 14     inv. 180 deg rotation - cart. axis [0,0,1]   

 cryst.   s(14) = (     1          0          0      )    f =(  0.0000000 )
                  (     0          1          0      )       (  0.0000000 )
                  (     0          0         -1      )       (  0.5000000 )

 cart.    s(14) = (  1.0000000  0.0000000  0.0000000 )    f =(  0.0000000 )
                  (  0.0000000  1.0000000  0.0000000 )       (  0.0000000 )
                  (  0.0000000  0.0000000 -1.0000000 )       (  0.8251534 )


      isym = 15     inv. 180 deg rotation - cart. axis [0,1,0]   

 cryst.   s(15) = (     1          0          0      )    f =(  0.0000000 )
                  (    -1         -1          0      )       ( -0.0000000 )
                  (     0          0          1      )       ( -0.5000000 )

 cart.    s(15) = (  1.0000000  0.0000000  0.0000000 )    f =(  0.0000000 )
                  (  0.0000000 -1.0000000  0.0000000 )       ( -0.0000000 )
                  (  0.0000000  0.0000000  1.0000000 )       ( -0.8251534 )


      isym = 16     inv. 180 deg rotation - cart. axis [1,0,0]   

 cryst.   s(16) = (    -1          0          0      )
                  (     1          1          0      )
                  (     0          0          1      )

 cart.    s(16) = ( -1.0000000  0.0000000  0.0000000 )
                  (  0.0000000  1.0000000  0.0000000 )
                  (  0.0000000  0.0000000  1.0000000 )


      isym = 17     inv.  60 deg rotation - cryst. axis [0,0,1]  

 cryst.   s(17) = (    -1         -1          0      )    f =(  0.0000000 )
                  (     1          0          0      )       ( -0.0000000 )
                  (     0          0         -1      )       (  0.5000000 )

 cart.    s(17) = ( -0.5000000  0.8660254  0.0000000 )    f =(  0.0000000 )
                  ( -0.8660254 -0.5000000  0.0000000 )       ( -0.0000000 )
                  (  0.0000000  0.0000000 -1.0000000 )       (  0.8251534 )


      isym = 18     inv.  60 deg rotation - cryst. axis [0,0,-1] 

 cryst.   s(18) = (     0          1          0      )    f =( -0.0000000 )
                  (    -1         -1          0      )       ( -0.0000000 )
                  (     0          0         -1      )       (  0.5000000 )

 cart.    s(18) = ( -0.5000000 -0.8660254  0.0000000 )    f =(  0.0000000 )
                  (  0.8660254 -0.5000000  0.0000000 )       ( -0.0000000 )
                  (  0.0000000  0.0000000 -1.0000000 )       (  0.8251534 )


      isym = 19     inv. 120 deg rotation - cryst. axis [0,0,1]  

 cryst.   s(19) = (     0         -1          0      )
                  (     1          1          0      )
                  (     0          0         -1      )

 cart.    s(19) = (  0.5000000  0.8660254  0.0000000 )
                  ( -0.8660254  0.5000000  0.0000000 )
                  (  0.0000000  0.0000000 -1.0000000 )


      isym = 20     inv. 120 deg rotation - cryst. axis [0,0,-1] 

 cryst.   s(20) = (     1          1          0      )
                  (    -1          0          0      )
                  (     0          0         -1      )

 cart.    s(20) = (  0.5000000 -0.8660254  0.0000000 )
                  (  0.8660254  0.5000000  0.0000000 )
                  (  0.0000000  0.0000000 -1.0000000 )


      isym = 21     inv. 180 deg rotation - cryst. axis [1,-1,0] 

 cryst.   s(21) = (     0          1          0      )    f =(  0.0000000 )
                  (     1          0          0      )       ( -0.0000000 )
                  (     0          0          1      )       ( -0.5000000 )

 cart.    s(21) = ( -0.5000000  0.8660254  0.0000000 )    f =(  0.0000000 )
                  (  0.8660254  0.5000000  0.0000000 )       ( -0.0000000 )
                  (  0.0000000  0.0000000  1.0000000 )       ( -0.8251534 )


      isym = 22     inv. 180 deg rotation - cryst. axis [2,1,0]  

 cryst.   s(22) = (    -1         -1          0      )    f =(  0.0000000 )
                  (     0          1          0      )       ( -0.0000000 )
                  (     0          0          1      )       ( -0.5000000 )

 cart.    s(22) = ( -0.5000000 -0.8660254  0.0000000 )    f =(  0.0000000 )
                  ( -0.8660254  0.5000000  0.0000000 )       ( -0.0000000 )
                  (  0.0000000  0.0000000  1.0000000 )       ( -0.8251534 )


      isym = 23     inv. 180 deg rotation - cryst. axis [0,1,0]  

 cryst.   s(23) = (     1          1          0      )
                  (     0         -1          0      )
                  (     0          0          1      )

 cart.    s(23) = (  0.5000000  0.8660254  0.0000000 )
                  (  0.8660254 -0.5000000  0.0000000 )
                  (  0.0000000  0.0000000  1.0000000 )


      isym = 24     inv. 180 deg rotation - cryst. axis [1,1,0]  

 cryst.   s(24) = (     0         -1          0      )
                  (    -1          0          0      )
                  (     0          0          1      )

 cart.    s(24) = (  0.5000000 -0.8660254  0.0000000 )
                  ( -0.8660254 -0.5000000  0.0000000 )
                  (  0.0000000  0.0000000  1.0000000 )


     point group D_6h(6/mmm)
     there are 12 classes
     the character table:

       E     2C6   2C3   C2    3C2'  3C2'' i     2S3   2S6   s_h   3s_d  3s_v 
A_1g   1.00  1.00  1.00  1.00  1.00  1.00  1.00  1.00  1.00  1.00  1.00  1.00
A_2g   1.00  1.00  1.00  1.00 -1.00 -1.00  1.00  1.00  1.00  1.00 -1.00 -1.00
B_1g   1.00 -1.00  1.00 -1.00  1.00 -1.00  1.00 -1.00  1.00 -1.00  1.00 -1.00
B_2g   1.00 -1.00  1.00 -1.00 -1.00  1.00  1.00 -1.00  1.00 -1.00 -1.00  1.00
E_1g   2.00  1.00 -1.00 -2.00  0.00  0.00  2.00  1.00 -1.00 -2.00  0.00  0.00
E_2g   2.00 -1.00 -1.00  2.00  0.00  0.00  2.00 -1.00 -1.00  2.00  0.00  0.00
A_1u   1.00  1.00  1.00  1.00  1.00  1.00 -1.00 -1.00 -1.00 -1.00 -1.00 -1.00
A_2u   1.00  1.00  1.00  1.00 -1.00 -1.00 -1.00 -1.00 -1.00 -1.00  1.00  1.00
B_1u   1.00 -1.00  1.00 -1.00  1.00 -1.00 -1.00  1.00 -1.00  1.00 -1.00  1.00
B_2u   1.00 -1.00  1.00 -1.00 -1.00  1.00 -1.00  1.00 -1.00  1.00  1.00 -1.00
E_1u   2.00  1.00 -1.00 -2.00  0.00  0.00 -2.00 -1.00  1.00  2.00  0.00  0.00
E_2u   2.00 -1.00 -1.00  2.00  0.00  0.00 -2.00  1.00  1.00 -2.00  0.00  0.00

     the symmetry operations in each class and the name of the first element:

     E        1
          identity                                               
     2C6      5    6
           60 deg rotation - cryst. axis [0,0,1]                 
     2C3      7    8
          120 deg rotation - cryst. axis [0,0,1]                 
     C2       2
          180 deg rotation - cart. axis [0,0,1]                  
     3C2'     4   12   11
          180 deg rotation - cart. axis [1,0,0]                  
     3C2''    3    9   10
          180 deg rotation - cart. axis [0,1,0]                  
     i       13
          inversion                                              
     2S3     17   18
          inv.  60 deg rotation - cryst. axis [0,0,1]            
     2S6     19   20
          inv. 120 deg rotation - cryst. axis [0,0,1]            
     s_h     14
          inv. 180 deg rotation - cart. axis [0,0,1]             
     3s_d    16   24   23
          inv. 180 deg rotation - cart. axis [1,0,0]             
     3s_v    15   21   22
          inv. 180 deg rotation - cart. axis [0,1,0]             

   Cartesian axes

     site n.     atom                  positions (alat units)
         1           Co  tau(   1) = (  -0.0000000   0.5773503   0.4125767  )
         2           Co  tau(   2) = (   0.5000000   0.2886751   1.2377301  )

   Crystallographic axes

     site n.     atom                  positions (cryst. coord.)
         1           Co  tau(   1) = (  0.3333333  0.6666667  0.2500000  )
         2           Co  tau(   2) = (  0.6666667  0.3333333  0.7500000  )

     number of k points=    76  Gaussian smearing, width (Ry)=  0.0010
                       cart. coord. in units 2pi/alat
        k(    1) = (   0.0000000   0.0000000   0.0000000), wk =   0.0011574
        k(    2) = (   0.0000000   0.0000000   0.1009913), wk =   0.0023148
        k(    3) = (   0.0000000   0.0000000   0.2019827), wk =   0.0023148
        k(    4) = (   0.0000000   0.0000000  -0.3029740), wk =   0.0011574
        k(    5) = (   0.0000000   0.0962250   0.0000000), wk =   0.0069444
        k(    6) = (   0.0000000   0.0962250   0.1009913), wk =   0.0138889
        k(    7) = (   0.0000000   0.0962250   0.2019827), wk =   0.0138889
        k(    8) = (   0.0000000   0.0962250  -0.3029740), wk =   0.0069444
        k(    9) = (   0.0000000   0.1924501   0.0000000), wk =   0.0069444
        k(   10) = (   0.0000000   0.1924501   0.1009913), wk =   0.0138889
        k(   11) = (   0.0000000   0.1924501   0.2019827), wk =   0.0138889
        k(   12) = (   0.0000000   0.1924501  -0.3029740), wk =   0.0069444
        k(   13) = (   0.0000000   0.2886751   0.0000000), wk =   0.0069444
        k(   14) = (   0.0000000   0.2886751   0.1009913), wk =   0.0138889
        k(   15) = (   0.0000000   0.2886751   0.2019827), wk =   0.0138889
        k(   16) = (   0.0000000   0.2886751  -0.3029740), wk =   0.0069444
        k(   17) = (   0.0000000   0.3849002   0.0000000), wk =   0.0069444
        k(   18) = (   0.0000000   0.3849002   0.1009913), wk =   0.0138889
        k(   19) = (   0.0000000   0.3849002   0.2019827), wk =   0.0138889
        k(   20) = (   0.0000000   0.3849002  -0.3029740), wk =   0.0069444
        k(   21) = (   0.0000000   0.4811252   0.0000000), wk =   0.0069444
        k(   22) = (   0.0000000   0.4811252   0.1009913), wk =   0.0138889
        k(   23) = (   0.0000000   0.4811252   0.2019827), wk =   0.0138889
        k(   24) = (   0.0000000   0.4811252  -0.3029740), wk =   0.0069444
        k(   25) = (   0.0000000  -0.5773503   0.0000000), wk =   0.0034722
        k(   26) = (   0.0000000  -0.5773503   0.1009913), wk =   0.0069444
        k(   27) = (   0.0000000  -0.5773503   0.2019827), wk =   0.0069444
        k(   28) = (   0.0000000  -0.5773503  -0.3029740), wk =   0.0034722
        k(   29) = (   0.0833333   0.1443376   0.0000000), wk =   0.0069444
        k(   30) = (   0.0833333   0.1443376   0.1009913), wk =   0.0138889
        k(   31) = (   0.0833333   0.1443376   0.2019827), wk =   0.0138889
        k(   32) = (   0.0833333   0.1443376  -0.3029740), wk =   0.0069444
        k(   33) = (   0.0833333   0.2405626   0.0000000), wk =   0.0138889
        k(   34) = (   0.0833333   0.2405626   0.1009913), wk =   0.0277778
        k(   35) = (   0.0833333   0.2405626   0.2019827), wk =   0.0277778
        k(   36) = (   0.0833333   0.2405626  -0.3029740), wk =   0.0138889
        k(   37) = (   0.0833333   0.3367877   0.0000000), wk =   0.0138889
        k(   38) = (   0.0833333   0.3367877   0.1009913), wk =   0.0277778
        k(   39) = (   0.0833333   0.3367877   0.2019827), wk =   0.0277778
        k(   40) = (   0.0833333   0.3367877  -0.3029740), wk =   0.0138889
        k(   41) = (   0.0833333   0.4330127   0.0000000), wk =   0.0138889
        k(   42) = (   0.0833333   0.4330127   0.1009913), wk =   0.0277778
        k(   43) = (   0.0833333   0.4330127   0.2019827), wk =   0.0277778
        k(   44) = (   0.0833333   0.4330127  -0.3029740), wk =   0.0138889
        k(   45) = (   0.0833333   0.5292377   0.0000000), wk =   0.0138889
        k(   46) = (   0.0833333   0.5292377   0.1009913), wk =   0.0277778
        k(   47) = (   0.0833333   0.5292377   0.2019827), wk =   0.0277778
        k(   48) = (   0.0833333   0.5292377  -0.3029740), wk =   0.0138889
        k(   49) = (   0.1666667   0.2886751   0.0000000), wk =   0.0069444
        k(   50) = (   0.1666667   0.2886751   0.1009913), wk =   0.0138889
        k(   51) = (   0.1666667   0.2886751   0.2019827), wk =   0.0138889
        k(   52) = (   0.1666667   0.2886751  -0.3029740), wk =   0.0069444
        k(   53) = (   0.1666667   0.3849002   0.0000000), wk =   0.0138889
        k(   54) = (   0.1666667   0.3849002   0.1009913), wk =   0.0277778
        k(   55) = (   0.1666667   0.3849002   0.2019827), wk =   0.0277778
        k(   56) = (   0.1666667   0.3849002  -0.3029740), wk =   0.0138889
        k(   57) = (   0.1666667   0.4811252   0.0000000), wk =   0.0138889
        k(   58) = (   0.1666667   0.4811252   0.1009913), wk =   0.0277778
        k(   59) = (   0.1666667   0.4811252   0.2019827), wk =   0.0277778
        k(   60) = (   0.1666667   0.4811252  -0.3029740), wk =   0.0138889
        k(   61) = (   0.1666667   0.5773503   0.0000000), wk =   0.0069444
        k(   62) = (   0.1666667   0.5773503   0.1009913), wk =   0.0138889
        k(   63) = (   0.1666667   0.5773503   0.2019827), wk =   0.0138889
        k(   64) = (   0.1666667   0.5773503  -0.3029740), wk =   0.0069444
        k(   65) = (   0.2500000   0.4330127   0.0000000), wk =   0.0069444
        k(   66) = (   0.2500000   0.4330127   0.1009913), wk =   0.0138889
        k(   67) = (   0.2500000   0.4330127   0.2019827), wk =   0.0138889
        k(   68) = (   0.2500000   0.4330127  -0.3029740), wk =   0.0069444
        k(   69) = (   0.2500000   0.5292377   0.0000000), wk =   0.0138889
        k(   70) = (   0.2500000   0.5292377   0.1009913), wk =   0.0277778
        k(   71) = (   0.2500000   0.5292377   0.2019827), wk =   0.0277778
        k(   72) = (   0.2500000   0.5292377  -0.3029740), wk =   0.0138889
        k(   73) = (   0.3333333   0.5773503   0.0000000), wk =   0.0023148
        k(   74) = (   0.3333333   0.5773503   0.1009913), wk =   0.0046296
        k(   75) = (   0.3333333   0.5773503   0.2019827), wk =   0.0046296
        k(   76) = (   0.3333333   0.5773503  -0.3029740), wk =   0.0023148

                       cryst. coord.
        k(    1) = (   0.0000000   0.0000000   0.0000000), wk =   0.0011574
        k(    2) = (   0.0000000   0.0000000   0.1666667), wk =   0.0023148
        k(    3) = (   0.0000000   0.0000000   0.3333333), wk =   0.0023148
        k(    4) = (   0.0000000   0.0000000  -0.5000000), wk =   0.0011574
        k(    5) = (   0.0000000   0.0833333   0.0000000), wk =   0.0069444
        k(    6) = (   0.0000000   0.0833333   0.1666667), wk =   0.0138889
        k(    7) = (   0.0000000   0.0833333   0.3333333), wk =   0.0138889
        k(    8) = (   0.0000000   0.0833333  -0.5000000), wk =   0.0069444
        k(    9) = (   0.0000000   0.1666667   0.0000000), wk =   0.0069444
        k(   10) = (   0.0000000   0.1666667   0.1666667), wk =   0.0138889
        k(   11) = (   0.0000000   0.1666667   0.3333333), wk =   0.0138889
        k(   12) = (   0.0000000   0.1666667  -0.5000000), wk =   0.0069444
        k(   13) = (   0.0000000   0.2500000   0.0000000), wk =   0.0069444
        k(   14) = (   0.0000000   0.2500000   0.1666667), wk =   0.0138889
        k(   15) = (   0.0000000   0.2500000   0.3333333), wk =   0.0138889
        k(   16) = (   0.0000000   0.2500000  -0.5000000), wk =   0.0069444
        k(   17) = (   0.0000000   0.3333333   0.0000000), wk =   0.0069444
        k(   18) = (   0.0000000   0.3333333   0.1666667), wk =   0.0138889
        k(   19) = (   0.0000000   0.3333333   0.3333333), wk =   0.0138889
        k(   20) = (   0.0000000   0.3333333  -0.5000000), wk =   0.0069444
        k(   21) = (   0.0000000   0.4166667   0.0000000), wk =   0.0069444
        k(   22) = (   0.0000000   0.4166667   0.1666667), wk =   0.0138889
        k(   23) = (   0.0000000   0.4166667   0.3333333), wk =   0.0138889
        k(   24) = (   0.0000000   0.4166667  -0.5000000), wk =   0.0069444
        k(   25) = (   0.0000000  -0.5000000   0.0000000), wk =   0.0034722
        k(   26) = (   0.0000000  -0.5000000   0.1666667), wk =   0.0069444
        k(   27) = (   0.0000000  -0.5000000   0.3333333), wk =   0.0069444
        k(   28) = (   0.0000000  -0.5000000  -0.5000000), wk =   0.0034722
        k(   29) = (   0.0833333   0.0833333   0.0000000), wk =   0.0069444
        k(   30) = (   0.0833333   0.0833333   0.1666667), wk =   0.0138889
        k(   31) = (   0.0833333   0.0833333   0.3333333), wk =   0.0138889
        k(   32) = (   0.0833333   0.0833333  -0.5000000), wk =   0.0069444
        k(   33) = (   0.0833333   0.1666667   0.0000000), wk =   0.0138889
        k(   34) = (   0.0833333   0.1666667   0.1666667), wk =   0.0277778
        k(   35) = (   0.0833333   0.1666667   0.3333333), wk =   0.0277778
        k(   36) = (   0.0833333   0.1666667  -0.5000000), wk =   0.0138889
        k(   37) = (   0.0833333   0.2500000   0.0000000), wk =   0.0138889
        k(   38) = (   0.0833333   0.2500000   0.1666667), wk =   0.0277778
        k(   39) = (   0.0833333   0.2500000   0.3333333), wk =   0.0277778
        k(   40) = (   0.0833333   0.2500000  -0.5000000), wk =   0.0138889
        k(   41) = (   0.0833333   0.3333333   0.0000000), wk =   0.0138889
        k(   42) = (   0.0833333   0.3333333   0.1666667), wk =   0.0277778
        k(   43) = (   0.0833333   0.3333333   0.3333333), wk =   0.0277778
        k(   44) = (   0.0833333   0.3333333  -0.5000000), wk =   0.0138889
        k(   45) = (   0.0833333   0.4166667   0.0000000), wk =   0.0138889
        k(   46) = (   0.0833333   0.4166667   0.1666667), wk =   0.0277778
        k(   47) = (   0.0833333   0.4166667   0.3333333), wk =   0.0277778
        k(   48) = (   0.0833333   0.4166667  -0.5000000), wk =   0.0138889
        k(   49) = (   0.1666667   0.1666667   0.0000000), wk =   0.0069444
        k(   50) = (   0.1666667   0.1666667   0.1666667), wk =   0.0138889
        k(   51) = (   0.1666667   0.1666667   0.3333333), wk =   0.0138889
        k(   52) = (   0.1666667   0.1666667  -0.5000000), wk =   0.0069444
        k(   53) = (   0.1666667   0.2500000   0.0000000), wk =   0.0138889
        k(   54) = (   0.1666667   0.2500000   0.1666667), wk =   0.0277778
        k(   55) = (   0.1666667   0.2500000   0.3333333), wk =   0.0277778
        k(   56) = (   0.1666667   0.2500000  -0.5000000), wk =   0.0138889
        k(   57) = (   0.1666667   0.3333333   0.0000000), wk =   0.0138889
        k(   58) = (   0.1666667   0.3333333   0.1666667), wk =   0.0277778
        k(   59) = (   0.1666667   0.3333333   0.3333333), wk =   0.0277778
        k(   60) = (   0.1666667   0.3333333  -0.5000000), wk =   0.0138889
        k(   61) = (   0.1666667   0.4166667   0.0000000), wk =   0.0069444
        k(   62) = (   0.1666667   0.4166667   0.1666667), wk =   0.0138889
        k(   63) = (   0.1666667   0.4166667   0.3333333), wk =   0.0138889
        k(   64) = (   0.1666667   0.4166667  -0.5000000), wk =   0.0069444
        k(   65) = (   0.2500000   0.2500000   0.0000000), wk =   0.0069444
        k(   66) = (   0.2500000   0.2500000   0.1666667), wk =   0.0138889
        k(   67) = (   0.2500000   0.2500000   0.3333333), wk =   0.0138889
        k(   68) = (   0.2500000   0.2500000  -0.5000000), wk =   0.0069444
        k(   69) = (   0.2500000   0.3333333   0.0000000), wk =   0.0138889
        k(   70) = (   0.2500000   0.3333333   0.1666667), wk =   0.0277778
        k(   71) = (   0.2500000   0.3333333   0.3333333), wk =   0.0277778
        k(   72) = (   0.2500000   0.3333333  -0.5000000), wk =   0.0138889
        k(   73) = (   0.3333333   0.3333333   0.0000000), wk =   0.0023148
        k(   74) = (   0.3333333   0.3333333   0.1666667), wk =   0.0046296
        k(   75) = (   0.3333333   0.3333333   0.3333333), wk =   0.0046296
        k(   76) = (   0.3333333   0.3333333  -0.5000000), wk =   0.0023148

     Dense  grid:    22779 G-vectors     FFT dimensions: (  32,  32,  54)

     Smooth grid:    21951 G-vectors     FFT dimensions: (  32,  32,  54)

     Dynamical RAM for                 wfc:       0.04 MB

     Dynamical RAM for     wfc (w. buffer):       6.72 MB

     Dynamical RAM for           str. fact:       0.02 MB

     Dynamical RAM for           local pot:       0.00 MB

     Dynamical RAM for          nlocal pot:       0.08 MB

     Dynamical RAM for                qrad:       1.70 MB

     Dynamical RAM for          rho,v,vnew:       0.24 MB

     Dynamical RAM for               rhoin:       0.08 MB

     Dynamical RAM for            rho*nmix:       0.56 MB

     Dynamical RAM for           G-vectors:       0.07 MB

     Dynamical RAM for          h,s,v(r/c):       0.08 MB

     Dynamical RAM for          <psi|beta>:       0.01 MB

     Dynamical RAM for                 psi:       0.09 MB

     Dynamical RAM for                hpsi:       0.09 MB

     Dynamical RAM for                spsi:       0.09 MB

     Dynamical RAM for      wfcinit/wfcrot:       0.10 MB

     Dynamical RAM for           addusdens:       3.28 MB

     Estimated static dynamical RAM per process >       9.09 MB

     Estimated max dynamical RAM per process >      12.93 MB

     Estimated total dynamical RAM >     258.56 MB

     Check: negative core charge=   -0.000044
     Generating pointlists ...
     new r_m :   0.4125 (alat units)  1.9059 (a.u.) for type    1

     The initial density is read from file :
     ./out/Co.save/charge-density


     starting charge      34.0422, renormalised to      34.0000
     Starting wfcs from file
     Checking if some PAW data can be deallocated... 

     total cpu time spent up to now is        0.6 secs

     Self-consistent Calculation

     iteration #  1     ecut=   110.00 Ry     beta= 0.70
     Davidson diagonalization with overlap

---- Real-time Memory Report at c_bands before calling an iterative solver
            54 MiB given to the printing process from OS
             0 MiB allocation reported by mallinfo(arena+hblkhd)
        240946 MiB available memory on the node where the printing process lives
------------------
     ethr =  1.00E-05,  avg # of iterations =  2.4

     total cpu time spent up to now is        2.5 secs

     total energy              =    -753.45271993 Ry
     estimated scf accuracy    <       0.00066221 Ry

     total magnetization       =     3.18 Bohr mag/cell
     absolute magnetization    =     3.49 Bohr mag/cell

     iteration #  2     ecut=   110.00 Ry     beta= 0.70
     Davidson diagonalization with overlap

---- Real-time Memory Report at c_bands before calling an iterative solver
            77 MiB given to the printing process from OS
             0 MiB allocation reported by mallinfo(arena+hblkhd)
        240752 MiB available memory on the node where the printing process lives
------------------
     ethr =  1.95E-06,  avg # of iterations =  4.3

     total cpu time spent up to now is        4.6 secs

     total energy              =    -753.45299753 Ry
     estimated scf accuracy    <       0.00133679 Ry

     total magnetization       =     3.19 Bohr mag/cell
     absolute magnetization    =     3.49 Bohr mag/cell

     iteration #  3     ecut=   110.00 Ry     beta= 0.70
     Davidson diagonalization with overlap

---- Real-time Memory Report at c_bands before calling an iterative solver
            79 MiB given to the printing process from OS
             0 MiB allocation reported by mallinfo(arena+hblkhd)
        240738 MiB available memory on the node where the printing process lives
------------------
     ethr =  1.95E-06,  avg # of iterations =  3.8

     total cpu time spent up to now is        6.5 secs

     total energy              =    -753.45336508 Ry
     estimated scf accuracy    <       0.00000369 Ry

     total magnetization       =     3.18 Bohr mag/cell
     absolute magnetization    =     3.48 Bohr mag/cell

     iteration #  4     ecut=   110.00 Ry     beta= 0.70
     Davidson diagonalization with overlap

---- Real-time Memory Report at c_bands before calling an iterative solver
            80 MiB given to the printing process from OS
             0 MiB allocation reported by mallinfo(arena+hblkhd)
        240729 MiB available memory on the node where the printing process lives
------------------
     ethr =  1.08E-08,  avg # of iterations =  8.0

     total cpu time spent up to now is        9.8 secs

     total energy              =    -753.45338769 Ry
     estimated scf accuracy    <       0.00000882 Ry

     total magnetization       =     3.17 Bohr mag/cell
     absolute magnetization    =     3.48 Bohr mag/cell

     iteration #  5     ecut=   110.00 Ry     beta= 0.70
     Davidson diagonalization with overlap

---- Real-time Memory Report at c_bands before calling an iterative solver
            82 MiB given to the printing process from OS
             0 MiB allocation reported by mallinfo(arena+hblkhd)
        240720 MiB available memory on the node where the printing process lives
------------------
     ethr =  1.08E-08,  avg # of iterations =  3.9
 
     Magnetic moment per site  (integrated on atomic sphere of radius R)
     atom   1 (R=0.413)  charge= 15.5581  magn=  1.6587
     atom   2 (R=0.413)  charge= 15.5581  magn=  1.6587

     total cpu time spent up to now is       11.8 secs

     End of self-consistent calculation

 ------ SPIN UP ------------


          k = 0.0000 0.0000 0.0000 (  2767 PWs)   bands (ev):

   -76.5608 -76.4994 -39.9736 -39.6424 -39.6424 -39.6176 -39.5942 -39.5942
    10.3333  14.1762  16.7731  16.9139  16.9139  17.2252  17.2252  17.6749
    17.6749  18.7699  18.7699  19.0680  25.9148

     occupation numbers 
     1.0000   1.0000   1.0000   1.0000   1.0000   1.0000   1.0000   1.0000
     1.0000   1.0000   1.0000   1.0000   1.0000   1.0000   1.0000   1.0000
     1.0000   1.0000   1.0000   1.0000   0.0000

          k = 0.0000 0.0000 0.1010 (  2761 PWs)   bands (ev):

   -76.5567 -76.5036 -39.9501 -39.6418 -39.6392 -39.6392 -39.5974 -39.5974
    10.6105  14.0966  16.7030  16.8599  16.8599  17.1563  17.1563  17.8266
    17.8266  18.1621  18.7493  18.7493  27.3904

     occupation numbers 
     1.0000   1.0000   1.0000   1.0000   1.0000   1.0000   1.0000   1.0000
     1.0000   1.0000   1.0000   1.0000   1.0000   1.0000   1.0000   1.0000
     1.0000   1.0000   1.0000   1.0000   0.0000

          k = 0.0000 0.0000 0.2020 (  2762 PWs)   bands (ev):

   -76.5455 -76.5148 -39.8856 -39.7076 -39.6304 -39.6304 -39.6063 -39.6063
    11.4046  13.6332  16.5417  16.8130  16.8130  16.8997  17.0027  17.0027
    18.1385  18.1385  18.6540  18.6540  30.5559

     occupation numbers 
     1.0000   1.0000   1.0000   1.0000   1.0000   1.0000   1.0000   1.0000
     1.0000   1.0000   1.0000   1.0000   1.0000   1.0000   1.0000   1.0000
     1.0000   1.0000   1.0000   1.0000   0.0000

          k = 0.0000 0.0000-0.3030 (  2774 PWs)   bands (ev):

   -76.5302 -76.5302 -39.7969 -39.7969 -39.6183 -39.6183 -39.6183 -39.6183
    12.5602  12.5602  16.4652  16.4652  16.8644  16.8644  16.8644  16.8644
    18.4436  18.4436  18.4436  18.4436  34.3542

     occupation numbers 
     1.0000   1.0000   1.0000   1.0000   1.0000   1.0000   1.0000   1.0000
     1.0000   1.0000   1.0000   1.0000   1.0000   1.0000   1.0000   1.0000
     1.0000   1.0000   1.0000   1.0000   0.0000

          k = 0.0000 0.0962 0.0000 (  2747 PWs)   bands (ev):

   -76.5569 -76.4974 -39.9655 -39.6616 -39.6484 -39.6205 -39.6140 -39.5975
    10.5857  14.3348  16.6257  17.0253  17.0371  17.1674  17.3357  17.4672
    17.5995  17.8390  18.7997  20.3661  25.9519

     occupation numbers 
     1.0000   1.0000   1.0000   1.0000   1.0000   1.0000   1.0000   1.0000
     1.0000   1.0000   1.0000   1.0000   1.0000   1.0000   1.0000   1.0000
     1.0000   1.0000   1.0000   0.0000   0.0000

          k = 0.0000 0.0962 0.1010 (  2752 PWs)   bands (ev):

   -76.5529 -76.5014 -39.9433 -39.6580 -39.6489 -39.6450 -39.6120 -39.6010
    10.8585  14.2696  16.6241  16.8654  16.9687  16.9731  17.2611  17.4869
    17.7755  17.8228  18.7716  19.6663  27.4988

     occupation numbers 
     1.0000   1.0000   1.0000   1.0000   1.0000   1.0000   1.0000   1.0000
     1.0000   1.0000   1.0000   1.0000   1.0000   1.0000   1.0000   1.0000
     1.0000   1.0000   1.0000   0.0000   0.0000

          k = 0.0000 0.0962 0.2020 (  2758 PWs)   bands (ev):

   -76.5420 -76.5123 -39.8823 -39.7133 -39.6476 -39.6357 -39.6203 -39.6103
    11.6396  13.8327  16.4928  16.5328  16.7220  16.9138  17.1056  17.1143
    18.1085  18.1501  18.6590  18.9515  30.7138

     occupation numbers 
     1.0000   1.0000   1.0000   1.0000   1.0000   1.0000   1.0000   1.0000
     1.0000   1.0000   1.0000   1.0000   1.0000   1.0000   1.0000   1.0000
     1.0000   1.0000   1.0000   1.0000   0.0000

          k = 0.0000 0.0962-0.3030 (  2778 PWs)   bands (ev):

   -76.5272 -76.5272 -39.7983 -39.7983 -39.6337 -39.6337 -39.6230 -39.6230
    12.7766  12.7766  16.3384  16.3384  16.8515  16.8515  16.9657  16.9657
    18.4302  18.4302  18.5343  18.5343  34.5307

     occupation numbers 
     1.0000   1.0000   1.0000   1.0000   1.0000   1.0000   1.0000   1.0000
     1.0000   1.0000   1.0000   1.0000   1.0000   1.0000   1.0000   1.0000
     1.0000   1.0000   1.0000   1.0000   0.0000

          k = 0.0000 0.1925 0.0000 (  2743 PWs)   bands (ev):

   -76.5460 -76.4920 -39.9426 -39.7143 -39.6675 -39.6646 -39.6293 -39.6070
    11.3143  14.7276  16.3591  16.6039  16.9564  17.3431  17.3851  17.4138
    17.5434  17.6455  18.8614  22.0173  26.0850

     occupation numbers 
     1.0000   1.0000   1.0000   1.0000   1.0000   1.0000   1.0000   1.0000
     1.0000   1.0000   1.0000   1.0000   1.0000   1.0000   1.0000   1.0000
     1.0000   1.0000   1.0000   0.0000   0.0000

          k = 0.0000 0.1925 0.1010 (  2755 PWs)   bands (ev):

   -76.5424 -76.4956 -39.9246 -39.7090 -39.6863 -39.6607 -39.6342 -39.6109
    11.5702  14.7069  16.3230  16.4034  16.8340  17.2166  17.2260  17.5350
    17.7335  17.7985  18.8170  20.9248  27.8541

     occupation numbers 
     1.0000   1.0000   1.0000   1.0000   1.0000   1.0000   1.0000   1.0000
     1.0000   1.0000   1.0000   1.0000   1.0000   1.0000   1.0000   1.0000
     1.0000   1.0000   1.0000   0.0000   0.0000

          k = 0.0000 0.1925 0.2020 (  2746 PWs)   bands (ev):

   -76.5325 -76.5055 -39.8753 -39.7392 -39.6916 -39.6502 -39.6490 -39.6214
    12.3001  14.3474  15.9865  16.4679  16.5394  17.0492  17.1636  17.3901
    18.0720  18.2228  18.6691  19.6012  31.1873

     occupation numbers 
     1.0000   1.0000   1.0000   1.0000   1.0000   1.0000   1.0000   1.0000
     1.0000   1.0000   1.0000   1.0000   1.0000   1.0000   1.0000   1.0000
     1.0000   1.0000   1.0000   0.0000   0.0000

          k = 0.0000 0.1925-0.3030 (  2764 PWs)   bands (ev):

   -76.5190 -76.5190 -39.8075 -39.8075 -39.6703 -39.6703 -39.6358 -39.6358
    13.3574  13.3574  16.1163  16.1163  16.7693  16.7693  17.2363  17.2363
    18.4092  18.4092  18.7797  18.7797  35.0223

     occupation numbers 
     1.0000   1.0000   1.0000   1.0000   1.0000   1.0000   1.0000   1.0000
     1.0000   1.0000   1.0000   1.0000   1.0000   1.0000   1.0000   1.0000
     1.0000   1.0000   1.0000   1.0000   0.0000

          k = 0.0000 0.2887 0.0000 (  2757 PWs)   bands (ev):

   -76.5307 -76.4851 -39.9083 -39.7868 -39.7395 -39.6861 -39.6443 -39.6205
    12.4114  15.0381  15.8432  16.2002  16.8343  17.1907  17.3163  17.8098
    17.8909  18.0909  18.9171  23.8611  26.3503

     occupation numbers 
     1.0000   1.0000   1.0000   1.0000   1.0000   1.0000   1.0000   1.0000
     1.0000   1.0000   1.0000   1.0000   1.0000   1.0000   1.0000   1.0000
     1.0000   1.0000   1.0000   0.0000   0.0000

          k = 0.0000 0.2887 0.1010 (  2747 PWs)   bands (ev):

   -76.5276 -76.4881 -39.9005 -39.7762 -39.7527 -39.6817 -39.6496 -39.6249
    12.6219  15.0707  15.7001  16.2567  16.6852  17.2308  17.3014  17.9317
    17.9536  18.0509  18.8592  22.2322  28.5015

     occupation numbers 
     1.0000   1.0000   1.0000   1.0000   1.0000   1.0000   1.0000   1.0000
     1.0000   1.0000   1.0000   1.0000   1.0000   1.0000   1.0000   1.0000
     1.0000   1.0000   1.0000   0.0000   0.0000

          k = 0.0000 0.2887 0.2020 (  2732 PWs)   bands (ev):

   -76.5193 -76.4965 -39.8767 -39.7954 -39.7389 -39.6697 -39.6685 -39.6369
    13.2085  14.7961  15.6468  16.2650  16.5754  17.1327  17.3556  17.7889
    18.2002  18.3753  18.6939  20.3815  31.8774

     occupation numbers 
     1.0000   1.0000   1.0000   1.0000   1.0000   1.0000   1.0000   1.0000
     1.0000   1.0000   1.0000   1.0000   1.0000   1.0000   1.0000   1.0000
     1.0000   1.0000   1.0000   0.0000   0.0000

          k = 0.0000 0.2887-0.3030 (  2736 PWs)   bands (ev):

   -76.5079 -76.5079 -39.8389 -39.8389 -39.7010 -39.7010 -39.6533 -39.6533
    14.0239  14.0239  15.9517  15.9517  16.8345  16.8345  17.5569  17.5569
    18.4540  18.4540  19.1262  19.1262  34.4339

     occupation numbers 
     1.0000   1.0000   1.0000   1.0000   1.0000   1.0000   1.0000   1.0000
     1.0000   1.0000   1.0000   1.0000   1.0000   1.0000   1.0000   1.0000
     1.0000   1.0000   1.0000   1.0000   0.0000

          k = 0.0000 0.3849 0.0000 (  2740 PWs)   bands (ev):

   -76.5143 -76.4791 -39.8684 -39.8598 -39.8101 -39.7071 -39.6648 -39.6343
    13.5951  14.9558  15.3009  16.3216  16.9682  16.9897  17.1029  18.4328
    18.5619  18.5730  18.9528  25.8635  26.4630

     occupation numbers 
     1.0000   1.0000   1.0000   1.0000   1.0000   1.0000   1.0000   1.0000
     1.0000   1.0000   1.0000   1.0000   1.0000   1.0000   1.0000   1.0000
     1.0000   1.0000   1.0000   0.0000   0.0000

          k = 0.0000 0.3849 0.1010 (  2746 PWs)   bands (ev):

   -76.5120 -76.4815 -39.8961 -39.8321 -39.8081 -39.7022 -39.6669 -39.6392
    13.6856  14.9716  15.3490  16.1506  16.9122  17.0846  17.4666  18.4425
    18.4836  18.4978  18.9045  23.4943  28.8117

     occupation numbers 
     1.0000   1.0000   1.0000   1.0000   1.0000   1.0000   1.0000   1.0000
     1.0000   1.0000   1.0000   1.0000   1.0000   1.0000   1.0000   1.0000
     1.0000   1.0000   1.0000   0.0000   0.0000

          k = 0.0000 0.3849 0.2020 (  2744 PWs)   bands (ev):

   -76.5055 -76.4879 -39.9050 -39.8605 -39.7579 -39.6889 -39.6798 -39.6526
    13.9473  14.7730  15.5088  16.0256  17.0481  17.3520  17.8016  18.1483
    18.5528  18.6156  18.7971  21.2759  30.1031

     occupation numbers 
     1.0000   1.0000   1.0000   1.0000   1.0000   1.0000   1.0000   1.0000
     1.0000   1.0000   1.0000   1.0000   1.0000   1.0000   1.0000   1.0000
     1.0000   1.0000   1.0000   0.0000   0.0000

          k = 0.0000 0.3849-0.3030 (  2746 PWs)   bands (ev):

   -76.4967 -76.4967 -39.8907 -39.8907 -39.7109 -39.7109 -39.6708 -39.6708
    14.3438  14.3438  15.7994  15.7994  17.4812  17.4812  17.7380  17.7380
    18.6710  18.6710  19.6104  19.6104  31.2119

     occupation numbers 
     1.0000   1.0000   1.0000   1.0000   1.0000   1.0000   1.0000   1.0000
     1.0000   1.0000   1.0000   1.0000   1.0000   1.0000   1.0000   1.0000
     1.0000   1.0000   0.0000   0.0000   0.0000

          k = 0.0000 0.4811 0.0000 (  2736 PWs)   bands (ev):

   -76.5011 -76.4761 -39.9136 -39.8611 -39.8317 -39.7222 -39.6874 -39.6447
    14.3526  14.7528  14.9786  16.6990  16.8524  16.9506  17.1972  18.8412
    18.9704  18.9705  19.7523  24.7935  27.9268

     occupation numbers 
     1.0000   1.0000   1.0000   1.0000   1.0000   1.0000   1.0000   1.0000
     1.0000   1.0000   1.0000   1.0000   1.0000   1.0000   1.0000   1.0000
     1.0000   1.0000   0.0000   0.0000   0.0000

          k = 0.0000 0.4811 0.1010 (  2750 PWs)   bands (ev):

   -76.4994 -76.4777 -39.9292 -39.8774 -39.8017 -39.7170 -39.6853 -39.6499
    14.2309  14.7324  15.3117  16.0322  16.9675  17.2118  17.8473  18.7318
    18.8661  19.0219  19.5803  23.9079  27.4533

     occupation numbers 
     1.0000   1.0000   1.0000   1.0000   1.0000   1.0000   1.0000   1.0000
     1.0000   1.0000   1.0000   1.0000   1.0000   1.0000   1.0000   1.0000
     1.0000   1.0000   0.0000   0.0000   0.0000

          k = 0.0000 0.4811 0.2020 (  2747 PWs)   bands (ev):

   -76.4948 -76.4823 -39.9428 -39.9092 -39.7522 -39.7029 -39.6891 -39.6641
    14.1852  14.6555  15.4915  15.8050  17.2941  17.5010  18.3000  18.8897
    18.9012  18.9999  19.1980  22.1291  27.6705

     occupation numbers 
     1.0000   1.0000   1.0000   1.0000   1.0000   1.0000   1.0000   1.0000
     1.0000   1.0000   1.0000   1.0000   1.0000   1.0000   1.0000   1.0000
     1.0000   1.0000   1.0000   0.0000   0.0000

          k = 0.0000 0.4811-0.3030 (  2742 PWs)   bands (ev):

   -76.4886 -76.4886 -39.9354 -39.9354 -39.7112 -39.7112 -39.6835 -39.6835
    14.3655  14.3655  15.6621  15.6621  17.7730  17.7730  18.2497  18.2497
    18.9521  18.9521  20.4484  20.4484  28.4426

     occupation numbers 
     1.0000   1.0000   1.0000   1.0000   1.0000   1.0000   1.0000   1.0000
     1.0000   1.0000   1.0000   1.0000   1.0000   1.0000   1.0000   1.0000
     1.0000   1.0000   0.0000   0.0000   0.0000

          k = 0.0000-0.5774 0.0000 (  2722 PWs)   bands (ev):

   -76.4956 -76.4756 -39.9333 -39.8796 -39.8146 -39.7277 -39.6993 -39.6484
    14.5843  14.6260  14.8719  16.8038  16.8955  16.9686  17.2732  18.9755
    18.9894  19.1313  20.9512  23.0698  29.2649

     occupation numbers 
     1.0000   1.0000   1.0000   1.0000   1.0000   1.0000   1.0000   1.0000
     1.0000   1.0000   1.0000   1.0000   1.0000   1.0000   1.0000   1.0000
     1.0000   1.0000   0.0000   0.0000   0.0000

          k = 0.0000-0.5774 0.1010 (  2750 PWs)   bands (ev):

   -76.4943 -76.4769 -39.9458 -39.8952 -39.7906 -39.7224 -39.6949 -39.6538
    14.3236  14.6313  15.3415  16.0032  16.9247  17.3006  18.0667  18.7783
    19.0202  19.1237  20.7119  22.8627  28.4883

     occupation numbers 
     1.0000   1.0000   1.0000   1.0000   1.0000   1.0000   1.0000   1.0000
     1.0000   1.0000   1.0000   1.0000   1.0000   1.0000   1.0000   1.0000
     1.0000   1.0000   0.0000   0.0000   0.0000

          k = 0.0000-0.5774 0.2020 (  2756 PWs)   bands (ev):

   -76.4906 -76.4806 -39.9588 -39.9270 -39.7466 -39.7080 -39.6938 -39.6684
    14.1998  14.6084  15.5237  15.7002  17.2681  17.6485  18.3281  19.0175
    19.0445  19.1029  20.3053  22.1881  27.5235

     occupation numbers 
     1.0000   1.0000   1.0000   1.0000   1.0000   1.0000   1.0000   1.0000
     1.0000   1.0000   1.0000   1.0000   1.0000   1.0000   1.0000   1.0000
     1.0000   1.0000   0.0000   0.0000   0.0000

          k = 0.0000-0.5774-0.3030 (  2748 PWs)   bands (ev):

   -76.4856 -76.4856 -39.9524 -39.9524 -39.7105 -39.7105 -39.6882 -39.6882
    14.3462  14.3462  15.6096  15.6096  17.7726  17.7726  18.5036  18.5036
    19.0741  19.0741  21.1086  21.1086  27.1647

     occupation numbers 
     1.0000   1.0000   1.0000   1.0000   1.0000   1.0000   1.0000   1.0000
     1.0000   1.0000   1.0000   1.0000   1.0000   1.0000   1.0000   1.0000
     1.0000   1.0000   0.0000   0.0000   0.0000

          k = 0.0833 0.1443 0.0000 (  2745 PWs)   bands (ev):

   -76.5495 -76.4937 -39.9501 -39.6944 -39.6692 -39.6417 -39.6264 -39.6064
    11.0772  14.6172  16.4162  16.8644  17.0481  17.1739  17.2886  17.3668
    17.5764  17.6909  18.8331  21.5575  26.0391

     occupation numbers 
     1.0000   1.0000   1.0000   1.0000   1.0000   1.0000   1.0000   1.0000
     1.0000   1.0000   1.0000   1.0000   1.0000   1.0000   1.0000   1.0000
     1.0000   1.0000   1.0000   0.0000   0.0000

          k = 0.0833 0.1443 0.1010 (  2742 PWs)   bands (ev):

   -76.5458 -76.4974 -39.9305 -39.6895 -39.6768 -39.6550 -39.6268 -39.6101
    11.3395  14.5820  16.4479  16.5203  16.8863  17.1404  17.2146  17.4445
    17.7399  17.8154  18.7967  20.5833  27.7328

     occupation numbers 
     1.0000   1.0000   1.0000   1.0000   1.0000   1.0000   1.0000   1.0000
     1.0000   1.0000   1.0000   1.0000   1.0000   1.0000   1.0000   1.0000
     1.0000   1.0000   1.0000   0.0000   0.0000

          k = 0.0833 0.1443 0.2020 (  2752 PWs)   bands (ev):

   -76.5356 -76.5077 -39.8770 -39.7290 -39.6762 -39.6523 -39.6351 -39.6199
    12.0893  14.1969  16.1133  16.5074  16.5610  17.0389  17.1125  17.3039
    18.1040  18.1728  18.6675  19.4132  31.0322

     occupation numbers 
     1.0000   1.0000   1.0000   1.0000   1.0000   1.0000   1.0000   1.0000
     1.0000   1.0000   1.0000   1.0000   1.0000   1.0000   1.0000   1.0000
     1.0000   1.0000   1.0000   1.0000   0.0000

          k = 0.0833 0.1443-0.3030 (  2762 PWs)   bands (ev):

   -76.5216 -76.5216 -39.8034 -39.8034 -39.6593 -39.6593 -39.6325 -39.6325
    13.1791  13.1791  16.1748  16.1748  16.7735  16.7735  17.1644  17.1644
    18.4152  18.4152  18.7036  18.7036  34.8725

     occupation numbers 
     1.0000   1.0000   1.0000   1.0000   1.0000   1.0000   1.0000   1.0000
     1.0000   1.0000   1.0000   1.0000   1.0000   1.0000   1.0000   1.0000
     1.0000   1.0000   1.0000   1.0000   0.0000

          k = 0.0833 0.2406 0.0000 (  2743 PWs)   bands (ev):

   -76.5364 -76.4875 -39.9214 -39.7525 -39.7217 -39.6715 -39.6383 -39.6215
    11.9996  15.0208  16.1196  16.1373  16.8957  17.1155  17.4537  17.5362
    17.7478  18.0297  18.8720  23.1983  26.2603

     occupation numbers 
     1.0000   1.0000   1.0000   1.0000   1.0000   1.0000   1.0000   1.0000
     1.0000   1.0000   1.0000   1.0000   1.0000   1.0000   1.0000   1.0000
     1.0000   1.0000   1.0000   0.0000   0.0000

          k = 0.0833 0.2406 0.1010 (  2750 PWs)   bands (ev):

   -76.5331 -76.4908 -39.9086 -39.7454 -39.7314 -39.6751 -39.6416 -39.6253
    12.2330  15.0452  15.9050  16.1916  16.7865  17.0735  17.3546  17.6428
    17.9415  18.0049  18.8308  21.7846  28.2561

     occupation numbers 
     1.0000   1.0000   1.0000   1.0000   1.0000   1.0000   1.0000   1.0000
     1.0000   1.0000   1.0000   1.0000   1.0000   1.0000   1.0000   1.0000
     1.0000   1.0000   1.0000   0.0000   0.0000

          k = 0.0833 0.2406 0.2020 (  2744 PWs)   bands (ev):

   -76.5242 -76.4998 -39.8730 -39.7713 -39.7199 -39.6761 -39.6518 -39.6358
    12.8925  14.7386  15.7350  16.3087  16.4951  16.9395  17.3254  17.6515
    18.1925  18.2949  18.7026  20.1128  31.6592

     occupation numbers 
     1.0000   1.0000   1.0000   1.0000   1.0000   1.0000   1.0000   1.0000
     1.0000   1.0000   1.0000   1.0000   1.0000   1.0000   1.0000   1.0000
     1.0000   1.0000   1.0000   0.0000   0.0000

          k = 0.0833 0.2406-0.3030 (  2746 PWs)   bands (ev):

   -76.5120 -76.5120 -39.8229 -39.8229 -39.6922 -39.6922 -39.6490 -39.6490
    13.8341  13.8341  16.0194  16.0194  16.6534  16.6534  17.4719  17.4719
    18.4590  18.4590  19.0032  19.0032  35.3840

     occupation numbers 
     1.0000   1.0000   1.0000   1.0000   1.0000   1.0000   1.0000   1.0000
     1.0000   1.0000   1.0000   1.0000   1.0000   1.0000   1.0000   1.0000
     1.0000   1.0000   1.0000   1.0000   0.0000

          k = 0.0833 0.3368 0.0000 (  2747 PWs)   bands (ev):

   -76.5205 -76.4811 -39.8840 -39.8235 -39.7844 -39.7004 -39.6564 -39.6379
    13.1809  15.1432  15.5261  16.0786  16.8894  16.9078  17.3110  17.9076
    18.2930  18.6424  18.9031  25.0823  26.6119

     occupation numbers 
     1.0000   1.0000   1.0000   1.0000   1.0000   1.0000   1.0000   1.0000
     1.0000   1.0000   1.0000   1.0000   1.0000   1.0000   1.0000   1.0000
     1.0000   1.0000   1.0000   0.0000   0.0000

          k = 0.0833 0.3368 0.1010 (  2737 PWs)   bands (ev):

   -76.5179 -76.4838 -39.8895 -39.8092 -39.7881 -39.6997 -39.6590 -39.6413
    13.3394  15.1955  15.4402  16.1257  16.6908  17.1415  17.2699  17.9513
    18.3788  18.4923  18.9203  23.0732  29.0314

     occupation numbers 
     1.0000   1.0000   1.0000   1.0000   1.0000   1.0000   1.0000   1.0000
     1.0000   1.0000   1.0000   1.0000   1.0000   1.0000   1.0000   1.0000
     1.0000   1.0000   1.0000   0.0000   0.0000

          k = 0.0833 0.3368 0.2020 (  2743 PWs)   bands (ev):

   -76.5107 -76.4910 -39.8863 -39.8321 -39.7520 -39.6953 -39.6695 -39.6516
    13.7701  14.9198  15.5764  16.1734  16.6146  17.1214  17.3818  17.9950
    18.4256  18.6035  18.8903  20.9786  31.7167

     occupation numbers 
     1.0000   1.0000   1.0000   1.0000   1.0000   1.0000   1.0000   1.0000
     1.0000   1.0000   1.0000   1.0000   1.0000   1.0000   1.0000   1.0000
     1.0000   1.0000   1.0000   0.0000   0.0000

          k = 0.0833 0.3368-0.3030 (  2740 PWs)   bands (ev):

   -76.5008 -76.5008 -39.8650 -39.8650 -39.7117 -39.7117 -39.6668 -39.6668
    14.3515  14.3515  15.9206  15.9206  16.8517  16.8517  17.6715  17.6715
    18.6847  18.6847  19.4694  19.4694  32.9554

     occupation numbers 
     1.0000   1.0000   1.0000   1.0000   1.0000   1.0000   1.0000   1.0000
     1.0000   1.0000   1.0000   1.0000   1.0000   1.0000   1.0000   1.0000
     1.0000   1.0000   1.0000   1.0000   0.0000

          k = 0.0833 0.4330 0.0000 (  2743 PWs)   bands (ev):

   -76.5055 -76.4768 -39.8862 -39.8446 -39.8385 -39.7239 -39.6790 -39.6520
    14.2031  14.9480  15.1278  16.3255  16.7813  17.0782  17.1014  18.4844
    18.7560  18.9207  19.4866  26.0910  27.1243

     occupation numbers 
     1.0000   1.0000   1.0000   1.0000   1.0000   1.0000   1.0000   1.0000
     1.0000   1.0000   1.0000   1.0000   1.0000   1.0000   1.0000   1.0000
     1.0000   1.0000   1.0000   0.0000   0.0000

          k = 0.0833 0.4330 0.1010 (  2748 PWs)   bands (ev):

   -76.5036 -76.4787 -39.9070 -39.8567 -39.8062 -39.7203 -39.6790 -39.6550
    14.1826  14.9537  15.3017  16.0487  16.8565  17.1794  17.4243  18.4360
    18.7356  18.8161  19.4825  24.1872  28.0424

     occupation numbers 
     1.0000   1.0000   1.0000   1.0000   1.0000   1.0000   1.0000   1.0000
     1.0000   1.0000   1.0000   1.0000   1.0000   1.0000   1.0000   1.0000
     1.0000   1.0000   1.0000   0.0000   0.0000

          k = 0.0833 0.4330 0.2020 (  2748 PWs)   bands (ev):

   -76.4983 -76.4840 -39.9209 -39.8864 -39.7574 -39.7094 -39.6864 -39.6635
    14.2474  14.8151  15.5005  15.9755  16.9638  17.4217  17.8489  18.1837
    18.6139  18.9671  19.5339  22.0189  28.8081

     occupation numbers 
     1.0000   1.0000   1.0000   1.0000   1.0000   1.0000   1.0000   1.0000
     1.0000   1.0000   1.0000   1.0000   1.0000   1.0000   1.0000   1.0000
     1.0000   1.0000   0.4589   0.0000   0.0000

          k = 0.0833 0.4330-0.3030 (  2752 PWs)   bands (ev):

   -76.4912 -76.4912 -39.9125 -39.9125 -39.7197 -39.7197 -39.6798 -39.6798
    14.4841  14.4841  15.7828  15.7828  17.4156  17.4156  17.8389  17.8389
    18.9110  18.9110  20.3420  20.3420  29.8370

     occupation numbers 
     1.0000   1.0000   1.0000   1.0000   1.0000   1.0000   1.0000   1.0000
     1.0000   1.0000   1.0000   1.0000   1.0000   1.0000   1.0000   1.0000
     1.0000   1.0000   0.0000   0.0000   0.0000

          k = 0.0833 0.5292 0.0000 (  2746 PWs)   bands (ev):

   -76.4956 -76.4755 -39.9225 -39.8697 -39.8148 -39.7370 -39.6991 -39.6602
    14.6393  14.7791  14.9294  16.7158  16.7514  16.9059  17.2712  18.9084
    18.9274  18.9953  20.8029  23.8584  29.0722

     occupation numbers 
     1.0000   1.0000   1.0000   1.0000   1.0000   1.0000   1.0000   1.0000
     1.0000   1.0000   1.0000   1.0000   1.0000   1.0000   1.0000   1.0000
     1.0000   1.0000   0.0000   0.0000   0.0000

          k = 0.0833 0.5292 0.1010 (  2745 PWs)   bands (ev):

   -76.4943 -76.4769 -39.9352 -39.8857 -39.7923 -39.7303 -39.6965 -39.6632
    14.4125  14.7727  15.3859  15.9884  16.7950  17.3591  17.7178  18.7155
    18.9185  19.0244  20.7201  23.5494  27.9297

     occupation numbers 
     1.0000   1.0000   1.0000   1.0000   1.0000   1.0000   1.0000   1.0000
     1.0000   1.0000   1.0000   1.0000   1.0000   1.0000   1.0000   1.0000
     1.0000   1.0000   0.0000   0.0000   0.0000

          k = 0.0833 0.5292 0.2020 (  2742 PWs)   bands (ev):

   -76.4906 -76.4805 -39.9483 -39.9174 -39.7543 -39.7120 -39.7007 -39.6702
    14.3113  14.7442  15.5335  15.8193  16.9689  17.7307  18.1453  18.4407
    18.8770  19.0837  20.7249  22.6125  27.2986

     occupation numbers 
     1.0000   1.0000   1.0000   1.0000   1.0000   1.0000   1.0000   1.0000
     1.0000   1.0000   1.0000   1.0000   1.0000   1.0000   1.0000   1.0000
     1.0000   1.0000   0.0000   0.0000   0.0000

          k = 0.0833 0.5292-0.3030 (  2746 PWs)   bands (ev):

   -76.4856 -76.4856 -39.9423 -39.9423 -39.7238 -39.7238 -39.6852 -39.6852
    14.4673  14.4673  15.6896  15.6896  17.5317  17.5317  18.2896  18.2896
    18.9546  18.9546  21.4526  21.4526  27.5865

     occupation numbers 
     1.0000   1.0000   1.0000   1.0000   1.0000   1.0000   1.0000   1.0000
     1.0000   1.0000   1.0000   1.0000   1.0000   1.0000   1.0000   1.0000
     1.0000   1.0000   0.0000   0.0000   0.0000

          k = 0.1667 0.2887 0.0000 (  2742 PWs)   bands (ev):

   -76.5227 -76.4819 -39.8894 -39.7955 -39.7862 -39.6933 -39.6535 -39.6474
    13.0353  15.3508  15.6461  15.8236  16.8231  16.8985  17.4263  17.6312
    18.2778  18.6704  18.8573  24.8197  26.6508

     occupation numbers 
     1.0000   1.0000   1.0000   1.0000   1.0000   1.0000   1.0000   1.0000
     1.0000   1.0000   1.0000   1.0000   1.0000   1.0000   1.0000   1.0000
     1.0000   1.0000   1.0000   0.0000   0.0000

          k = 0.1667 0.2887 0.1010 (  2743 PWs)   bands (ev):

   -76.5200 -76.4847 -39.8887 -39.7941 -39.7790 -39.7006 -39.6518 -39.6514
    13.2172  15.4455  15.4948  15.8795  16.7632  16.9079  17.3174  17.7528
    18.3951  18.4796  18.9340  22.9363  29.0048

     occupation numbers 
     1.0000   1.0000   1.0000   1.0000   1.0000   1.0000   1.0000   1.0000
     1.0000   1.0000   1.0000   1.0000   1.0000   1.0000   1.0000   1.0000
     1.0000   1.0000   1.0000   0.0000   0.0000

          k = 0.1667 0.2887 0.2020 (  2750 PWs)   bands (ev):

   -76.5125 -76.4921 -39.8784 -39.8197 -39.7432 -39.7057 -39.6612 -39.6577
    13.7160  15.0462  15.7048  16.0380  16.5484  16.7709  17.3281  17.9275
    18.4239  18.5978  18.9691  20.9054  32.3929

     occupation numbers 
     1.0000   1.0000   1.0000   1.0000   1.0000   1.0000   1.0000   1.0000
     1.0000   1.0000   1.0000   1.0000   1.0000   1.0000   1.0000   1.0000
     1.0000   1.0000   1.0000   0.0000   0.0000

          k = 0.1667 0.2887-0.3030 (  2748 PWs)   bands (ev):

   -76.5023 -76.5023 -39.8530 -39.8530 -39.7128 -39.7128 -39.6672 -39.6672
    14.3924  14.3924  16.0299  16.0299  16.4880  16.4880  17.6146  17.6146
    18.7366  18.7366  19.4531  19.4531  34.6837

     occupation numbers 
     1.0000   1.0000   1.0000   1.0000   1.0000   1.0000   1.0000   1.0000
     1.0000   1.0000   1.0000   1.0000   1.0000   1.0000   1.0000   1.0000
     1.0000   1.0000   1.0000   1.0000   0.0000

          k = 0.1667 0.3849 0.0000 (  2757 PWs)   bands (ev):

   -76.5080 -76.4773 -39.8516 -39.8511 -39.8277 -39.7260 -39.6746 -39.6725
    14.1639  15.2819  15.3188  15.8123  16.6457  17.0471  17.2059  17.9779
    18.7480  18.8406  19.5350  26.7254  27.0970

     occupation numbers 
     1.0000   1.0000   1.0000   1.0000   1.0000   1.0000   1.0000   1.0000
     1.0000   1.0000   1.0000   1.0000   1.0000   1.0000   1.0000   1.0000
     1.0000   1.0000   0.4131   0.0000   0.0000

          k = 0.1667 0.3849 0.1010 (  2745 PWs)   bands (ev):

   -76.5059 -76.4794 -39.8834 -39.8457 -39.7971 -39.7316 -39.6796 -39.6660
    14.2319  15.2142  15.4141  15.8950  16.6775  17.0530  17.1621  18.0305
    18.6292  18.8374  19.6130  24.2625  29.4515

     occupation numbers 
     1.0000   1.0000   1.0000   1.0000   1.0000   1.0000   1.0000   1.0000
     1.0000   1.0000   1.0000   1.0000   1.0000   1.0000   1.0000   1.0000
     1.0000   1.0000   0.0000   0.0000   0.0000

          k = 0.1667 0.3849 0.2020 (  2746 PWs)   bands (ev):

   -76.5003 -76.4850 -39.8974 -39.8670 -39.7550 -39.7314 -39.6871 -39.6654
    14.4243  15.0046  15.6638  16.1175  16.5793  16.8996  17.3138  18.0386
    18.5353  18.9895  19.7850  22.0503  30.5480

     occupation numbers 
     1.0000   1.0000   1.0000   1.0000   1.0000   1.0000   1.0000   1.0000
     1.0000   1.0000   1.0000   1.0000   1.0000   1.0000   1.0000   1.0000
     1.0000   1.0000   0.0000   0.0000   0.0000

          k = 0.1667 0.3849-0.3030 (  2746 PWs)   bands (ev):

   -76.4927 -76.4927 -39.8896 -39.8896 -39.7330 -39.7330 -39.6791 -39.6791
    14.7058  14.7058  16.0070  16.0070  16.6739  16.6739  17.6113  17.6113
    18.9617  18.9617  20.4568  20.4568  31.6829

     occupation numbers 
     1.0000   1.0000   1.0000   1.0000   1.0000   1.0000   1.0000   1.0000
     1.0000   1.0000   1.0000   1.0000   1.0000   1.0000   1.0000   1.0000
     1.0000   1.0000   0.0000   0.0000   0.0000

          k = 0.1667 0.4811 0.0000 (  2748 PWs)   bands (ev):

   -76.4957 -76.4755 -39.8946 -39.8501 -39.8153 -39.7558 -39.6986 -39.6897
    14.8606  15.0601  15.0987  16.1501  16.6028  16.9585  17.2651  18.4414
    18.8282  18.9689  20.7656  25.5612  28.7879

     occupation numbers 
     1.0000   1.0000   1.0000   1.0000   1.0000   1.0000   1.0000   1.0000
     1.0000   1.0000   1.0000   1.0000   1.0000   1.0000   1.0000   1.0000
     1.0000   1.0000   0.0000   0.0000   0.0000

          k = 0.1667 0.4811 0.1010 (  2751 PWs)   bands (ev):

   -76.4943 -76.4768 -39.9074 -39.8682 -39.7936 -39.7502 -39.7041 -39.6804
    14.6746  15.1473  15.3599  15.9386  16.6515  17.1030  17.3678  18.4328
    18.6327  19.0307  20.8410  24.9038  27.7914

     occupation numbers 
     1.0000   1.0000   1.0000   1.0000   1.0000   1.0000   1.0000   1.0000
     1.0000   1.0000   1.0000   1.0000   1.0000   1.0000   1.0000   1.0000
     1.0000   1.0000   0.0000   0.0000   0.0000

          k = 0.1667 0.4811 0.2020 (  2746 PWs)   bands (ev):

   -76.4906 -76.4805 -39.9220 -39.8967 -39.7713 -39.7361 -39.7048 -39.6728
    14.6196  15.0616  15.5566  16.1001  16.5433  17.2461  17.6251  18.1191
    18.6371  19.1061  21.1337  23.3189  27.9461

     occupation numbers 
     1.0000   1.0000   1.0000   1.0000   1.0000   1.0000   1.0000   1.0000
     1.0000   1.0000   1.0000   1.0000   1.0000   1.0000   1.0000   1.0000
     1.0000   1.0000   0.0000   0.0000   0.0000

          k = 0.1667 0.4811-0.3030 (  2752 PWs)   bands (ev):

   -76.4856 -76.4856 -39.9185 -39.9185 -39.7507 -39.7507 -39.6826 -39.6826
    14.7736  14.7736  15.8938  15.8938  16.9604  16.9604  17.7993  17.7993
    18.9652  18.9652  21.9183  21.9183  28.8170

     occupation numbers 
     1.0000   1.0000   1.0000   1.0000   1.0000   1.0000   1.0000   1.0000
     1.0000   1.0000   1.0000   1.0000   1.0000   1.0000   1.0000   1.0000
     1.0000   1.0000   0.0000   0.0000   0.0000

          k = 0.1667 0.5774 0.0000 (  2748 PWs)   bands (ev):

   -76.4903 -76.4756 -39.9104 -39.8574 -39.7970 -39.7678 -39.7124 -39.6959
    14.9862  14.9880  15.0338  16.3878  16.6436  16.8117  17.3587  18.7587
    18.8235  18.9287  22.0497  23.7192  30.3271

     occupation numbers 
     1.0000   1.0000   1.0000   1.0000   1.0000   1.0000   1.0000   1.0000
     1.0000   1.0000   1.0000   1.0000   1.0000   1.0000   1.0000   1.0000
     1.0000   1.0000   0.0000   0.0000   0.0000

          k = 0.1667 0.5774 0.1010 (  2749 PWs)   bands (ev):

   -76.4894 -76.4766 -39.9206 -39.8742 -39.7941 -39.7464 -39.7185 -39.6869
    14.6888  15.0594  15.5301  15.9188  16.5693  17.2308  17.4682  18.6059
    18.7565  18.9778  22.1319  23.6475  29.0373

     occupation numbers 
     1.0000   1.0000   1.0000   1.0000   1.0000   1.0000   1.0000   1.0000
     1.0000   1.0000   1.0000   1.0000   1.0000   1.0000   1.0000   1.0000
     1.0000   1.0000   0.0000   0.0000   0.0000

          k = 0.1667 0.5774 0.2020 (  2744 PWs)   bands (ev):

   -76.4867 -76.4793 -39.9332 -39.9061 -39.7797 -39.7352 -39.7096 -39.6765
    14.6122  15.0706  15.6001  16.0483  16.4585  17.4517  17.7641  18.1901
    18.7775  19.0189  22.4048  23.3856  27.8218

     occupation numbers 
     1.0000   1.0000   1.0000   1.0000   1.0000   1.0000   1.0000   1.0000
     1.0000   1.0000   1.0000   1.0000   1.0000   1.0000   1.0000   1.0000
     1.0000   1.0000   0.0000   0.0000   0.0000

          k = 0.1667 0.5774-0.3030 (  2740 PWs)   bands (ev):

   -76.4830 -76.4830 -39.9293 -39.9293 -39.7577 -39.7577 -39.6830 -39.6830
    14.7753  14.7753  15.8513  15.8513  17.0008  17.0008  18.0168  18.0168
    18.8988  18.8988  22.8973  22.8973  27.3632

     occupation numbers 
     1.0000   1.0000   1.0000   1.0000   1.0000   1.0000   1.0000   1.0000
     1.0000   1.0000   1.0000   1.0000   1.0000   1.0000   1.0000   1.0000
     1.0000   1.0000   0.0000   0.0000   0.0000

          k = 0.2500 0.4330 0.0000 (  2746 PWs)   bands (ev):

   -76.4957 -76.4754 -39.8705 -39.8483 -39.8155 -39.7601 -39.7117 -39.6984
    15.0209  15.1364  15.5473  15.5587  16.5148  16.9895  17.2725  18.1730
    18.7767  18.9691  20.7875  27.2956  28.2170

     occupation numbers 
     1.0000   1.0000   1.0000   1.0000   1.0000   1.0000   1.0000   1.0000
     1.0000   1.0000   1.0000   1.0000   1.0000   1.0000   1.0000   1.0000
     1.0000   1.0000   0.0000   0.0000   0.0000

          k = 0.2500 0.4330 0.1010 (  2744 PWs)   bands (ev):

   -76.4944 -76.4768 -39.8776 -39.8747 -39.7809 -39.7719 -39.7139 -39.6854
    15.0134  15.0861  15.5691  15.7279  16.6668  16.8291  17.2839  18.2265
    18.5707  19.0366  20.9063  25.6396  28.4946

     occupation numbers 
     1.0000   1.0000   1.0000   1.0000   1.0000   1.0000   1.0000   1.0000
     1.0000   1.0000   1.0000   1.0000   1.0000   1.0000   1.0000   1.0000
     1.0000   1.0000   0.0000   0.0000   0.0000

          k = 0.2500 0.4330 0.2020 (  2755 PWs)   bands (ev):

   -76.4907 -76.4805 -39.9012 -39.8892 -39.7775 -39.7571 -39.7053 -39.6738
    14.9855  15.0267  15.7406  16.1133  16.4849  16.7720  17.3451  18.0176
    18.6013  19.1150  21.2678  23.6032  29.2622

     occupation numbers 
     1.0000   1.0000   1.0000   1.0000   1.0000   1.0000   1.0000   1.0000
     1.0000   1.0000   1.0000   1.0000   1.0000   1.0000   1.0000   1.0000
     1.0000   1.0000   0.0000   0.0000   0.0000

          k = 0.2500 0.4330-0.3030 (  2750 PWs)   bands (ev):

   -76.4856 -76.4856 -39.9034 -39.9034 -39.7667 -39.7667 -39.6819 -39.6819
    14.9882  14.9882  16.0686  16.0686  16.5543  16.5543  17.5764  17.5764
    18.9864  18.9864  22.0924  22.0924  30.2711

     occupation numbers 
     1.0000   1.0000   1.0000   1.0000   1.0000   1.0000   1.0000   1.0000
     1.0000   1.0000   1.0000   1.0000   1.0000   1.0000   1.0000   1.0000
     1.0000   1.0000   0.0000   0.0000   0.0000

          k = 0.2500 0.5292 0.0000 (  2761 PWs)   bands (ev):

   -76.4867 -76.4763 -39.8844 -39.8392 -39.7952 -39.7835 -39.7372 -39.7233
    15.0738  15.3078  15.3903  15.9155  16.5314  16.7605  17.4512  18.4830
    18.7395  18.8835  22.4983  25.1557  27.5452

     occupation numbers 
     1.0000   1.0000   1.0000   1.0000   1.0000   1.0000   1.0000   1.0000
     1.0000   1.0000   1.0000   1.0000   1.0000   1.0000   1.0000   1.0000
     1.0000   1.0000   0.0000   0.0000   0.0000

          k = 0.2500 0.5292 0.1010 (  2753 PWs)   bands (ev):

   -76.4860 -76.4770 -39.8900 -39.8601 -39.8121 -39.7590 -39.7383 -39.7031
    15.0182  15.4238  15.5154  15.8008  16.5513  16.7667  17.4723  18.4877
    18.5507  18.9331  22.6795  25.1449  27.5381

     occupation numbers 
     1.0000   1.0000   1.0000   1.0000   1.0000   1.0000   1.0000   1.0000
     1.0000   1.0000   1.0000   1.0000   1.0000   1.0000   1.0000   1.0000
     1.0000   1.0000   0.0000   0.0000   0.0000

          k = 0.2500 0.5292 0.2020 (  2742 PWs)   bands (ev):

   -76.4841 -76.4789 -39.9039 -39.8885 -39.8121 -39.7713 -39.7042 -39.6821
    15.0302  15.4008  15.6669  16.0009  16.3887  16.7916  17.5426  18.0336
    18.6862  18.9842  23.1609  24.7713  27.4419

     occupation numbers 
     1.0000   1.0000   1.0000   1.0000   1.0000   1.0000   1.0000   1.0000
     1.0000   1.0000   1.0000   1.0000   1.0000   1.0000   1.0000   1.0000
     1.0000   1.0000   0.0000   0.0000   0.0000

          k = 0.2500 0.5292-0.3030 (  2720 PWs)   bands (ev):

   -76.4815 -76.4815 -39.9059 -39.9059 -39.7936 -39.7936 -39.6814 -39.6814
    15.1692  15.1692  15.9676  15.9676  16.5558  16.5558  17.6866  17.6866
    18.8933  18.8933  23.9121  23.9121  27.9924

     occupation numbers 
     1.0000   1.0000   1.0000   1.0000   1.0000   1.0000   1.0000   1.0000
     1.0000   1.0000   1.0000   1.0000   1.0000   1.0000   1.0000   1.0000
     1.0000   1.0000   0.0000   0.0000   0.0000

          k = 0.3333 0.5774 0.0000 (  2772 PWs)   bands (ev):

   -76.4800 -76.4800 -39.8706 -39.8207 -39.8207 -39.7681 -39.7521 -39.7521
    15.0943  15.5181  15.5181  15.7701  16.5896  16.5896  17.5547  18.6453
    18.6453  18.7041  24.2646  25.1780  25.1780

     occupation numbers 
     1.0000   1.0000   1.0000   1.0000   1.0000   1.0000   1.0000   1.0000
     1.0000   1.0000   1.0000   1.0000   1.0000   1.0000   1.0000   1.0000
     1.0000   1.0000   0.0000   0.0000   0.0000

          k = 0.3333 0.5774 0.1010 (  2745 PWs)   bands (ev):

   -76.4800 -76.4800 -39.8638 -39.8468 -39.8468 -39.7750 -39.7258 -39.7258
    15.1901  15.5324  15.5324  15.7866  16.5635  16.5635  17.5307  18.4720
    18.6972  18.6972  24.6607  25.2366  25.2366

     occupation numbers 
     1.0000   1.0000   1.0000   1.0000   1.0000   1.0000   1.0000   1.0000
     1.0000   1.0000   1.0000   1.0000   1.0000   1.0000   1.0000   1.0000
     1.0000   1.0000   0.0000   0.0000   0.0000

          k = 0.3333 0.5774 0.2020 (  2745 PWs)   bands (ev):

   -76.4800 -76.4800 -39.8791 -39.8791 -39.8451 -39.7938 -39.6933 -39.6933
    15.4338  15.5589  15.5589  15.7944  16.5185  16.5185  17.5056  17.9912
    18.7972  18.7972  25.3804  25.3804  25.6799

     occupation numbers 
     1.0000   1.0000   1.0000   1.0000   1.0000   1.0000   1.0000   1.0000
     1.0000   1.0000   1.0000   1.0000   1.0000   1.0000   1.0000   1.0000
     1.0000   1.0000   0.0000   0.0000   0.0000

          k = 0.3333 0.5774-0.3030 (  2712 PWs)   bands (ev):

   -76.4800 -76.4800 -39.8915 -39.8915 -39.8195 -39.8195 -39.6806 -39.6806
    15.5709  15.5709  15.6859  15.6859  16.4994  16.4994  17.6194  17.6194
    18.8457  18.8457  25.4713  25.4713  27.0853

     occupation numbers 
     1.0000   1.0000   1.0000   1.0000   1.0000   1.0000   1.0000   1.0000
     1.0000   1.0000   1.0000   1.0000   1.0000   1.0000   1.0000   1.0000
     1.0000   1.0000   0.0000   0.0000   0.0000

 ------ SPIN DOWN ----------


          k = 0.0000 0.0000 0.0000 (  2767 PWs)   bands (ev):

   -74.5261 -74.4602 -37.9979 -37.6649 -37.6649 -37.6133 -37.6133 -37.6108
    10.3358  15.0836  18.3728  18.5305  18.5305  18.8934  18.8934  19.0180
    19.4584  19.4584  20.6700  20.6700  26.9596

     occupation numbers 
     1.0000   1.0000   1.0000   1.0000   1.0000   1.0000   1.0000   1.0000
     1.0000   1.0000   1.0000   1.0000   1.0000   1.0000   1.0000   1.0000
     1.0000   1.0000   0.0000   0.0000   0.0000

          k = 0.0000 0.0000 0.1010 (  2761 PWs)   bands (ev):

   -74.5217 -74.4647 -37.9724 -37.6615 -37.6615 -37.6371 -37.6167 -37.6167
    10.6145  14.8476  18.2812  18.4609  18.4764  18.4764  18.8158  18.8158
    19.6226  19.6227  20.6487  20.6487  28.2427

     occupation numbers 
     1.0000   1.0000   1.0000   1.0000   1.0000   1.0000   1.0000   1.0000
     1.0000   1.0000   1.0000   1.0000   1.0000   1.0000   1.0000   1.0000
     0.0000   0.0000   0.0000   0.0000   0.0000

          k = 0.0000 0.0000 0.2020 (  2762 PWs)   bands (ev):

   -74.5097 -74.4767 -37.9023 -37.7088 -37.6520 -37.6520 -37.6262 -37.6262
    11.4194  13.9650  17.8441  18.0497  18.4297  18.4297  18.6435  18.6435
    19.9680  19.9680  20.5447  20.5447  31.1761

     occupation numbers 
     1.0000   1.0000   1.0000   1.0000   1.0000   1.0000   1.0000   1.0000
     1.0000   1.0000   1.0000   1.0000   1.0000   1.0000   1.0000   1.0000
     0.0000   0.0000   0.0000   0.0000   0.0000

          k = 0.0000 0.0000-0.3030 (  2774 PWs)   bands (ev):

   -74.4932 -74.4932 -37.8060 -37.8060 -37.6391 -37.6391 -37.6391 -37.6391
    12.6353  12.6353  17.8145  17.8145  18.4887  18.4887  18.4887  18.4887
    20.3097  20.3097  20.3097  20.3097  34.7946

     occupation numbers 
     1.0000   1.0000   1.0000   1.0000   1.0000   1.0000   1.0000   1.0000
     1.0000   1.0000   1.0000   1.0000   1.0000   1.0000   1.0000   1.0000
     0.0000   0.0000   0.0000   0.0000   0.0000

          k = 0.0000 0.0962 0.0000 (  2747 PWs)   bands (ev):

   -74.5219 -74.4580 -37.9891 -37.6858 -37.6714 -37.6348 -37.6168 -37.6139
    10.5894  15.2626  18.1920  18.4392  18.6556  18.6653  18.8177  19.0144
    19.3661  19.3704  20.7055  21.4831  26.9738

     occupation numbers 
     1.0000   1.0000   1.0000   1.0000   1.0000   1.0000   1.0000   1.0000
     1.0000   1.0000   1.0000   1.0000   1.0000   1.0000   1.0000   1.0000
     1.0000   1.0000   0.0000   0.0000   0.0000

          k = 0.0000 0.0962 0.1010 (  2752 PWs)   bands (ev):

   -74.5176 -74.4623 -37.9650 -37.6817 -37.6678 -37.6528 -37.6248 -37.6205
    10.8642  15.0387  18.0275  18.1875  18.4770  18.5974  18.8229  18.9301
    19.5603  19.5654  20.6751  21.1560  28.3253

     occupation numbers 
     1.0000   1.0000   1.0000   1.0000   1.0000   1.0000   1.0000   1.0000
     1.0000   1.0000   1.0000   1.0000   1.0000   1.0000   1.0000   1.0000
     0.0022   0.0004   0.0000   0.0000   0.0000

          k = 0.0000 0.0962 0.2020 (  2758 PWs)   bands (ev):

   -74.5060 -74.4741 -37.8990 -37.7173 -37.6704 -37.6578 -37.6391 -37.6305
    11.6577  14.1705  17.6331  18.0486  18.3107  18.5414  18.6460  18.7555
    19.9305  19.9623  20.5500  20.7439  31.3180

     occupation numbers 
     1.0000   1.0000   1.0000   1.0000   1.0000   1.0000   1.0000   1.0000
     1.0000   1.0000   1.0000   1.0000   1.0000   1.0000   1.0000   1.0000
     0.0000   0.0000   0.0000   0.0000   0.0000

          k = 0.0000 0.0962-0.3030 (  2778 PWs)   bands (ev):

   -74.4900 -74.4900 -37.8082 -37.8082 -37.6550 -37.6550 -37.6442 -37.6442
    12.8566  12.8566  17.7324  17.7324  18.4326  18.4326  18.5997  18.5997
    20.2925  20.2925  20.3722  20.3722  34.9647

     occupation numbers 
     1.0000   1.0000   1.0000   1.0000   1.0000   1.0000   1.0000   1.0000
     1.0000   1.0000   1.0000   1.0000   1.0000   1.0000   1.0000   1.0000
     0.0000   0.0000   0.0000   0.0000   0.0000

          k = 0.0000 0.1925 0.0000 (  2743 PWs)   bands (ev):

   -74.5102 -74.4522 -37.9640 -37.7431 -37.6929 -37.6889 -37.6270 -37.6233
    11.3261  15.7225  17.6063  17.8468  18.5527  18.9973  19.0482  19.1552
    19.1622  19.3547  20.7783  22.9620  27.0347

     occupation numbers 
     1.0000   1.0000   1.0000   1.0000   1.0000   1.0000   1.0000   1.0000
     1.0000   1.0000   1.0000   1.0000   1.0000   1.0000   1.0000   1.0000
     1.0000   1.0000   0.0000   0.0000   0.0000

          k = 0.0000 0.1925 0.1010 (  2755 PWs)   bands (ev):

   -74.5064 -74.4561 -37.9449 -37.7368 -37.7073 -37.6848 -37.6348 -37.6312
    11.5870  15.5387  17.3632  17.8923  18.4357  18.7557  18.8875  19.2276
    19.4894  19.5187  20.7277  22.1859  28.6057

     occupation numbers 
     1.0000   1.0000   1.0000   1.0000   1.0000   1.0000   1.0000   1.0000
     1.0000   1.0000   1.0000   1.0000   1.0000   1.0000   1.0000   1.0000
     1.0000   0.9302   0.0000   0.0000   0.0000

          k = 0.0000 0.1925 0.2020 (  2746 PWs)   bands (ev):

   -74.4958 -74.4668 -37.8928 -37.7547 -37.7164 -37.6735 -37.6611 -37.6425
    12.3390  14.7196  17.2525  17.9937  18.0505  18.5627  18.8233  19.0652
    19.8768  19.9978  20.5586  21.2251  31.7468

     occupation numbers 
     1.0000   1.0000   1.0000   1.0000   1.0000   1.0000   1.0000   1.0000
     1.0000   1.0000   1.0000   1.0000   1.0000   1.0000   1.0000   1.0000
     0.0000   0.0000   0.0000   0.0000   0.0000

          k = 0.0000 0.1925-0.3030 (  2764 PWs)   bands (ev):

   -74.4813 -74.4813 -37.8223 -37.8223 -37.6905 -37.6905 -37.6580 -37.6580
    13.4725  13.4725  17.5494  17.5494  18.2846  18.2846  18.8983  18.8983
    20.2615  20.2615  20.5485  20.5485  35.4407

     occupation numbers 
     1.0000   1.0000   1.0000   1.0000   1.0000   1.0000   1.0000   1.0000
     1.0000   1.0000   1.0000   1.0000   1.0000   1.0000   1.0000   1.0000
     0.0000   0.0000   0.0000   0.0000   0.0000

          k = 0.0000 0.2887 0.0000 (  2757 PWs)   bands (ev):

   -74.4938 -74.4448 -37.9265 -37.8220 -37.7710 -37.7122 -37.6414 -37.6395
    12.4615  16.1669  16.9277  17.5408  18.3665  18.8936  18.8985  19.4779
    19.6109  19.8463  20.8430  24.6880  27.1716

     occupation numbers 
     1.0000   1.0000   1.0000   1.0000   1.0000   1.0000   1.0000   1.0000
     1.0000   1.0000   1.0000   1.0000   1.0000   1.0000   1.0000   1.0000
     0.0000   0.0000   0.0000   0.0000   0.0000

          k = 0.0000 0.2887 0.1010 (  2747 PWs)   bands (ev):

   -74.4905 -74.4481 -37.9207 -37.8081 -37.7825 -37.7074 -37.6479 -37.6462
    12.6901  16.0454  16.8199  17.6070  18.2326  18.7904  18.9343  19.6549
    19.6790  19.8136  20.7741  23.3239  29.1443

     occupation numbers 
     1.0000   1.0000   1.0000   1.0000   1.0000   1.0000   1.0000   1.0000
     1.0000   1.0000   1.0000   1.0000   1.0000   1.0000   1.0000   0.0000
     0.0000   0.0000   0.0000   0.0000   0.0000

          k = 0.0000 0.2887 0.2020 (  2732 PWs)   bands (ev):

   -74.4816 -74.4571 -37.9003 -37.8238 -37.7618 -37.6945 -37.6738 -37.6591
    13.3421  15.3442  16.9610  17.6845  18.0140  18.5538  19.0548  19.5058
    19.9946  20.1265  20.5782  21.8122  32.3817

     occupation numbers 
     1.0000   1.0000   1.0000   1.0000   1.0000   1.0000   1.0000   1.0000
     1.0000   1.0000   1.0000   1.0000   1.0000   1.0000   1.0000   0.9975
     0.0000   0.0000   0.0000   0.0000   0.0000

          k = 0.0000 0.2887-0.3030 (  2736 PWs)   bands (ev):

   -74.4693 -74.4693 -37.8651 -37.8651 -37.7148 -37.7148 -37.6768 -37.6768
    14.3042  14.3042  17.3498  17.3498  18.2261  18.2261  19.2612  19.2612
    20.2948  20.2948  20.7966  20.7966  34.8887

     occupation numbers 
     1.0000   1.0000   1.0000   1.0000   1.0000   1.0000   1.0000   1.0000
     1.0000   1.0000   1.0000   1.0000   1.0000   1.0000   1.0000   1.0000
     0.0000   0.0000   0.0000   0.0000   0.0000

          k = 0.0000 0.3849 0.0000 (  2740 PWs)   bands (ev):

   -74.4762 -74.4385 -37.9014 -37.8829 -37.8474 -37.7348 -37.6617 -37.6563
    13.8044  16.1837  16.4485  17.4444  18.4673  18.6303  18.6684  20.2012
    20.2243  20.3818  20.8840  26.5763  27.1234

     occupation numbers 
[...]
    20.8536  20.8541  22.1120  24.7445  29.5814

     occupation numbers 
     1.0000   1.0000   1.0000   1.0000   1.0000   1.0000   1.0000   1.0000
     1.0000   1.0000   1.0000   1.0000   1.0000   1.0000   1.0000   0.0000
     0.0000   0.0000   0.0000   0.0000   0.0000

          k = 0.0833 0.5292 0.1010 (  2745 PWs)   bands (ev):

   -74.4547 -74.4360 -37.9806 -37.9275 -37.8039 -37.7586 -37.7019 -37.6831
    15.3363  15.9140  16.5004  17.1055  18.3892  18.8786  18.9059  20.5961
    20.7645  20.8914  21.9669  24.3671  28.6457

     occupation numbers 
     1.0000   1.0000   1.0000   1.0000   1.0000   1.0000   1.0000   1.0000
     1.0000   1.0000   1.0000   1.0000   1.0000   1.0000   1.0000   0.0000
     0.0000   0.0000   0.0000   0.0000   0.0000

          k = 0.0833 0.5292 0.2020 (  2742 PWs)   bands (ev):

   -74.4508 -74.4400 -37.9926 -37.9598 -37.7700 -37.7327 -37.7163 -37.6838
    15.2894  15.7638  16.8072  17.1111  18.4344  19.2378  19.4359  20.1291
    20.7195  20.9683  21.7424  23.3705  28.1802

     occupation numbers 
     1.0000   1.0000   1.0000   1.0000   1.0000   1.0000   1.0000   1.0000
     1.0000   1.0000   1.0000   1.0000   1.0000   1.0000   1.0000   0.0000
     0.0000   0.0000   0.0000   0.0000   0.0000

          k = 0.0833 0.5292-0.3030 (  2746 PWs)   bands (ev):

   -74.4454 -74.4454 -37.9859 -37.9859 -37.7418 -37.7418 -37.6999 -37.6999
    15.4612  15.4612  17.0485  17.0485  18.9671  18.9671  19.7773  19.7773
    20.8125  20.8125  22.2811  22.2811  28.4496

     occupation numbers 
     1.0000   1.0000   1.0000   1.0000   1.0000   1.0000   1.0000   1.0000
     1.0000   1.0000   1.0000   1.0000   1.0000   1.0000   0.0000   0.0000
     0.0000   0.0000   0.0000   0.0000   0.0000

          k = 0.1667 0.2887 0.0000 (  2742 PWs)   bands (ev):

   -74.4852 -74.4415 -37.9058 -37.8312 -37.8218 -37.7201 -37.6706 -37.6494
    13.1091  16.4949  16.7548  17.1739  18.4115  18.4424  19.0559  19.3308
    20.0242  20.3966  20.7731  25.6109  27.4025

     occupation numbers 
     1.0000   1.0000   1.0000   1.0000   1.0000   1.0000   1.0000   1.0000
     1.0000   1.0000   1.0000   1.0000   1.0000   1.0000   1.0000   1.0000
     0.0000   0.0000   0.0000   0.0000   0.0000

          k = 0.1667 0.2887 0.1010 (  2743 PWs)   bands (ev):

   -74.4823 -74.4444 -37.9098 -37.8288 -37.8085 -37.7249 -37.6749 -37.6522
    13.3175  16.3840  16.6982  17.2422  18.3199  18.4350  18.9547  19.4648
    20.1539  20.2589  20.7881  23.9483  29.6031

     occupation numbers 
     1.0000   1.0000   1.0000   1.0000   1.0000   1.0000   1.0000   1.0000
     1.0000   1.0000   1.0000   1.0000   1.0000   1.0000   1.0000   1.0000
     0.0000   0.0000   0.0000   0.0000   0.0000

          k = 0.1667 0.2887 0.2020 (  2750 PWs)   bands (ev):

   -74.4743 -74.4524 -37.9049 -37.8519 -37.7638 -37.7274 -37.6851 -37.6663
    13.9079  15.6899  16.9696  17.4170  18.0175  18.2757  19.0105  19.6223
    20.2271  20.3839  20.7468  22.2051  32.8743

     occupation numbers 
     1.0000   1.0000   1.0000   1.0000   1.0000   1.0000   1.0000   1.0000
     1.0000   1.0000   1.0000   1.0000   1.0000   1.0000   1.0000   0.0000
     0.0000   0.0000   0.0000   0.0000   0.0000

          k = 0.1667 0.2887-0.3030 (  2748 PWs)   bands (ev):

   -74.4634 -74.4634 -37.8827 -37.8827 -37.7299 -37.7299 -37.6872 -37.6872
    14.7671  14.7671  17.3535  17.3535  17.9621  17.9621  19.3247  19.3247
    20.5750  20.5750  20.9859  20.9859  35.0993

     occupation numbers 
     1.0000   1.0000   1.0000   1.0000   1.0000   1.0000   1.0000   1.0000
     1.0000   1.0000   1.0000   1.0000   1.0000   1.0000   1.0000   1.0000
     0.0000   0.0000   0.0000   0.0000   0.0000

          k = 0.1667 0.3849 0.0000 (  2757 PWs)   bands (ev):

   -74.4694 -74.4365 -37.8919 -37.8663 -37.8645 -37.7555 -37.6977 -37.6722
    14.3920  16.4556  16.5514  17.0050  18.2179  18.5512  18.7917  19.7094
    20.5583  20.7540  21.1852  27.4267  27.7077

     occupation numbers 
     1.0000   1.0000   1.0000   1.0000   1.0000   1.0000   1.0000   1.0000
     1.0000   1.0000   1.0000   1.0000   1.0000   1.0000   1.0000   0.0000
     0.0000   0.0000   0.0000   0.0000   0.0000

          k = 0.1667 0.3849 0.1010 (  2745 PWs)   bands (ev):

   -74.4672 -74.4387 -37.9159 -37.8836 -37.8178 -37.7589 -37.7031 -37.6688
    14.5301  16.3184  16.6535  17.1099  18.1684  18.5413  18.7467  19.7736
    20.4922  20.6633  21.2814  25.0789  30.0509

     occupation numbers 
     1.0000   1.0000   1.0000   1.0000   1.0000   1.0000   1.0000   1.0000
     1.0000   1.0000   1.0000   1.0000   1.0000   1.0000   1.0000   0.0000
     0.0000   0.0000   0.0000   0.0000   0.0000

          k = 0.1667 0.3849 0.2020 (  2746 PWs)   bands (ev):

   -74.4612 -74.4448 -37.9323 -37.9045 -37.7737 -37.7543 -37.7105 -37.6725
    14.9091  15.9468  16.9360  17.3239  18.0064  18.2778  18.9424  19.7928
    20.3351  20.8513  21.3643  23.0652  31.1361

     occupation numbers 
     1.0000   1.0000   1.0000   1.0000   1.0000   1.0000   1.0000   1.0000
     1.0000   1.0000   1.0000   1.0000   1.0000   1.0000   1.0000   0.0000
     0.0000   0.0000   0.0000   0.0000   0.0000

          k = 0.1667 0.3849-0.3030 (  2746 PWs)   bands (ev):

   -74.4530 -74.4530 -37.9261 -37.9261 -37.7546 -37.7546 -37.6932 -37.6932
    15.4290  15.4290  17.2853  17.2853  17.9952  17.9952  19.3272  19.3272
    20.8333  20.8333  21.7189  21.7189  32.2310

     occupation numbers 
     1.0000   1.0000   1.0000   1.0000   1.0000   1.0000   1.0000   1.0000
     1.0000   1.0000   1.0000   1.0000   1.0000   1.0000   1.0000   1.0000
     0.0000   0.0000   0.0000   0.0000   0.0000

          k = 0.1667 0.4811 0.0000 (  2748 PWs)   bands (ev):

   -74.4562 -74.4345 -37.9392 -37.8905 -37.8249 -37.7878 -37.7163 -37.6982
    15.4887  16.2844  16.3045  17.0984  18.1517  18.4940  18.8027  20.2153
    20.7397  20.8193  22.1650  26.2816  29.3809

     occupation numbers 
     1.0000   1.0000   1.0000   1.0000   1.0000   1.0000   1.0000   1.0000
     1.0000   1.0000   1.0000   1.0000   1.0000   1.0000   1.0000   0.0000
     0.0000   0.0000   0.0000   0.0000   0.0000

          k = 0.1667 0.4811 0.1010 (  2751 PWs)   bands (ev):

   -74.4548 -74.4360 -37.9498 -37.9075 -37.8112 -37.7751 -37.7257 -37.6873
    15.4786  16.2456  16.4872  17.1086  18.1620  18.4633  18.9080  20.2181
    20.5021  20.8959  22.2113  25.5804  28.5410

     occupation numbers 
     1.0000   1.0000   1.0000   1.0000   1.0000   1.0000   1.0000   1.0000
     1.0000   1.0000   1.0000   1.0000   1.0000   1.0000   1.0000   0.0000
     0.0000   0.0000   0.0000   0.0000   0.0000

          k = 0.1667 0.4811 0.2020 (  2746 PWs)   bands (ev):

   -74.4508 -74.4400 -37.9630 -37.9367 -37.7964 -37.7574 -37.7226 -37.6802
    15.5456  16.0492  16.8213  17.3534  17.9798  18.4580  19.1671  19.9037
    20.4548  20.9952  22.3577  24.0806  28.7297

     occupation numbers 
     1.0000   1.0000   1.0000   1.0000   1.0000   1.0000   1.0000   1.0000
     1.0000   1.0000   1.0000   1.0000   1.0000   1.0000   1.0000   0.0000
     0.0000   0.0000   0.0000   0.0000   0.0000

          k = 0.1667 0.4811-0.3030 (  2752 PWs)   bands (ev):

   -74.4454 -74.4454 -37.9591 -37.9591 -37.7761 -37.7761 -37.6929 -37.6929
    15.7551  15.7551  17.2277  17.2277  18.1920  18.1920  19.4600  19.4600
    20.8252  20.8252  22.8885  22.8885  29.5362

     occupation numbers 
     1.0000   1.0000   1.0000   1.0000   1.0000   1.0000   1.0000   1.0000
     1.0000   1.0000   1.0000   1.0000   1.0000   1.0000   1.0000   1.0000
     0.0000   0.0000   0.0000   0.0000   0.0000

          k = 0.1667 0.5774 0.0000 (  2748 PWs)   bands (ev):

   -74.4505 -74.4347 -37.9563 -37.8983 -37.8050 -37.8008 -37.7229 -37.7132
    15.9301  16.1568  16.2298  17.1964  18.2275  18.2840  18.9143  20.5726
    20.7341  20.7814  23.1156  24.6975  30.7414

     occupation numbers 
     1.0000   1.0000   1.0000   1.0000   1.0000   1.0000   1.0000   1.0000
     1.0000   1.0000   1.0000   1.0000   1.0000   1.0000   1.0000   0.0000
     0.0000   0.0000   0.0000   0.0000   0.0000

          k = 0.1667 0.5774 0.1010 (  2749 PWs)   bands (ev):

   -74.4494 -74.4358 -37.9650 -37.9147 -37.8165 -37.7653 -37.7378 -37.6970
    15.7336  16.2027  16.6494  16.9734  18.1192  18.5000  19.0280  20.4763
    20.5739  20.8422  23.1357  24.5815  29.6351

     occupation numbers 
     1.0000   1.0000   1.0000   1.0000   1.0000   1.0000   1.0000   1.0000
     1.0000   1.0000   1.0000   1.0000   1.0000   1.0000   1.0000   0.0000
     0.0000   0.0000   0.0000   0.0000   0.0000

          k = 0.1667 0.5774 0.2020 (  2744 PWs)   bands (ev):

   -74.4465 -74.4387 -37.9761 -37.9470 -37.8065 -37.7595 -37.7222 -37.6846
    15.6721  16.1097  16.8987  17.2635  17.8890  18.6437  19.3250  19.9718
    20.6106  20.8960  23.2495  24.2089  28.5971

     occupation numbers 
     1.0000   1.0000   1.0000   1.0000   1.0000   1.0000   1.0000   1.0000
     1.0000   1.0000   1.0000   1.0000   1.0000   1.0000   1.0000   0.0000
     0.0000   0.0000   0.0000   0.0000   0.0000

          k = 0.1667 0.5774-0.3030 (  2740 PWs)   bands (ev):

   -74.4426 -74.4426 -37.9712 -37.9712 -37.7844 -37.7844 -37.6922 -37.6922
    15.8285  15.8285  17.2140  17.2140  18.2523  18.2523  19.6326  19.6326
    20.7581  20.7581  23.6544  23.6544  28.2356

     occupation numbers 
     1.0000   1.0000   1.0000   1.0000   1.0000   1.0000   1.0000   1.0000
     1.0000   1.0000   1.0000   1.0000   1.0000   1.0000   0.0000   0.0000
     0.0000   0.0000   0.0000   0.0000   0.0000

          k = 0.2500 0.4330 0.0000 (  2746 PWs)   bands (ev):

   -74.4563 -74.4345 -37.9130 -37.8884 -37.8252 -37.7926 -37.7401 -37.6979
    15.5224  16.3688  16.6728  16.7364  18.0463  18.5267  18.8053  19.9368
    20.6812  20.8171  22.2156  27.8453  28.8140

     occupation numbers 
     1.0000   1.0000   1.0000   1.0000   1.0000   1.0000   1.0000   1.0000
     1.0000   1.0000   1.0000   1.0000   1.0000   1.0000   1.0000   0.0000
     0.0000   0.0000   0.0000   0.0000   0.0000

          k = 0.2500 0.4330 0.1010 (  2744 PWs)   bands (ev):

   -74.4548 -74.4360 -37.9165 -37.9134 -37.8023 -37.7957 -37.7412 -37.6880
    15.5879  16.2861  16.7405  16.9225  18.0884  18.3304  18.8307  19.9990
    20.4350  20.9025  22.3149  26.2896  29.0972

     occupation numbers 
     1.0000   1.0000   1.0000   1.0000   1.0000   1.0000   1.0000   1.0000
     1.0000   1.0000   1.0000   1.0000   1.0000   1.0000   1.0000   0.0000
     0.0000   0.0000   0.0000   0.0000   0.0000

          k = 0.2500 0.4330 0.2020 (  2755 PWs)   bands (ev):

   -74.4508 -74.4399 -37.9382 -37.9292 -37.8073 -37.7809 -37.7219 -37.6794
    15.7556  16.1460  16.9645  17.2822  17.9234  18.0560  18.9450  19.7929
    20.4107  21.0056  22.5494  24.4035  29.8657

     occupation numbers 
     1.0000   1.0000   1.0000   1.0000   1.0000   1.0000   1.0000   1.0000
     1.0000   1.0000   1.0000   1.0000   1.0000   1.0000   1.0000   0.0000
     0.0000   0.0000   0.0000   0.0000   0.0000

          k = 0.2500 0.4330-0.3030 (  2750 PWs)   bands (ev):

   -74.4454 -74.4454 -37.9418 -37.9418 -37.7955 -37.7955 -37.6910 -37.6910
    15.9622  15.9622  17.3147  17.3147  17.8253  17.8253  19.2705  19.2705
    20.8515  20.8515  23.1167  23.1167  30.8637

     occupation numbers 
     1.0000   1.0000   1.0000   1.0000   1.0000   1.0000   1.0000   1.0000
     1.0000   1.0000   1.0000   1.0000   1.0000   1.0000   1.0000   1.0000
     0.0000   0.0000   0.0000   0.0000   0.0000

          k = 0.2500 0.5292 0.0000 (  2761 PWs)   bands (ev):

   -74.4466 -74.4354 -37.9280 -37.8786 -37.8308 -37.7904 -37.7677 -37.7249
    16.2206  16.3499  16.5169  16.8461  18.0448  18.2520  19.0151  20.2777
    20.6386  20.7273  23.5751  25.9348  28.1090

     occupation numbers 
     1.0000   1.0000   1.0000   1.0000   1.0000   1.0000   1.0000   1.0000
     1.0000   1.0000   1.0000   1.0000   1.0000   1.0000   1.0000   0.0000
     0.0000   0.0000   0.0000   0.0000   0.0000

          k = 0.2500 0.5292 0.1010 (  2753 PWs)   bands (ev):

   -74.4459 -74.4361 -37.9320 -37.8977 -37.8445 -37.7826 -37.7551 -37.7082
    16.1359  16.5105  16.5987  16.8992  18.0146  18.1490  19.0414  20.3096
    20.3918  20.7899  23.7335  25.8842  28.1346

     occupation numbers 
     1.0000   1.0000   1.0000   1.0000   1.0000   1.0000   1.0000   1.0000
     1.0000   1.0000   1.0000   1.0000   1.0000   1.0000   1.0000   0.0000
     0.0000   0.0000   0.0000   0.0000   0.0000

          k = 0.2500 0.5292 0.2020 (  2742 PWs)   bands (ev):

   -74.4438 -74.4382 -37.9433 -37.9266 -37.8455 -37.8020 -37.7140 -37.6881
    16.1495  16.4528  16.8858  17.2443  17.7354  18.0171  19.1371  19.8132
    20.5167  20.8552  24.1116  25.4562  28.1766

     occupation numbers 
     1.0000   1.0000   1.0000   1.0000   1.0000   1.0000   1.0000   1.0000
     1.0000   1.0000   1.0000   1.0000   1.0000   1.0000   1.0000   0.0000
     0.0000   0.0000   0.0000   0.0000   0.0000

          k = 0.2500 0.5292-0.3030 (  2720 PWs)   bands (ev):

   -74.4410 -74.4410 -37.9445 -37.9445 -37.8264 -37.8264 -37.6886 -37.6886
    16.2791  16.2791  17.2854  17.2854  17.7285  17.7285  19.3636  19.3636
    20.7512  20.7512  24.7020  24.7020  28.7273

     occupation numbers 
     1.0000   1.0000   1.0000   1.0000   1.0000   1.0000   1.0000   1.0000
     1.0000   1.0000   1.0000   1.0000   1.0000   1.0000   1.0000   1.0000
     0.0000   0.0000   0.0000   0.0000   0.0000

          k = 0.3333 0.5774 0.0000 (  2772 PWs)   bands (ev):

   -74.4394 -74.4394 -37.9128 -37.8587 -37.8587 -37.8011 -37.7562 -37.7562
    16.3970  16.5654  16.5654  16.7343  18.0730  18.0730  19.1265  20.4639
    20.4639  20.5986  25.0694  25.9523  25.9523

     occupation numbers 
     1.0000   1.0000   1.0000   1.0000   1.0000   1.0000   1.0000   1.0000
     1.0000   1.0000   1.0000   1.0000   1.0000   1.0000   1.0000   0.0000
     0.0000   0.0000   0.0000   0.0000   0.0000

          k = 0.3333 0.5774 0.1010 (  2745 PWs)   bands (ev):

   -74.4394 -74.4394 -37.9054 -37.8819 -37.8819 -37.8086 -37.7327 -37.7327
    16.4730  16.6318  16.6318  16.7636  17.9838  17.9838  19.1108  20.3254
    20.5267  20.5267  25.4809  25.9878  25.9878

     occupation numbers 
     1.0000   1.0000   1.0000   1.0000   1.0000   1.0000   1.0000   1.0000
     1.0000   1.0000   1.0000   1.0000   1.0000   1.0000   1.0000   0.0000
     0.0000   0.0000   0.0000   0.0000   0.0000

          k = 0.3333 0.5774 0.2020 (  2745 PWs)   bands (ev):

   -74.4394 -74.4394 -37.9142 -37.9142 -37.8850 -37.8291 -37.7001 -37.7001
    16.6507  16.7895  16.7895  16.8157  17.7893  17.7893  19.1238  19.7715
    20.6442  20.6442  26.0749  26.0749  26.4909

     occupation numbers 
     1.0000   1.0000   1.0000   1.0000   1.0000   1.0000   1.0000   1.0000
     1.0000   1.0000   1.0000   1.0000   1.0000   1.0000   1.0000   0.0000
     0.0000   0.0000   0.0000   0.0000   0.0000

          k = 0.3333 0.5774-0.3030 (  2712 PWs)   bands (ev):

   -74.4394 -74.4394 -37.9270 -37.9270 -37.8571 -37.8571 -37.6871 -37.6871
    16.7965  16.7965  16.8911  16.8911  17.6730  17.6730  19.3163  19.3163
    20.6995  20.6995  26.1296  26.1296  27.8292

     occupation numbers 
     1.0000   1.0000   1.0000   1.0000   1.0000   1.0000   1.0000   1.0000
     1.0000   1.0000   1.0000   1.0000   1.0000   1.0000   1.0000   1.0000
     0.0000   0.0000   0.0000   0.0000   0.0000

     the Fermi energy is    19.5329 ev

!    total energy              =    -753.45338996 Ry
     total all-electron energy =     -5573.810081 Ry
     estimated scf accuracy    <       0.00000017 Ry
     smearing contrib. (-TS)   =      -0.00002166 Ry
     internal energy E=F+TS    =    -753.45336829 Ry

     The total energy is F=E-TS. E is the sum of the following terms:
     one-electron contribution =    -274.77826438 Ry
     hartree contribution      =     162.07131817 Ry
     xc contribution           =     -61.44791662 Ry
     ewald contribution        =    -404.12212996 Ry
     one-center paw contrib.   =    -175.17637551 Ry
      -> PAW hartree energy AE =     222.29912407 Ry
      -> PAW hartree energy PS =    -221.24242987 Ry
      -> PAW xc energy AE      =    -117.68340011 Ry
      -> PAW xc energy PS      =      29.03851816 Ry
      -> total E_H with PAW    =     163.12801237 Ry
      -> total E_XC with PAW   =    -150.09279858 Ry

     total magnetization       =     3.18 Bohr mag/cell
     absolute magnetization    =     3.48 Bohr mag/cell

     convergence has been achieved in   5 iterations

     Writing all to output data dir ./out/Co.save/
 
     init_run     :      0.38s CPU      0.50s WALL (       1 calls)
     electrons    :     10.58s CPU     11.24s WALL (       1 calls)

     Called by init_run:
     wfcinit      :      0.24s CPU      0.31s WALL (       1 calls)
     potinit      :      0.10s CPU      0.13s WALL (       1 calls)
     hinit0       :      0.03s CPU      0.04s WALL (       1 calls)

     Called by electrons:
     c_bands      :      9.03s CPU      9.52s WALL (       5 calls)
     sum_band     :      1.01s CPU      1.07s WALL (       5 calls)
     v_of_rho     :      0.02s CPU      0.02s WALL (       6 calls)
     v_h          :      0.00s CPU      0.00s WALL (       6 calls)
     v_xc         :      0.02s CPU      0.02s WALL (       6 calls)
     newd         :      0.02s CPU      0.03s WALL (       6 calls)
     PAW_pot      :      0.58s CPU      0.71s WALL (       6 calls)
     mix_rho      :      0.00s CPU      0.00s WALL (       5 calls)

     Called by c_bands:
     init_us_2    :      0.06s CPU      0.07s WALL (    1520 calls)
     init_us_2:cp :      0.06s CPU      0.07s WALL (    1520 calls)
     cegterg      :      8.64s CPU      9.07s WALL (     760 calls)

     Called by sum_band:
     sum_band:wei :      0.01s CPU      0.01s WALL (       5 calls)
     sum_band:loo :      0.95s CPU      1.01s WALL (       5 calls)
     sum_band:buf :      0.00s CPU      0.01s WALL (     760 calls)
     sum_band:ini :      0.04s CPU      0.04s WALL (     760 calls)
     sum_band:cal :      0.08s CPU      0.07s WALL (     760 calls)
     sum_band:bec :      0.00s CPU      0.01s WALL (     760 calls)
     addusdens    :      0.04s CPU      0.04s WALL (       5 calls)
                                        0.00s GPU  (       5 calls)
     addusd:skk   :      0.00s CPU      0.00s WALL (       5 calls)
                                        0.00s GPU  (       5 calls)

     Called by *egterg:
     cdiaghg      :      2.28s CPU      2.34s WALL (    4029 calls)
     cegterg:over :      0.31s CPU      0.29s WALL (    3421 calls)
     cegterg:upda :      0.04s CPU      0.08s WALL (    3421 calls)
     cegterg:last :      0.12s CPU      0.13s WALL (    2301 calls)
     h_psi        :      5.53s CPU      5.84s WALL (    4181 calls)
     s_psi        :      0.12s CPU      0.10s WALL (    4181 calls)
     g_psi        :      0.02s CPU      0.02s WALL (    3421 calls)

     Called by h_psi:
     h_psi:calbec :      0.30s CPU      0.27s WALL (    4181 calls)
     vloc_psi     :      5.13s CPU      5.42s WALL (    4181 calls)
     add_vuspsi   :      0.08s CPU      0.12s WALL (    4181 calls)

     General routines
     calbec       :      0.37s CPU      0.33s WALL (    4941 calls)
     fft          :      0.01s CPU      0.01s WALL (     144 calls)
     ffts         :      0.00s CPU      0.00s WALL (      22 calls)
     fftw         :      5.58s CPU      5.84s WALL (  126184 calls)
     interpolate  :      0.00s CPU      0.00s WALL (      12 calls)
 
     Parallel routines

     PAW routines
     PAW_pot      :      0.58s CPU      0.71s WALL (       6 calls)
     PAW_symme    :      0.01s CPU      0.01s WALL (      10 calls)
 
     PWSCF        :     11.24s CPU     12.52s WALL

 
   This run was terminated on:   8:40:14  22Mar2024            

=------------------------------------------------------------------------------=
   JOB DONE.
=------------------------------------------------------------------------------=
