
     Program PWSCF v.7.2 starts on 22Mar2024 at  8:47: 8 

     This program is part of the open-source Quantum ESPRESSO suite
     for quantum simulation of materials; please cite
         "P. Giannozzi et al., J. Phys.:Condens. Matter 21 395502 (2009);
         "P. Giannozzi et al., J. Phys.:Condens. Matter 29 465901 (2017);
         "P. Giannozzi et al., J. Chem. Phys. 152 154105 (2020);
          URL http://www.quantum-espresso.org", 
     in publications or presentations arising from this work. More details at
     http://www.quantum-espresso.org/quote

     Parallel version (MPI), running on    20 processors

     MPI processes distributed on     1 nodes
     352482 MiB available memory on the printing compute node when the environment starts
 
     Waiting for input...
     Reading input from standard input

     Current dimensions of program PWSCF are:
     Max number of different atomic species (ntypx) = 10
     Max number of k-points (npk) = 120000
     Max angular momentum in pseudopotentials (lmaxx) =  4
     file Co.pbe-spn-kjpaw_psl.0.3.1.UPF: wavefunction(s)  3P 3D renormalized
 
     R & G space division:  proc/nbgrp/npool/nimage =      20
     Subspace diagonalization in iterative solution of the eigenvalue problem:
     a serial algorithm will be used

 
     Parallelization info
     --------------------
     sticks:   dense  smooth     PW     G-vecs:    dense   smooth      PW
     Min          33      33      9                 1179     1143     181
     Max          36      34     10                 1190     1150     188
     Sum         685     673    199                23679    22959    3729
 
     Using Slab Decomposition
 


     bravais-lattice index     =            4
     lattice parameter (alat)  =       4.7243  a.u.
     unit-cell volume          =     147.0189 (a.u.)^3
     number of atoms/cell      =            2
     number of atomic types    =            1
     number of electrons       =        34.00
     number of Kohn-Sham states=           21
     kinetic-energy cutoff     =     110.0000  Ry
     charge density cutoff     =     450.0000  Ry
     scf convergence threshold =      1.0E-06
     mixing beta               =       0.7000
     number of iterations used =            8  plain     mixing
     Exchange-correlation= SLA  PW   PBX  PBC
                           (   1   4   3   4   0   0   0)

     celldm(1)=   4.724315  celldm(2)=   0.000000  celldm(3)=   1.610000
     celldm(4)=   0.000000  celldm(5)=   0.000000  celldm(6)=   0.000000

     crystal axes: (cart. coord. in units of alat)
               a(1) = (   1.000000   0.000000   0.000000 )  
               a(2) = (  -0.500000   0.866025   0.000000 )  
               a(3) = (   0.000000   0.000000   1.610000 )  

     reciprocal axes: (cart. coord. in units 2 pi/alat)
               b(1) = (  1.000000  0.577350  0.000000 )  
               b(2) = (  0.000000  1.154701  0.000000 )  
               b(3) = (  0.000000  0.000000  0.621118 )  


     PseudoPot. # 1 for Co read from file:
     /truba/home/amuhaymin/ZnS/pseudo/QE/Co.pbe-spn-kjpaw_psl.0.3.1.UPF
     MD5 check sum: b0a1ad65bf214e88c1f3d33b20c7d919
     Pseudo is Projector augmented-wave + core cor, Zval = 17.0
     Generated using &quot;atomic&quot; code by A. Dal Corso  v.6.2.2
     Shape of augmentation charge: PSQ
     Using radial grid of 1193 points,  6 beta functions with: 
                l(1) =   0
                l(2) =   0
                l(3) =   1
                l(4) =   1
                l(5) =   2
                l(6) =   2
     Q(r) pseudized with 0 coefficients 


     atomic species   valence    mass     pseudopotential
        Co            17.00    58.93300     Co( 1.00)

     Starting magnetic structure 
     atomic species   magnetization
        Co           0.294

     24 Sym. Ops., with inversion, found (12 have fractional translation)


                                    s                        frac. trans.

      isym =  1     identity                                     

 cryst.   s( 1) = (     1          0          0      )
                  (     0          1          0      )
                  (     0          0          1      )

 cart.    s( 1) = (  1.0000000  0.0000000  0.0000000 )
                  (  0.0000000  1.0000000  0.0000000 )
                  (  0.0000000  0.0000000  1.0000000 )


      isym =  2     180 deg rotation - cart. axis [0,0,1]        

 cryst.   s( 2) = (    -1          0          0      )    f =(  0.0000000 )
                  (     0         -1          0      )       ( -0.0000000 )
                  (     0          0          1      )       ( -0.5000000 )

 cart.    s( 2) = ( -1.0000000  0.0000000  0.0000000 )    f =(  0.0000000 )
                  (  0.0000000 -1.0000000  0.0000000 )       ( -0.0000000 )
                  (  0.0000000  0.0000000  1.0000000 )       ( -0.8050000 )


      isym =  3     180 deg rotation - cart. axis [0,1,0]        

 cryst.   s( 3) = (    -1          0          0      )    f =(  0.0000000 )
                  (     1          1          0      )       (  0.0000000 )
                  (     0          0         -1      )       (  0.5000000 )

 cart.    s( 3) = ( -1.0000000  0.0000000  0.0000000 )    f =(  0.0000000 )
                  (  0.0000000  1.0000000  0.0000000 )       (  0.0000000 )
                  (  0.0000000  0.0000000 -1.0000000 )       (  0.8050000 )


      isym =  4     180 deg rotation - cart. axis [1,0,0]        

 cryst.   s( 4) = (     1          0          0      )
                  (    -1         -1          0      )
                  (     0          0         -1      )

 cart.    s( 4) = (  1.0000000  0.0000000  0.0000000 )
                  (  0.0000000 -1.0000000  0.0000000 )
                  (  0.0000000  0.0000000 -1.0000000 )


      isym =  5      60 deg rotation - cryst. axis [0,0,1]       

 cryst.   s( 5) = (     1          1          0      )    f =(  0.0000000 )
                  (    -1          0          0      )       ( -0.0000000 )
                  (     0          0          1      )       ( -0.5000000 )

 cart.    s( 5) = (  0.5000000 -0.8660254  0.0000000 )    f =(  0.0000000 )
                  (  0.8660254  0.5000000  0.0000000 )       ( -0.0000000 )
                  (  0.0000000  0.0000000  1.0000000 )       ( -0.8050000 )


      isym =  6      60 deg rotation - cryst. axis [0,0,-1]      

 cryst.   s( 6) = (     0         -1          0      )    f =(  0.0000000 )
                  (     1          1          0      )       ( -0.0000000 )
                  (     0          0          1      )       ( -0.5000000 )

 cart.    s( 6) = (  0.5000000  0.8660254  0.0000000 )    f =(  0.0000000 )
                  ( -0.8660254  0.5000000  0.0000000 )       ( -0.0000000 )
                  (  0.0000000  0.0000000  1.0000000 )       ( -0.8050000 )


      isym =  7     120 deg rotation - cryst. axis [0,0,1]       

 cryst.   s( 7) = (     0          1          0      )
                  (    -1         -1          0      )
                  (     0          0          1      )

 cart.    s( 7) = ( -0.5000000 -0.8660254  0.0000000 )
                  (  0.8660254 -0.5000000  0.0000000 )
                  (  0.0000000  0.0000000  1.0000000 )


      isym =  8     120 deg rotation - cryst. axis [0,0,-1]      

 cryst.   s( 8) = (    -1         -1          0      )
                  (     1          0          0      )
                  (     0          0          1      )

 cart.    s( 8) = ( -0.5000000  0.8660254  0.0000000 )
                  ( -0.8660254 -0.5000000  0.0000000 )
                  (  0.0000000  0.0000000  1.0000000 )


      isym =  9     180 deg rotation - cryst. axis [1,-1,0]      

 cryst.   s( 9) = (     0         -1          0      )    f =( -0.0000000 )
                  (    -1          0          0      )       ( -0.0000000 )
                  (     0          0         -1      )       (  0.5000000 )

 cart.    s( 9) = (  0.5000000 -0.8660254  0.0000000 )    f =( -0.0000000 )
                  ( -0.8660254 -0.5000000  0.0000000 )       ( -0.0000000 )
                  (  0.0000000  0.0000000 -1.0000000 )       (  0.8050000 )


      isym = 10     180 deg rotation - cryst. axis [2,1,0]       

 cryst.   s(10) = (     1          1          0      )    f =(  0.0000000 )
                  (     0         -1          0      )       ( -0.0000000 )
                  (     0          0         -1      )       (  0.5000000 )

 cart.    s(10) = (  0.5000000  0.8660254  0.0000000 )    f =(  0.0000000 )
                  (  0.8660254 -0.5000000  0.0000000 )       ( -0.0000000 )
                  (  0.0000000  0.0000000 -1.0000000 )       (  0.8050000 )


      isym = 11     180 deg rotation - cryst. axis [0,1,0]       

 cryst.   s(11) = (    -1         -1          0      )
                  (     0          1          0      )
                  (     0          0         -1      )

 cart.    s(11) = ( -0.5000000 -0.8660254  0.0000000 )
                  ( -0.8660254  0.5000000  0.0000000 )
                  (  0.0000000  0.0000000 -1.0000000 )


      isym = 12     180 deg rotation - cryst. axis [1,1,0]       

 cryst.   s(12) = (     0          1          0      )
                  (     1          0          0      )
                  (     0          0         -1      )

 cart.    s(12) = ( -0.5000000  0.8660254  0.0000000 )
                  (  0.8660254  0.5000000  0.0000000 )
                  (  0.0000000  0.0000000 -1.0000000 )


      isym = 13     inversion                                    

 cryst.   s(13) = (    -1          0          0      )
                  (     0         -1          0      )
                  (     0          0         -1      )

 cart.    s(13) = ( -1.0000000  0.0000000  0.0000000 )
                  (  0.0000000 -1.0000000  0.0000000 )
                  (  0.0000000  0.0000000 -1.0000000 )


      isym = 14     inv. 180 deg rotation - cart. axis [0,0,1]   

 cryst.   s(14) = (     1          0          0      )    f =(  0.0000000 )
                  (     0          1          0      )       (  0.0000000 )
                  (     0          0         -1      )       (  0.5000000 )

 cart.    s(14) = (  1.0000000  0.0000000  0.0000000 )    f =(  0.0000000 )
                  (  0.0000000  1.0000000  0.0000000 )       (  0.0000000 )
                  (  0.0000000  0.0000000 -1.0000000 )       (  0.8050000 )


      isym = 15     inv. 180 deg rotation - cart. axis [0,1,0]   

 cryst.   s(15) = (     1          0          0      )    f =(  0.0000000 )
                  (    -1         -1          0      )       ( -0.0000000 )
                  (     0          0          1      )       ( -0.5000000 )

 cart.    s(15) = (  1.0000000  0.0000000  0.0000000 )    f =(  0.0000000 )
                  (  0.0000000 -1.0000000  0.0000000 )       ( -0.0000000 )
                  (  0.0000000  0.0000000  1.0000000 )       ( -0.8050000 )


      isym = 16     inv. 180 deg rotation - cart. axis [1,0,0]   

 cryst.   s(16) = (    -1          0          0      )
                  (     1          1          0      )
                  (     0          0          1      )

 cart.    s(16) = ( -1.0000000  0.0000000  0.0000000 )
                  (  0.0000000  1.0000000  0.0000000 )
                  (  0.0000000  0.0000000  1.0000000 )


      isym = 17     inv.  60 deg rotation - cryst. axis [0,0,1]  

 cryst.   s(17) = (    -1         -1          0      )    f =(  0.0000000 )
                  (     1          0          0      )       ( -0.0000000 )
                  (     0          0         -1      )       (  0.5000000 )

 cart.    s(17) = ( -0.5000000  0.8660254  0.0000000 )    f =(  0.0000000 )
                  ( -0.8660254 -0.5000000  0.0000000 )       ( -0.0000000 )
                  (  0.0000000  0.0000000 -1.0000000 )       (  0.8050000 )


      isym = 18     inv.  60 deg rotation - cryst. axis [0,0,-1] 

 cryst.   s(18) = (     0          1          0      )    f =( -0.0000000 )
                  (    -1         -1          0      )       ( -0.0000000 )
                  (     0          0         -1      )       (  0.5000000 )

 cart.    s(18) = ( -0.5000000 -0.8660254  0.0000000 )    f =(  0.0000000 )
                  (  0.8660254 -0.5000000  0.0000000 )       ( -0.0000000 )
                  (  0.0000000  0.0000000 -1.0000000 )       (  0.8050000 )


      isym = 19     inv. 120 deg rotation - cryst. axis [0,0,1]  

 cryst.   s(19) = (     0         -1          0      )
                  (     1          1          0      )
                  (     0          0         -1      )

 cart.    s(19) = (  0.5000000  0.8660254  0.0000000 )
                  ( -0.8660254  0.5000000  0.0000000 )
                  (  0.0000000  0.0000000 -1.0000000 )


      isym = 20     inv. 120 deg rotation - cryst. axis [0,0,-1] 

 cryst.   s(20) = (     1          1          0      )
                  (    -1          0          0      )
                  (     0          0         -1      )

 cart.    s(20) = (  0.5000000 -0.8660254  0.0000000 )
                  (  0.8660254  0.5000000  0.0000000 )
                  (  0.0000000  0.0000000 -1.0000000 )


      isym = 21     inv. 180 deg rotation - cryst. axis [1,-1,0] 

 cryst.   s(21) = (     0          1          0      )    f =(  0.0000000 )
                  (     1          0          0      )       ( -0.0000000 )
                  (     0          0          1      )       ( -0.5000000 )

 cart.    s(21) = ( -0.5000000  0.8660254  0.0000000 )    f =(  0.0000000 )
                  (  0.8660254  0.5000000  0.0000000 )       ( -0.0000000 )
                  (  0.0000000  0.0000000  1.0000000 )       ( -0.8050000 )


      isym = 22     inv. 180 deg rotation - cryst. axis [2,1,0]  

 cryst.   s(22) = (    -1         -1          0      )    f =(  0.0000000 )
                  (     0          1          0      )       ( -0.0000000 )
                  (     0          0          1      )       ( -0.5000000 )

 cart.    s(22) = ( -0.5000000 -0.8660254  0.0000000 )    f =(  0.0000000 )
                  ( -0.8660254  0.5000000  0.0000000 )       ( -0.0000000 )
                  (  0.0000000  0.0000000  1.0000000 )       ( -0.8050000 )


      isym = 23     inv. 180 deg rotation - cryst. axis [0,1,0]  

 cryst.   s(23) = (     1          1          0      )
                  (     0         -1          0      )
                  (     0          0          1      )

 cart.    s(23) = (  0.5000000  0.8660254  0.0000000 )
                  (  0.8660254 -0.5000000  0.0000000 )
                  (  0.0000000  0.0000000  1.0000000 )


      isym = 24     inv. 180 deg rotation - cryst. axis [1,1,0]  

 cryst.   s(24) = (     0         -1          0      )
                  (    -1          0          0      )
                  (     0          0          1      )

 cart.    s(24) = (  0.5000000 -0.8660254  0.0000000 )
                  ( -0.8660254 -0.5000000  0.0000000 )
                  (  0.0000000  0.0000000  1.0000000 )


     point group D_6h(6/mmm)
     there are 12 classes
     the character table:

       E     2C6   2C3   C2    3C2'  3C2'' i     2S3   2S6   s_h   3s_d  3s_v 
A_1g   1.00  1.00  1.00  1.00  1.00  1.00  1.00  1.00  1.00  1.00  1.00  1.00
A_2g   1.00  1.00  1.00  1.00 -1.00 -1.00  1.00  1.00  1.00  1.00 -1.00 -1.00
B_1g   1.00 -1.00  1.00 -1.00  1.00 -1.00  1.00 -1.00  1.00 -1.00  1.00 -1.00
B_2g   1.00 -1.00  1.00 -1.00 -1.00  1.00  1.00 -1.00  1.00 -1.00 -1.00  1.00
E_1g   2.00  1.00 -1.00 -2.00  0.00  0.00  2.00  1.00 -1.00 -2.00  0.00  0.00
E_2g   2.00 -1.00 -1.00  2.00  0.00  0.00  2.00 -1.00 -1.00  2.00  0.00  0.00
A_1u   1.00  1.00  1.00  1.00  1.00  1.00 -1.00 -1.00 -1.00 -1.00 -1.00 -1.00
A_2u   1.00  1.00  1.00  1.00 -1.00 -1.00 -1.00 -1.00 -1.00 -1.00  1.00  1.00
B_1u   1.00 -1.00  1.00 -1.00  1.00 -1.00 -1.00  1.00 -1.00  1.00 -1.00  1.00
B_2u   1.00 -1.00  1.00 -1.00 -1.00  1.00 -1.00  1.00 -1.00  1.00  1.00 -1.00
E_1u   2.00  1.00 -1.00 -2.00  0.00  0.00 -2.00 -1.00  1.00  2.00  0.00  0.00
E_2u   2.00 -1.00 -1.00  2.00  0.00  0.00 -2.00  1.00  1.00 -2.00  0.00  0.00

     the symmetry operations in each class and the name of the first element:

     E        1
          identity                                               
     2C6      5    6
           60 deg rotation - cryst. axis [0,0,1]                 
     2C3      7    8
          120 deg rotation - cryst. axis [0,0,1]                 
     C2       2
          180 deg rotation - cart. axis [0,0,1]                  
     3C2'     4   12   11
          180 deg rotation - cart. axis [1,0,0]                  
     3C2''    3    9   10
          180 deg rotation - cart. axis [0,1,0]                  
     i       13
          inversion                                              
     2S3     17   18
          inv.  60 deg rotation - cryst. axis [0,0,1]            
     2S6     19   20
          inv. 120 deg rotation - cryst. axis [0,0,1]            
     s_h     14
          inv. 180 deg rotation - cart. axis [0,0,1]             
     3s_d    16   24   23
          inv. 180 deg rotation - cart. axis [1,0,0]             
     3s_v    15   21   22
          inv. 180 deg rotation - cart. axis [0,1,0]             

   Cartesian axes

     site n.     atom                  positions (alat units)
         1           Co  tau(   1) = (  -0.0000000   0.5773503   0.4025000  )
         2           Co  tau(   2) = (   0.5000000   0.2886751   1.2075000  )

   Crystallographic axes

     site n.     atom                  positions (cryst. coord.)
         1           Co  tau(   1) = (  0.3333333  0.6666667  0.2500000  )
         2           Co  tau(   2) = (  0.6666667  0.3333333  0.7500000  )

     number of k points=    76  Gaussian smearing, width (Ry)=  0.0010
                       cart. coord. in units 2pi/alat
        k(    1) = (   0.0000000   0.0000000   0.0000000), wk =   0.0011574
        k(    2) = (   0.0000000   0.0000000   0.1035197), wk =   0.0023148
        k(    3) = (   0.0000000   0.0000000   0.2070393), wk =   0.0023148
        k(    4) = (   0.0000000   0.0000000  -0.3105590), wk =   0.0011574
        k(    5) = (   0.0000000   0.0962250   0.0000000), wk =   0.0069444
        k(    6) = (   0.0000000   0.0962250   0.1035197), wk =   0.0138889
        k(    7) = (   0.0000000   0.0962250   0.2070393), wk =   0.0138889
        k(    8) = (   0.0000000   0.0962250  -0.3105590), wk =   0.0069444
        k(    9) = (   0.0000000   0.1924501   0.0000000), wk =   0.0069444
        k(   10) = (   0.0000000   0.1924501   0.1035197), wk =   0.0138889
        k(   11) = (   0.0000000   0.1924501   0.2070393), wk =   0.0138889
        k(   12) = (   0.0000000   0.1924501  -0.3105590), wk =   0.0069444
        k(   13) = (   0.0000000   0.2886751   0.0000000), wk =   0.0069444
        k(   14) = (   0.0000000   0.2886751   0.1035197), wk =   0.0138889
        k(   15) = (   0.0000000   0.2886751   0.2070393), wk =   0.0138889
        k(   16) = (   0.0000000   0.2886751  -0.3105590), wk =   0.0069444
        k(   17) = (   0.0000000   0.3849002   0.0000000), wk =   0.0069444
        k(   18) = (   0.0000000   0.3849002   0.1035197), wk =   0.0138889
        k(   19) = (   0.0000000   0.3849002   0.2070393), wk =   0.0138889
        k(   20) = (   0.0000000   0.3849002  -0.3105590), wk =   0.0069444
        k(   21) = (   0.0000000   0.4811252   0.0000000), wk =   0.0069444
        k(   22) = (   0.0000000   0.4811252   0.1035197), wk =   0.0138889
        k(   23) = (   0.0000000   0.4811252   0.2070393), wk =   0.0138889
        k(   24) = (   0.0000000   0.4811252  -0.3105590), wk =   0.0069444
        k(   25) = (   0.0000000  -0.5773503   0.0000000), wk =   0.0034722
        k(   26) = (   0.0000000  -0.5773503   0.1035197), wk =   0.0069444
        k(   27) = (   0.0000000  -0.5773503   0.2070393), wk =   0.0069444
        k(   28) = (   0.0000000  -0.5773503  -0.3105590), wk =   0.0034722
        k(   29) = (   0.0833333   0.1443376   0.0000000), wk =   0.0069444
        k(   30) = (   0.0833333   0.1443376   0.1035197), wk =   0.0138889
        k(   31) = (   0.0833333   0.1443376   0.2070393), wk =   0.0138889
        k(   32) = (   0.0833333   0.1443376  -0.3105590), wk =   0.0069444
        k(   33) = (   0.0833333   0.2405626   0.0000000), wk =   0.0138889
        k(   34) = (   0.0833333   0.2405626   0.1035197), wk =   0.0277778
        k(   35) = (   0.0833333   0.2405626   0.2070393), wk =   0.0277778
        k(   36) = (   0.0833333   0.2405626  -0.3105590), wk =   0.0138889
        k(   37) = (   0.0833333   0.3367877   0.0000000), wk =   0.0138889
        k(   38) = (   0.0833333   0.3367877   0.1035197), wk =   0.0277778
        k(   39) = (   0.0833333   0.3367877   0.2070393), wk =   0.0277778
        k(   40) = (   0.0833333   0.3367877  -0.3105590), wk =   0.0138889
        k(   41) = (   0.0833333   0.4330127   0.0000000), wk =   0.0138889
        k(   42) = (   0.0833333   0.4330127   0.1035197), wk =   0.0277778
        k(   43) = (   0.0833333   0.4330127   0.2070393), wk =   0.0277778
        k(   44) = (   0.0833333   0.4330127  -0.3105590), wk =   0.0138889
        k(   45) = (   0.0833333   0.5292377   0.0000000), wk =   0.0138889
        k(   46) = (   0.0833333   0.5292377   0.1035197), wk =   0.0277778
        k(   47) = (   0.0833333   0.5292377   0.2070393), wk =   0.0277778
        k(   48) = (   0.0833333   0.5292377  -0.3105590), wk =   0.0138889
        k(   49) = (   0.1666667   0.2886751   0.0000000), wk =   0.0069444
        k(   50) = (   0.1666667   0.2886751   0.1035197), wk =   0.0138889
        k(   51) = (   0.1666667   0.2886751   0.2070393), wk =   0.0138889
        k(   52) = (   0.1666667   0.2886751  -0.3105590), wk =   0.0069444
        k(   53) = (   0.1666667   0.3849002   0.0000000), wk =   0.0138889
        k(   54) = (   0.1666667   0.3849002   0.1035197), wk =   0.0277778
        k(   55) = (   0.1666667   0.3849002   0.2070393), wk =   0.0277778
        k(   56) = (   0.1666667   0.3849002  -0.3105590), wk =   0.0138889
        k(   57) = (   0.1666667   0.4811252   0.0000000), wk =   0.0138889
        k(   58) = (   0.1666667   0.4811252   0.1035197), wk =   0.0277778
        k(   59) = (   0.1666667   0.4811252   0.2070393), wk =   0.0277778
        k(   60) = (   0.1666667   0.4811252  -0.3105590), wk =   0.0138889
        k(   61) = (   0.1666667   0.5773503   0.0000000), wk =   0.0069444
        k(   62) = (   0.1666667   0.5773503   0.1035197), wk =   0.0138889
        k(   63) = (   0.1666667   0.5773503   0.2070393), wk =   0.0138889
        k(   64) = (   0.1666667   0.5773503  -0.3105590), wk =   0.0069444
        k(   65) = (   0.2500000   0.4330127   0.0000000), wk =   0.0069444
        k(   66) = (   0.2500000   0.4330127   0.1035197), wk =   0.0138889
        k(   67) = (   0.2500000   0.4330127   0.2070393), wk =   0.0138889
        k(   68) = (   0.2500000   0.4330127  -0.3105590), wk =   0.0069444
        k(   69) = (   0.2500000   0.5292377   0.0000000), wk =   0.0138889
        k(   70) = (   0.2500000   0.5292377   0.1035197), wk =   0.0277778
        k(   71) = (   0.2500000   0.5292377   0.2070393), wk =   0.0277778
        k(   72) = (   0.2500000   0.5292377  -0.3105590), wk =   0.0138889
        k(   73) = (   0.3333333   0.5773503   0.0000000), wk =   0.0023148
        k(   74) = (   0.3333333   0.5773503   0.1035197), wk =   0.0046296
        k(   75) = (   0.3333333   0.5773503   0.2070393), wk =   0.0046296
        k(   76) = (   0.3333333   0.5773503  -0.3105590), wk =   0.0023148

                       cryst. coord.
        k(    1) = (   0.0000000   0.0000000   0.0000000), wk =   0.0011574
        k(    2) = (   0.0000000   0.0000000   0.1666667), wk =   0.0023148
        k(    3) = (   0.0000000   0.0000000   0.3333333), wk =   0.0023148
        k(    4) = (   0.0000000   0.0000000  -0.5000000), wk =   0.0011574
        k(    5) = (   0.0000000   0.0833333   0.0000000), wk =   0.0069444
        k(    6) = (   0.0000000   0.0833333   0.1666667), wk =   0.0138889
        k(    7) = (   0.0000000   0.0833333   0.3333333), wk =   0.0138889
        k(    8) = (   0.0000000   0.0833333  -0.5000000), wk =   0.0069444
        k(    9) = (   0.0000000   0.1666667   0.0000000), wk =   0.0069444
        k(   10) = (   0.0000000   0.1666667   0.1666667), wk =   0.0138889
        k(   11) = (   0.0000000   0.1666667   0.3333333), wk =   0.0138889
        k(   12) = (   0.0000000   0.1666667  -0.5000000), wk =   0.0069444
        k(   13) = (   0.0000000   0.2500000   0.0000000), wk =   0.0069444
        k(   14) = (   0.0000000   0.2500000   0.1666667), wk =   0.0138889
        k(   15) = (   0.0000000   0.2500000   0.3333333), wk =   0.0138889
        k(   16) = (   0.0000000   0.2500000  -0.5000000), wk =   0.0069444
        k(   17) = (   0.0000000   0.3333333   0.0000000), wk =   0.0069444
        k(   18) = (   0.0000000   0.3333333   0.1666667), wk =   0.0138889
        k(   19) = (   0.0000000   0.3333333   0.3333333), wk =   0.0138889
        k(   20) = (   0.0000000   0.3333333  -0.5000000), wk =   0.0069444
        k(   21) = (   0.0000000   0.4166667   0.0000000), wk =   0.0069444
        k(   22) = (   0.0000000   0.4166667   0.1666667), wk =   0.0138889
        k(   23) = (   0.0000000   0.4166667   0.3333333), wk =   0.0138889
        k(   24) = (   0.0000000   0.4166667  -0.5000000), wk =   0.0069444
        k(   25) = (   0.0000000  -0.5000000   0.0000000), wk =   0.0034722
        k(   26) = (   0.0000000  -0.5000000   0.1666667), wk =   0.0069444
        k(   27) = (   0.0000000  -0.5000000   0.3333333), wk =   0.0069444
        k(   28) = (   0.0000000  -0.5000000  -0.5000000), wk =   0.0034722
        k(   29) = (   0.0833333   0.0833333   0.0000000), wk =   0.0069444
        k(   30) = (   0.0833333   0.0833333   0.1666667), wk =   0.0138889
        k(   31) = (   0.0833333   0.0833333   0.3333333), wk =   0.0138889
        k(   32) = (   0.0833333   0.0833333  -0.5000000), wk =   0.0069444
        k(   33) = (   0.0833333   0.1666667   0.0000000), wk =   0.0138889
        k(   34) = (   0.0833333   0.1666667   0.1666667), wk =   0.0277778
        k(   35) = (   0.0833333   0.1666667   0.3333333), wk =   0.0277778
        k(   36) = (   0.0833333   0.1666667  -0.5000000), wk =   0.0138889
        k(   37) = (   0.0833333   0.2500000   0.0000000), wk =   0.0138889
        k(   38) = (   0.0833333   0.2500000   0.1666667), wk =   0.0277778
        k(   39) = (   0.0833333   0.2500000   0.3333333), wk =   0.0277778
        k(   40) = (   0.0833333   0.2500000  -0.5000000), wk =   0.0138889
        k(   41) = (   0.0833333   0.3333333   0.0000000), wk =   0.0138889
        k(   42) = (   0.0833333   0.3333333   0.1666667), wk =   0.0277778
        k(   43) = (   0.0833333   0.3333333   0.3333333), wk =   0.0277778
        k(   44) = (   0.0833333   0.3333333  -0.5000000), wk =   0.0138889
        k(   45) = (   0.0833333   0.4166667   0.0000000), wk =   0.0138889
        k(   46) = (   0.0833333   0.4166667   0.1666667), wk =   0.0277778
        k(   47) = (   0.0833333   0.4166667   0.3333333), wk =   0.0277778
        k(   48) = (   0.0833333   0.4166667  -0.5000000), wk =   0.0138889
        k(   49) = (   0.1666667   0.1666667   0.0000000), wk =   0.0069444
        k(   50) = (   0.1666667   0.1666667   0.1666667), wk =   0.0138889
        k(   51) = (   0.1666667   0.1666667   0.3333333), wk =   0.0138889
        k(   52) = (   0.1666667   0.1666667  -0.5000000), wk =   0.0069444
        k(   53) = (   0.1666667   0.2500000   0.0000000), wk =   0.0138889
        k(   54) = (   0.1666667   0.2500000   0.1666667), wk =   0.0277778
        k(   55) = (   0.1666667   0.2500000   0.3333333), wk =   0.0277778
        k(   56) = (   0.1666667   0.2500000  -0.5000000), wk =   0.0138889
        k(   57) = (   0.1666667   0.3333333   0.0000000), wk =   0.0138889
        k(   58) = (   0.1666667   0.3333333   0.1666667), wk =   0.0277778
        k(   59) = (   0.1666667   0.3333333   0.3333333), wk =   0.0277778
        k(   60) = (   0.1666667   0.3333333  -0.5000000), wk =   0.0138889
        k(   61) = (   0.1666667   0.4166667   0.0000000), wk =   0.0069444
        k(   62) = (   0.1666667   0.4166667   0.1666667), wk =   0.0138889
        k(   63) = (   0.1666667   0.4166667   0.3333333), wk =   0.0138889
        k(   64) = (   0.1666667   0.4166667  -0.5000000), wk =   0.0069444
        k(   65) = (   0.2500000   0.2500000   0.0000000), wk =   0.0069444
        k(   66) = (   0.2500000   0.2500000   0.1666667), wk =   0.0138889
        k(   67) = (   0.2500000   0.2500000   0.3333333), wk =   0.0138889
        k(   68) = (   0.2500000   0.2500000  -0.5000000), wk =   0.0069444
        k(   69) = (   0.2500000   0.3333333   0.0000000), wk =   0.0138889
        k(   70) = (   0.2500000   0.3333333   0.1666667), wk =   0.0277778
        k(   71) = (   0.2500000   0.3333333   0.3333333), wk =   0.0277778
        k(   72) = (   0.2500000   0.3333333  -0.5000000), wk =   0.0138889
        k(   73) = (   0.3333333   0.3333333   0.0000000), wk =   0.0023148
        k(   74) = (   0.3333333   0.3333333   0.1666667), wk =   0.0046296
        k(   75) = (   0.3333333   0.3333333   0.3333333), wk =   0.0046296
        k(   76) = (   0.3333333   0.3333333  -0.5000000), wk =   0.0023148

     Dense  grid:    23679 G-vectors     FFT dimensions: (  32,  32,  54)

     Smooth grid:    22959 G-vectors     FFT dimensions: (  32,  32,  54)

     Dynamical RAM for                 wfc:       0.05 MB

     Dynamical RAM for     wfc (w. buffer):       7.01 MB

     Dynamical RAM for           str. fact:       0.02 MB

     Dynamical RAM for           local pot:       0.00 MB

     Dynamical RAM for          nlocal pot:       0.08 MB

     Dynamical RAM for                qrad:       1.70 MB

     Dynamical RAM for          rho,v,vnew:       0.25 MB

     Dynamical RAM for               rhoin:       0.08 MB

     Dynamical RAM for            rho*nmix:       0.58 MB

     Dynamical RAM for           G-vectors:       0.08 MB

     Dynamical RAM for          h,s,v(r/c):       0.08 MB

     Dynamical RAM for          <psi|beta>:       0.01 MB

     Dynamical RAM for                 psi:       0.09 MB

     Dynamical RAM for                hpsi:       0.09 MB

     Dynamical RAM for                spsi:       0.09 MB

     Dynamical RAM for      wfcinit/wfcrot:       0.10 MB

     Dynamical RAM for           addusdens:       3.43 MB

     Estimated static dynamical RAM per process >       9.40 MB

     Estimated max dynamical RAM per process >      13.41 MB

     Estimated total dynamical RAM >     268.19 MB

     Check: negative core charge=   -0.000042
     Generating pointlists ...
     new r_m :   0.4086 (alat units)  1.9305 (a.u.) for type    1

     The initial density is read from file :
     ./out/Co.save/charge-density


     starting charge      34.0423, renormalised to      34.0000
     Starting wfcs from file
     Checking if some PAW data can be deallocated... 

     total cpu time spent up to now is        0.6 secs

     Self-consistent Calculation

     iteration #  1     ecut=   110.00 Ry     beta= 0.70
     Davidson diagonalization with overlap

---- Real-time Memory Report at c_bands before calling an iterative solver
            57 MiB given to the printing process from OS
             0 MiB allocation reported by mallinfo(arena+hblkhd)
        351904 MiB available memory on the node where the printing process lives
------------------
     ethr =  1.00E-05,  avg # of iterations =  5.2

     total cpu time spent up to now is        3.1 secs

     total energy              =    -753.44745270 Ry
     estimated scf accuracy    <       0.00479456 Ry

     total magnetization       =     3.30 Bohr mag/cell
     absolute magnetization    =     3.61 Bohr mag/cell

     iteration #  2     ecut=   110.00 Ry     beta= 0.70
     Davidson diagonalization with overlap

---- Real-time Memory Report at c_bands before calling an iterative solver
            79 MiB given to the printing process from OS
             0 MiB allocation reported by mallinfo(arena+hblkhd)
        351696 MiB available memory on the node where the printing process lives
------------------
     ethr =  1.41E-05,  avg # of iterations =  5.6

     total cpu time spent up to now is        5.5 secs

     total energy              =    -753.45042803 Ry
     estimated scf accuracy    <       0.02401656 Ry

     total magnetization       =     3.32 Bohr mag/cell
     absolute magnetization    =     3.65 Bohr mag/cell

     iteration #  3     ecut=   110.00 Ry     beta= 0.70
     Davidson diagonalization with overlap

---- Real-time Memory Report at c_bands before calling an iterative solver
            80 MiB given to the printing process from OS
             0 MiB allocation reported by mallinfo(arena+hblkhd)
        351681 MiB available memory on the node where the printing process lives
------------------
     ethr =  1.41E-05,  avg # of iterations =  4.1

     total cpu time spent up to now is        7.4 secs

     total energy              =    -753.45486102 Ry
     estimated scf accuracy    <       0.00073154 Ry

     total magnetization       =     3.31 Bohr mag/cell
     absolute magnetization    =     3.63 Bohr mag/cell

     iteration #  4     ecut=   110.00 Ry     beta= 0.70
     Davidson diagonalization with overlap

---- Real-time Memory Report at c_bands before calling an iterative solver
            81 MiB given to the printing process from OS
             0 MiB allocation reported by mallinfo(arena+hblkhd)
        351671 MiB available memory on the node where the printing process lives
------------------
     ethr =  2.15E-06,  avg # of iterations =  3.4

     total cpu time spent up to now is        9.1 secs

     total energy              =    -753.45511197 Ry
     estimated scf accuracy    <       0.00000900 Ry

     total magnetization       =     3.31 Bohr mag/cell
     absolute magnetization    =     3.63 Bohr mag/cell

     iteration #  5     ecut=   110.00 Ry     beta= 0.70
     Davidson diagonalization with overlap

---- Real-time Memory Report at c_bands before calling an iterative solver
            83 MiB given to the printing process from OS
             0 MiB allocation reported by mallinfo(arena+hblkhd)
        351665 MiB available memory on the node where the printing process lives
------------------
     ethr =  2.65E-08,  avg # of iterations =  9.0

     total cpu time spent up to now is       12.1 secs

     total energy              =    -753.45514020 Ry
     estimated scf accuracy    <       0.00003714 Ry

     total magnetization       =     3.31 Bohr mag/cell
     absolute magnetization    =     3.63 Bohr mag/cell

     iteration #  6     ecut=   110.00 Ry     beta= 0.70
     Davidson diagonalization with overlap

---- Real-time Memory Report at c_bands before calling an iterative solver
            84 MiB given to the printing process from OS
             0 MiB allocation reported by mallinfo(arena+hblkhd)
        351654 MiB available memory on the node where the printing process lives
------------------
     ethr =  2.65E-08,  avg # of iterations =  5.0

     total cpu time spent up to now is       14.3 secs

     total energy              =    -753.45514979 Ry
     estimated scf accuracy    <       0.00000504 Ry

     total magnetization       =     3.31 Bohr mag/cell
     absolute magnetization    =     3.63 Bohr mag/cell

     iteration #  7     ecut=   110.00 Ry     beta= 0.70
     Davidson diagonalization with overlap

---- Real-time Memory Report at c_bands before calling an iterative solver
            86 MiB given to the printing process from OS
             0 MiB allocation reported by mallinfo(arena+hblkhd)
        351646 MiB available memory on the node where the printing process lives
------------------
     ethr =  1.48E-08,  avg # of iterations =  2.2
 
     Magnetic moment per site  (integrated on atomic sphere of radius R)
     atom   1 (R=0.409)  charge= 15.5814  magn=  1.7284
     atom   2 (R=0.409)  charge= 15.5814  magn=  1.7284

     total cpu time spent up to now is       15.7 secs

     End of self-consistent calculation

 ------ SPIN UP ------------


          k = 0.0000 0.0000 0.0000 (  2863 PWs)   bands (ev):

   -77.5303 -77.4738 -40.9286 -40.6457 -40.6457 -40.6021 -40.5975 -40.5975
     9.6207  13.4233  15.9709  15.9757  15.9757  16.2924  16.2924  16.6156
    16.6156  17.7337  17.7337  18.4096  24.9189

     occupation numbers 
     1.0000   1.0000   1.0000   1.0000   1.0000   1.0000   1.0000   1.0000
     1.0000   1.0000   1.0000   1.0000   1.0000   1.0000   1.0000   1.0000
     1.0000   1.0000   1.0000   1.0000   0.0000

          k = 0.0000 0.0000 0.1035 (  2833 PWs)   bands (ev):

   -77.5266 -77.4776 -40.9070 -40.6424 -40.6424 -40.6243 -40.6007 -40.6007
     9.8990  13.3566  15.8988  15.9069  15.9069  16.2165  16.2165  16.7841
    16.7841  17.4403  17.7183  17.7183  26.4547

     occupation numbers 
     1.0000   1.0000   1.0000   1.0000   1.0000   1.0000   1.0000   1.0000
     1.0000   1.0000   1.0000   1.0000   1.0000   1.0000   1.0000   1.0000
     1.0000   1.0000   1.0000   1.0000   0.0000

          k = 0.0000 0.0000 0.2070 (  2864 PWs)   bands (ev):

   -77.5162 -77.4880 -40.8479 -40.6846 -40.6336 -40.6336 -40.6095 -40.6095
    10.6971  12.9246  15.7316  15.8491  15.8491  16.0496  16.0496  16.1049
    17.1123  17.1123  17.6314  17.6314  29.6894

     occupation numbers 
     1.0000   1.0000   1.0000   1.0000   1.0000   1.0000   1.0000   1.0000
     1.0000   1.0000   1.0000   1.0000   1.0000   1.0000   1.0000   1.0000
     1.0000   1.0000   1.0000   1.0000   0.0000

          k = 0.0000 0.0000-0.3106 (  2858 PWs)   bands (ev):

   -77.5021 -77.5021 -40.7665 -40.7665 -40.6216 -40.6216 -40.6216 -40.6216
    11.8595  11.8595  15.6495  15.6495  15.9017  15.9017  15.9017  15.9017
    17.4236  17.4236  17.4236  17.4236  33.5436

     occupation numbers 
     1.0000   1.0000   1.0000   1.0000   1.0000   1.0000   1.0000   1.0000
     1.0000   1.0000   1.0000   1.0000   1.0000   1.0000   1.0000   1.0000
     1.0000   1.0000   1.0000   1.0000   0.0000

          k = 0.0000 0.0962 0.0000 (  2849 PWs)   bands (ev):

   -77.5273 -77.4724 -40.9216 -40.6607 -40.6506 -40.6131 -40.6052 -40.5999
     9.8609  13.5662  15.7432  16.0882  16.1646  16.2478  16.3917  16.4656
    16.5448  16.9531  17.7642  19.5064  24.9591

     occupation numbers 
     1.0000   1.0000   1.0000   1.0000   1.0000   1.0000   1.0000   1.0000
     1.0000   1.0000   1.0000   1.0000   1.0000   1.0000   1.0000   1.0000
     1.0000   1.0000   1.0000   0.0000   0.0000

          k = 0.0000 0.0962 0.1035 (  2854 PWs)   bands (ev):

   -77.5236 -77.4761 -40.9012 -40.6570 -40.6472 -40.6345 -40.6084 -40.6033
    10.1349  13.5142  15.7394  15.9848  16.0018  16.0649  16.3096  16.6224
    16.7414  16.8405  17.7414  18.7130  26.5633

     occupation numbers 
     1.0000   1.0000   1.0000   1.0000   1.0000   1.0000   1.0000   1.0000
     1.0000   1.0000   1.0000   1.0000   1.0000   1.0000   1.0000   1.0000
     1.0000   1.0000   1.0000   0.0000   0.0000

          k = 0.0000 0.0962 0.2070 (  2858 PWs)   bands (ev):

   -77.5136 -77.4862 -40.8455 -40.6916 -40.6466 -40.6380 -40.6185 -40.6126
    10.9204  13.1112  15.6361  15.7044  15.7784  15.9374  16.1417  16.2270
    17.0877  17.1346  17.6377  17.9325  29.8414

     occupation numbers 
     1.0000   1.0000   1.0000   1.0000   1.0000   1.0000   1.0000   1.0000
     1.0000   1.0000   1.0000   1.0000   1.0000   1.0000   1.0000   1.0000
     1.0000   1.0000   1.0000   1.0000   0.0000

          k = 0.0000 0.0962-0.3106 (  2852 PWs)   bands (ev):

   -77.4999 -77.4999 -40.7688 -40.7688 -40.6326 -40.6326 -40.6253 -40.6253
    12.0643  12.0643  15.4938  15.4938  15.9257  15.9257  15.9918  15.9918
    17.4130  17.4130  17.5162  17.5162  33.7091

     occupation numbers 
     1.0000   1.0000   1.0000   1.0000   1.0000   1.0000   1.0000   1.0000
     1.0000   1.0000   1.0000   1.0000   1.0000   1.0000   1.0000   1.0000
     1.0000   1.0000   1.0000   1.0000   0.0000

          k = 0.0000 0.1925 0.0000 (  2847 PWs)   bands (ev):

   -77.5187 -77.4689 -40.9016 -40.7020 -40.6639 -40.6555 -40.6142 -40.6070
    10.5558  13.9196  15.4671  15.7605  16.0783  16.3703  16.4060  16.4677
    16.5834  16.6699  17.8296  21.0889  25.0999

     occupation numbers 
     1.0000   1.0000   1.0000   1.0000   1.0000   1.0000   1.0000   1.0000
     1.0000   1.0000   1.0000   1.0000   1.0000   1.0000   1.0000   1.0000
     1.0000   1.0000   1.0000   0.0000   0.0000

          k = 0.0000 0.1925 0.1035 (  2848 PWs)   bands (ev):

   -77.5154 -77.4722 -40.8854 -40.6966 -40.6718 -40.6601 -40.6201 -40.6108
    10.8139  13.9126  15.4834  15.5097  15.9609  16.2031  16.3485  16.5511
    16.7275  16.8311  17.7901  19.9429  26.9157

     occupation numbers 
     1.0000   1.0000   1.0000   1.0000   1.0000   1.0000   1.0000   1.0000
     1.0000   1.0000   1.0000   1.0000   1.0000   1.0000   1.0000   1.0000
     1.0000   1.0000   1.0000   0.0000   0.0000

          k = 0.0000 0.1925 0.2070 (  2850 PWs)   bands (ev):

   -77.5063 -77.4814 -40.8408 -40.7185 -40.6793 -40.6497 -40.6360 -40.6212
    11.5503  13.5952  15.1406  15.5594  15.6823  16.1524  16.1666  16.3973
    17.0628  17.2285  17.6513  18.5803  30.2952

     occupation numbers 
     1.0000   1.0000   1.0000   1.0000   1.0000   1.0000   1.0000   1.0000
     1.0000   1.0000   1.0000   1.0000   1.0000   1.0000   1.0000   1.0000
     1.0000   1.0000   1.0000   0.0005   0.0000

          k = 0.0000 0.1925-0.3106 (  2868 PWs)   bands (ev):

   -77.4938 -77.4938 -40.7797 -40.7797 -40.6578 -40.6578 -40.6355 -40.6355
    12.6161  12.6161  15.2573  15.2573  15.8747  15.8747  16.2320  16.2320
    17.3978  17.3978  17.7651  17.7651  34.1538

     occupation numbers 
     1.0000   1.0000   1.0000   1.0000   1.0000   1.0000   1.0000   1.0000
     1.0000   1.0000   1.0000   1.0000   1.0000   1.0000   1.0000   1.0000
     1.0000   1.0000   1.0000   1.0000   0.0000

          k = 0.0000 0.2887 0.0000 (  2852 PWs)   bands (ev):

   -77.5065 -77.4645 -40.8717 -40.7589 -40.7125 -40.6816 -40.6293 -40.6171
    11.6089  14.2058  15.0426  15.2942  15.9882  16.1603  16.3884  16.8667
    16.8897  17.0698  17.8918  22.8734  25.3696

     occupation numbers 
     1.0000   1.0000   1.0000   1.0000   1.0000   1.0000   1.0000   1.0000
     1.0000   1.0000   1.0000   1.0000   1.0000   1.0000   1.0000   1.0000
     1.0000   1.0000   1.0000   0.0000   0.0000

          k = 0.0000 0.2887 0.1035 (  2856 PWs)   bands (ev):

   -77.5037 -77.4673 -40.8648 -40.7486 -40.7260 -40.6773 -40.6332 -40.6214
    11.8245  14.2529  14.8968  15.3453  15.8353  16.1979  16.3935  16.9126
    17.0084  17.0233  17.8369  21.2212  27.5431

     occupation numbers 
     1.0000   1.0000   1.0000   1.0000   1.0000   1.0000   1.0000   1.0000
     1.0000   1.0000   1.0000   1.0000   1.0000   1.0000   1.0000   1.0000
     1.0000   1.0000   1.0000   0.0000   0.0000

          k = 0.0000 0.2887 0.2070 (  2872 PWs)   bands (ev):

   -77.4960 -77.4750 -40.8434 -40.7669 -40.7137 -40.6656 -40.6491 -40.6333
    12.4251  14.0284  14.8057  15.3868  15.6953  16.2328  16.3188  16.7591
    17.1803  17.3924  17.6766  19.3555  30.8925

     occupation numbers 
     1.0000   1.0000   1.0000   1.0000   1.0000   1.0000   1.0000   1.0000
     1.0000   1.0000   1.0000   1.0000   1.0000   1.0000   1.0000   1.0000
     1.0000   1.0000   1.0000   0.0000   0.0000

          k = 0.0000 0.2887-0.3106 (  2874 PWs)   bands (ev):

   -77.4855 -77.4855 -40.8083 -40.8083 -40.6784 -40.6784 -40.6494 -40.6494
    13.2563  13.2563  15.1045  15.1045  15.9307  15.9307  16.5204  16.5204
    17.4381  17.4381  18.1125  18.1125  32.8739

     occupation numbers 
     1.0000   1.0000   1.0000   1.0000   1.0000   1.0000   1.0000   1.0000
     1.0000   1.0000   1.0000   1.0000   1.0000   1.0000   1.0000   1.0000
     1.0000   1.0000   1.0000   1.0000   0.0000

          k = 0.0000 0.3849 0.0000 (  2862 PWs)   bands (ev):

   -77.4934 -77.4610 -40.8365 -40.8164 -40.7685 -40.6989 -40.6496 -40.6276
    12.7654  14.1443  14.5207  15.3931  15.9713  16.1090  16.2164  17.3574
    17.5039  17.5617  17.9349  24.8178  25.3975

     occupation numbers 
     1.0000   1.0000   1.0000   1.0000   1.0000   1.0000   1.0000   1.0000
     1.0000   1.0000   1.0000   1.0000   1.0000   1.0000   1.0000   1.0000
     1.0000   1.0000   1.0000   0.0000   0.0000

          k = 0.0000 0.3849 0.1035 (  2860 PWs)   bands (ev):

   -77.4913 -77.4631 -40.8572 -40.7920 -40.7720 -40.6942 -40.6498 -40.6323
    12.8686  14.1817  14.5494  15.2630  16.0197  16.0637  16.5545  17.3799
    17.4104  17.4986  17.8787  22.4559  27.4787

     occupation numbers 
     1.0000   1.0000   1.0000   1.0000   1.0000   1.0000   1.0000   1.0000
     1.0000   1.0000   1.0000   1.0000   1.0000   1.0000   1.0000   1.0000
     1.0000   1.0000   1.0000   0.0000   0.0000

          k = 0.0000 0.3849 0.2070 (  2860 PWs)   bands (ev):

   -77.4853 -77.4691 -40.8644 -40.8196 -40.7280 -40.6811 -40.6589 -40.6454
    13.1558  14.0076  14.6846  15.1976  16.1055  16.3243  16.8432  17.0999
    17.4851  17.6194  17.7548  20.2408  28.5452

     occupation numbers 
     1.0000   1.0000   1.0000   1.0000   1.0000   1.0000   1.0000   1.0000
     1.0000   1.0000   1.0000   1.0000   1.0000   1.0000   1.0000   1.0000
     1.0000   1.0000   1.0000   0.0000   0.0000

          k = 0.0000 0.3849-0.3106 (  2868 PWs)   bands (ev):

   -77.4772 -77.4772 -40.8498 -40.8498 -40.6857 -40.6857 -40.6633 -40.6633
    13.5712  13.5712  14.9838  14.9838  16.5160  16.5160  16.7008  16.7008
    17.6144  17.6144  18.5920  18.5920  29.6727

     occupation numbers 
     1.0000   1.0000   1.0000   1.0000   1.0000   1.0000   1.0000   1.0000
     1.0000   1.0000   1.0000   1.0000   1.0000   1.0000   1.0000   1.0000
     1.0000   1.0000   0.0000   0.0000   0.0000

          k = 0.0000 0.4811 0.0000 (  2866 PWs)   bands (ev):

   -77.4827 -77.4596 -40.8587 -40.8088 -40.8039 -40.7113 -40.6713 -40.6354
    13.5397  13.9596  14.2083  15.7416  15.8422  16.0951  16.3085  17.7237
    17.8638  17.9582  18.6544  23.5071  26.8240

     occupation numbers 
     1.0000   1.0000   1.0000   1.0000   1.0000   1.0000   1.0000   1.0000
     1.0000   1.0000   1.0000   1.0000   1.0000   1.0000   1.0000   1.0000
     1.0000   1.0000   0.0000   0.0000   0.0000

          k = 0.0000 0.4811 0.1035 (  2876 PWs)   bands (ev):

   -77.4811 -77.4611 -40.8775 -40.8264 -40.7716 -40.7063 -40.6672 -40.6405
    13.4365  13.9612  14.5159  15.1623  15.9556  16.3016  16.8988  17.6753
    17.7637  17.9438  18.4956  22.7515  26.0869

     occupation numbers 
     1.0000   1.0000   1.0000   1.0000   1.0000   1.0000   1.0000   1.0000
     1.0000   1.0000   1.0000   1.0000   1.0000   1.0000   1.0000   1.0000
     1.0000   1.0000   1.0000   0.0000   0.0000

          k = 0.0000 0.4811 0.2070 (  2862 PWs)   bands (ev):

   -77.4769 -77.4653 -40.8920 -40.8586 -40.7240 -40.6924 -40.6677 -40.6544
    13.4106  13.8917  14.6729  15.0087  16.2774  16.5334  17.2694  17.7918
    17.8536  17.9032  18.1790  21.0538  26.2002

     occupation numbers 
     1.0000   1.0000   1.0000   1.0000   1.0000   1.0000   1.0000   1.0000
     1.0000   1.0000   1.0000   1.0000   1.0000   1.0000   1.0000   1.0000
     1.0000   1.0000   1.0000   0.0000   0.0000

          k = 0.0000 0.4811-0.3106 (  2870 PWs)   bands (ev):

   -77.4711 -77.4711 -40.8848 -40.8848 -40.6864 -40.6864 -40.6735 -40.6735
    13.5982  13.5982  14.8659  14.8659  16.7500  16.7500  17.2366  17.2366
    17.8472  17.8472  19.4064  19.4064  26.9815

     occupation numbers 
     1.0000   1.0000   1.0000   1.0000   1.0000   1.0000   1.0000   1.0000
     1.0000   1.0000   1.0000   1.0000   1.0000   1.0000   1.0000   1.0000
     1.0000   1.0000   0.0000   0.0000   0.0000

          k = 0.0000-0.5774 0.0000 (  2870 PWs)   bands (ev):

   -77.4782 -77.4596 -40.8743 -40.8234 -40.7887 -40.7159 -40.6825 -40.6383
    13.8119  13.8131  14.1045  15.7966  15.9843  16.0514  16.3849  17.8560
    17.9653  18.0097  19.7956  21.7866  28.1233

     occupation numbers 
     1.0000   1.0000   1.0000   1.0000   1.0000   1.0000   1.0000   1.0000
     1.0000   1.0000   1.0000   1.0000   1.0000   1.0000   1.0000   1.0000
     1.0000   1.0000   0.0000   0.0000   0.0000

          k = 0.0000-0.5774 0.1035 (  2864 PWs)   bands (ev):

   -77.4769 -77.4609 -40.8894 -40.8402 -40.7630 -40.7107 -40.6762 -40.6435
    13.5431  13.8649  14.5523  15.1354  15.9159  16.3898  17.0947  17.7435
    17.9107  18.0018  19.5910  21.6155  27.2305

     occupation numbers 
     1.0000   1.0000   1.0000   1.0000   1.0000   1.0000   1.0000   1.0000
     1.0000   1.0000   1.0000   1.0000   1.0000   1.0000   1.0000   1.0000
     1.0000   1.0000   0.0000   0.0000   0.0000

          k = 0.0000-0.5774 0.2070 (  2870 PWs)   bands (ev):

   -77.4735 -77.4643 -40.9038 -40.8729 -40.7197 -40.6965 -40.6721 -40.6578
    13.4334  13.8465  14.6969  14.9229  16.2553  16.6776  17.3068  17.9215
    17.9687  17.9800  19.2723  21.0330  26.1400

     occupation numbers 
     1.0000   1.0000   1.0000   1.0000   1.0000   1.0000   1.0000   1.0000
     1.0000   1.0000   1.0000   1.0000   1.0000   1.0000   1.0000   1.0000
     1.0000   1.0000   0.0000   0.0000   0.0000

          k = 0.0000-0.5774-0.3106 (  2876 PWs)   bands (ev):

   -77.4689 -77.4689 -40.8981 -40.8981 -40.6861 -40.6861 -40.6772 -40.6772
    13.5821  13.5821  14.8191  14.8191  16.7552  16.7552  17.4802  17.4802
    17.9503  17.9503  20.0457  20.0457  25.7374

     occupation numbers 
     1.0000   1.0000   1.0000   1.0000   1.0000   1.0000   1.0000   1.0000
     1.0000   1.0000   1.0000   1.0000   1.0000   1.0000   1.0000   1.0000
     1.0000   1.0000   0.0000   0.0000   0.0000

          k = 0.0833 0.1443 0.0000 (  2846 PWs)   bands (ev):

   -77.5214 -77.4700 -40.9081 -40.6863 -40.6658 -40.6367 -40.6112 -40.6067
    10.3292  13.8199  15.5263  16.0038  16.1434  16.3180  16.3219  16.3450
    16.6112  16.6997  17.8027  20.6452  25.0516

     occupation numbers 
     1.0000   1.0000   1.0000   1.0000   1.0000   1.0000   1.0000   1.0000
     1.0000   1.0000   1.0000   1.0000   1.0000   1.0000   1.0000   1.0000
     1.0000   1.0000   1.0000   0.0000   0.0000

          k = 0.0833 0.1443 0.1035 (  2850 PWs)   bands (ev):

   -77.5180 -77.4734 -40.8904 -40.6813 -40.6670 -40.6504 -40.6158 -40.6103
    10.5934  13.7983  15.5507  15.6714  16.0036  16.1679  16.3218  16.4691
    16.7581  16.8086  17.7713  19.6093  26.7958

     occupation numbers 
     1.0000   1.0000   1.0000   1.0000   1.0000   1.0000   1.0000   1.0000
     1.0000   1.0000   1.0000   1.0000   1.0000   1.0000   1.0000   1.0000
     1.0000   1.0000   1.0000   0.0000   0.0000

          k = 0.0833 0.1443 0.2070 (  2847 PWs)   bands (ev):

   -77.5086 -77.4829 -40.8419 -40.7086 -40.6679 -40.6492 -40.6284 -40.6202
    11.3488  13.4528  15.2645  15.6068  15.6941  16.0919  16.1781  16.3173
    17.0922  17.1719  17.6509  18.3926  30.1472

     occupation numbers 
     1.0000   1.0000   1.0000   1.0000   1.0000   1.0000   1.0000   1.0000
     1.0000   1.0000   1.0000   1.0000   1.0000   1.0000   1.0000   1.0000
     1.0000   1.0000   1.0000   1.0000   0.0000

          k = 0.0833 0.1443-0.3106 (  2866 PWs)   bands (ev):

   -77.4957 -77.4957 -40.7753 -40.7753 -40.6505 -40.6505 -40.6326 -40.6326
    12.4461  12.4461  15.3164  15.3164  15.8746  15.8746  16.1692  16.1692
    17.4033  17.4033  17.6873  17.6873  34.0267

     occupation numbers 
     1.0000   1.0000   1.0000   1.0000   1.0000   1.0000   1.0000   1.0000
     1.0000   1.0000   1.0000   1.0000   1.0000   1.0000   1.0000   1.0000
     1.0000   1.0000   1.0000   1.0000   0.0000

          k = 0.0833 0.2406 0.0000 (  2856 PWs)   bands (ev):

   -77.5111 -77.4660 -40.8831 -40.7317 -40.7030 -40.6655 -40.6234 -40.6182
    11.2114  14.1823  15.2528  15.3066  16.0263  16.1237  16.5478  16.5737
    16.7369  17.0216  17.8505  22.2294  25.2785

     occupation numbers 
     1.0000   1.0000   1.0000   1.0000   1.0000   1.0000   1.0000   1.0000
     1.0000   1.0000   1.0000   1.0000   1.0000   1.0000   1.0000   1.0000
     1.0000   1.0000   1.0000   0.0000   0.0000

          k = 0.0833 0.2406 0.1035 (  2857 PWs)   bands (ev):

   -77.5080 -77.4690 -40.8717 -40.7243 -40.7106 -40.6697 -40.6272 -40.6216
    11.4483  14.2200  15.0945  15.3016  15.9025  16.1610  16.3564  16.6818
    16.9346  17.0069  17.8128  20.7809  27.3084

     occupation numbers 
     1.0000   1.0000   1.0000   1.0000   1.0000   1.0000   1.0000   1.0000
     1.0000   1.0000   1.0000   1.0000   1.0000   1.0000   1.0000   1.0000
     1.0000   1.0000   1.0000   0.0000   0.0000

          k = 0.0833 0.2406 0.2070 (  2859 PWs)   bands (ev):

   -77.4998 -77.4773 -40.8399 -40.7471 -40.6996 -40.6669 -40.6401 -40.6321
    12.1178  13.9680  14.8883  15.4053  15.6427  16.0630  16.2980  16.6311
    17.1810  17.3029  17.6909  19.0861  30.7409

     occupation numbers 
     1.0000   1.0000   1.0000   1.0000   1.0000   1.0000   1.0000   1.0000
     1.0000   1.0000   1.0000   1.0000   1.0000   1.0000   1.0000   1.0000
     1.0000   1.0000   1.0000   0.0000   0.0000

          k = 0.0833 0.2406-0.3106 (  2876 PWs)   bands (ev):

   -77.4886 -77.4886 -40.7946 -40.7946 -40.6733 -40.6733 -40.6451 -40.6451
    13.0710  13.0710  15.1571  15.1571  15.7736  15.7736  16.4447  16.4447
    17.4463  17.4463  17.9879  17.9879  34.3042

     occupation numbers 
     1.0000   1.0000   1.0000   1.0000   1.0000   1.0000   1.0000   1.0000
     1.0000   1.0000   1.0000   1.0000   1.0000   1.0000   1.0000   1.0000
     1.0000   1.0000   1.0000   1.0000   0.0000

          k = 0.0833 0.3368 0.0000 (  2859 PWs)   bands (ev):

   -77.4984 -77.4621 -40.8503 -40.7875 -40.7501 -40.6914 -40.6413 -40.6307
    12.3516  14.3059  14.7349  15.1737  15.9377  16.0389  16.3567  16.9693
    17.2339  17.5787  17.8909  24.0560  25.6132

     occupation numbers 
     1.0000   1.0000   1.0000   1.0000   1.0000   1.0000   1.0000   1.0000
     1.0000   1.0000   1.0000   1.0000   1.0000   1.0000   1.0000   1.0000
     1.0000   1.0000   1.0000   0.0000   0.0000

          k = 0.0833 0.3368 0.1035 (  2858 PWs)   bands (ev):

   -77.4960 -77.4645 -40.8545 -40.7743 -40.7550 -40.6910 -40.6434 -40.6333
    12.5186  14.3760  14.6385  15.2242  15.8169  16.1644  16.3376  16.9889
    17.3262  17.4481  17.8932  22.0416  28.0123

     occupation numbers 
     1.0000   1.0000   1.0000   1.0000   1.0000   1.0000   1.0000   1.0000
     1.0000   1.0000   1.0000   1.0000   1.0000   1.0000   1.0000   1.0000
     1.0000   1.0000   1.0000   0.0000   0.0000

          k = 0.0833 0.3368 0.2070 (  2862 PWs)   bands (ev):

   -77.4893 -77.4712 -40.8507 -40.7971 -40.7233 -40.6837 -40.6547 -40.6423
    12.9702  14.1476  14.7355  15.3097  15.7230  16.1954  16.3772  16.9602
    17.4081  17.5694  17.8542  19.9415  30.1803

     occupation numbers 
     1.0000   1.0000   1.0000   1.0000   1.0000   1.0000   1.0000   1.0000
     1.0000   1.0000   1.0000   1.0000   1.0000   1.0000   1.0000   1.0000
     1.0000   1.0000   1.0000   0.0000   0.0000

          k = 0.0833 0.3368-0.3106 (  2862 PWs)   bands (ev):

   -77.4802 -77.4802 -40.8296 -40.8296 -40.6885 -40.6885 -40.6579 -40.6578
    13.5720  13.5720  15.0820  15.0820  15.9382  15.9382  16.6419  16.6419
    17.6377  17.6377  18.4454  18.4454  31.3753

     occupation numbers 
     1.0000   1.0000   1.0000   1.0000   1.0000   1.0000   1.0000   1.0000
     1.0000   1.0000   1.0000   1.0000   1.0000   1.0000   1.0000   1.0000
     1.0000   1.0000   1.0000   1.0000   0.0000

          k = 0.0833 0.4330 0.0000 (  2864 PWs)   bands (ev):

   -77.4863 -77.4598 -40.8371 -40.8154 -40.7917 -40.7116 -40.6633 -40.6414
    13.3658  14.1371  14.3473  15.3922  15.8166  16.1683  16.2280  17.4648
    17.6590  17.9163  18.3654  24.8521  26.0396

     occupation numbers 
     1.0000   1.0000   1.0000   1.0000   1.0000   1.0000   1.0000   1.0000
     1.0000   1.0000   1.0000   1.0000   1.0000   1.0000   1.0000   1.0000
     1.0000   1.0000   1.0000   0.0000   0.0000

          k = 0.0833 0.4330 0.1035 (  2863 PWs)   bands (ev):

   -77.4845 -77.4616 -40.8619 -40.8112 -40.7735 -40.7080 -40.6619 -40.6440
    13.3646  14.1664  14.4919  15.1691  15.8952  16.2312  16.5097  17.4128
    17.7212  17.7306  18.3683  23.0996  26.5840

     occupation numbers 
     1.0000   1.0000   1.0000   1.0000   1.0000   1.0000   1.0000   1.0000
     1.0000   1.0000   1.0000   1.0000   1.0000   1.0000   1.0000   1.0000
     1.0000   1.0000   1.0000   0.0000   0.0000

          k = 0.0833 0.4330 0.2070 (  2864 PWs)   bands (ev):

   -77.4797 -77.4664 -40.8756 -40.8407 -40.7293 -40.6949 -40.6695 -40.6503
    13.4557  14.0409  14.6750  15.1575  16.0026  16.4260  16.8802  17.1560
    17.5907  17.8876  18.4347  20.9504  27.2877

     occupation numbers 
     1.0000   1.0000   1.0000   1.0000   1.0000   1.0000   1.0000   1.0000
     1.0000   1.0000   1.0000   1.0000   1.0000   1.0000   1.0000   1.0000
     1.0000   1.0000   1.0000   0.0000   0.0000

          k = 0.0833 0.4330-0.3106 (  2858 PWs)   bands (ev):

   -77.4730 -77.4730 -40.8670 -40.8670 -40.6973 -40.6973 -40.6659 -40.6659
    13.7058  13.7058  14.9714  14.9714  16.4405  16.4405  16.8245  16.8245
    17.8391  17.8391  19.2759  19.2759  28.3371

     occupation numbers 
     1.0000   1.0000   1.0000   1.0000   1.0000   1.0000   1.0000   1.0000
     1.0000   1.0000   1.0000   1.0000   1.0000   1.0000   1.0000   1.0000
     1.0000   1.0000   0.0000   0.0000   0.0000

          k = 0.0833 0.5292 0.0000 (  2866 PWs)   bands (ev):

   -77.4782 -77.4596 -40.8659 -40.8158 -40.7889 -40.7227 -40.6823 -40.6477
    13.8296  13.9750  14.1533  15.7473  15.7675  16.0439  16.3817  17.8193
    17.8902  17.9276  19.6243  22.5452  27.9316

     occupation numbers 
     1.0000   1.0000   1.0000   1.0000   1.0000   1.0000   1.0000   1.0000
     1.0000   1.0000   1.0000   1.0000   1.0000   1.0000   1.0000   1.0000
     1.0000   1.0000   0.0000   0.0000   0.0000

          k = 0.0833 0.5292 0.1035 (  2873 PWs)   bands (ev):

   -77.4769 -77.4608 -40.8811 -40.8331 -40.7649 -40.7158 -40.6778 -40.6505
    13.6211  13.9942  14.5796  15.1155  15.8213  16.4267  16.7610  17.6936
    17.8540  17.9236  19.5592  22.2946  26.6370

     occupation numbers 
     1.0000   1.0000   1.0000   1.0000   1.0000   1.0000   1.0000   1.0000
     1.0000   1.0000   1.0000   1.0000   1.0000   1.0000   1.0000   1.0000
     1.0000   1.0000   0.0000   0.0000   0.0000

          k = 0.0833 0.5292 0.2070 (  2863 PWs)   bands (ev):

   -77.4735 -77.4642 -40.8957 -40.8655 -40.7294 -40.6953 -40.6816 -40.6555
    13.5352  13.9716  14.7037  15.0264  15.9950  16.7330  17.1539  17.3921
    17.8103  18.0037  19.6048  21.4582  25.8809

     occupation numbers 
     1.0000   1.0000   1.0000   1.0000   1.0000   1.0000   1.0000   1.0000
     1.0000   1.0000   1.0000   1.0000   1.0000   1.0000   1.0000   1.0000
     1.0000   1.0000   0.0000   0.0000   0.0000

          k = 0.0833 0.5292-0.3106 (  2866 PWs)   bands (ev):

   -77.4689 -77.4689 -40.8903 -40.8903 -40.7025 -40.7025 -40.6687 -40.6687
    13.6939  13.6939  14.8892  14.8892  16.5452  16.5452  17.2515  17.2515
    17.8797  17.8797  20.3432  20.3432  26.1506

     occupation numbers 
     1.0000   1.0000   1.0000   1.0000   1.0000   1.0000   1.0000   1.0000
     1.0000   1.0000   1.0000   1.0000   1.0000   1.0000   1.0000   1.0000
     1.0000   1.0000   0.0000   0.0000   0.0000

          k = 0.1667 0.2887 0.0000 (  2864 PWs)   bands (ev):

   -77.5001 -77.4626 -40.8550 -40.7645 -40.7553 -40.6827 -40.6385 -40.6385
    12.2055  14.4752  14.8475  14.9606  15.8697  16.0362  16.4472  16.7399
    17.2219  17.5986  17.8535  23.7983  25.6592

     occupation numbers 
     1.0000   1.0000   1.0000   1.0000   1.0000   1.0000   1.0000   1.0000
     1.0000   1.0000   1.0000   1.0000   1.0000   1.0000   1.0000   1.0000
     1.0000   1.0000   1.0000   0.0000   0.0000

          k = 0.1667 0.2887 0.1035 (  2866 PWs)   bands (ev):

   -77.4976 -77.4651 -40.8544 -40.7623 -40.7490 -40.6900 -40.6426 -40.6364
    12.3940  14.5721  14.7070  15.0134  15.8441  16.0466  16.3220  16.8153
    17.3420  17.4395  17.9050  21.9036  28.0242

     occupation numbers 
     1.0000   1.0000   1.0000   1.0000   1.0000   1.0000   1.0000   1.0000
     1.0000   1.0000   1.0000   1.0000   1.0000   1.0000   1.0000   1.0000
     1.0000   1.0000   1.0000   0.0000   0.0000

          k = 0.1667 0.2887 0.2070 (  2857 PWs)   bands (ev):

   -77.4908 -77.4720 -40.8446 -40.7873 -40.7157 -40.6925 -40.6526 -40.6423
    12.9103  14.2681  14.8356  15.1668  15.6738  15.9101  16.3146  16.8991
    17.4243  17.5449  17.9299  19.8641  31.3830

     occupation numbers 
     1.0000   1.0000   1.0000   1.0000   1.0000   1.0000   1.0000   1.0000
     1.0000   1.0000   1.0000   1.0000   1.0000   1.0000   1.0000   1.0000
     1.0000   1.0000   1.0000   0.0000   0.0000

          k = 0.1667 0.2887-0.3106 (  2858 PWs)   bands (ev):

   -77.4814 -77.4814 -40.8201 -40.8201 -40.6912 -40.6912 -40.6563 -40.6563
    13.6062  13.6062  15.1607  15.1607  15.6230  15.6230  16.5924  16.5924
    17.6878  17.6878  18.4243  18.4243  33.0902

     occupation numbers 
     1.0000   1.0000   1.0000   1.0000   1.0000   1.0000   1.0000   1.0000
     1.0000   1.0000   1.0000   1.0000   1.0000   1.0000   1.0000   1.0000
     1.0000   1.0000   1.0000   1.0000   0.0000

          k = 0.1667 0.3849 0.0000 (  2863 PWs)   bands (ev):

   -77.4883 -77.4600 -40.8216 -40.8087 -40.7870 -40.7095 -40.6591 -40.6580
    13.2990  14.4668  14.4862  14.9253  15.7162  16.1789  16.2589  17.0435
    17.6604  17.8524  18.3878  25.6456  26.0005

     occupation numbers 
     1.0000   1.0000   1.0000   1.0000   1.0000   1.0000   1.0000   1.0000
     1.0000   1.0000   1.0000   1.0000   1.0000   1.0000   1.0000   1.0000
     1.0000   1.0000   1.0000   0.0000   0.0000

          k = 0.1667 0.3849 0.1035 (  2867 PWs)   bands (ev):

   -77.4864 -77.4619 -40.8459 -40.8045 -40.7634 -40.7157 -40.6644 -40.6501
    13.3814  14.4158  14.5706  15.0090  15.7726  16.1547  16.2133  17.0731
    17.6322  17.7501  18.4796  23.1861  28.0215

     occupation numbers 
     1.0000   1.0000   1.0000   1.0000   1.0000   1.0000   1.0000   1.0000
     1.0000   1.0000   1.0000   1.0000   1.0000   1.0000   1.0000   1.0000
     1.0000   1.0000   1.0000   0.0000   0.0000

          k = 0.1667 0.3849 0.2070 (  2862 PWs)   bands (ev):

   -77.4812 -77.4671 -40.8581 -40.8258 -40.7279 -40.7119 -40.6721 -40.6481
    13.6039  14.2155  14.8187  15.2466  15.6945  15.9851  16.3437  17.0311
    17.5314  17.9033  18.6640  20.9691  28.9765

     occupation numbers 
     1.0000   1.0000   1.0000   1.0000   1.0000   1.0000   1.0000   1.0000
     1.0000   1.0000   1.0000   1.0000   1.0000   1.0000   1.0000   1.0000
     1.0000   1.0000   0.0000   0.0000   0.0000

          k = 0.1667 0.3849-0.3106 (  2852 PWs)   bands (ev):

   -77.4742 -77.4742 -40.8493 -40.8493 -40.7108 -40.7108 -40.6619 -40.6619
    13.9093  13.9093  15.1634  15.1634  15.7680  15.7680  16.6153  16.6153
    17.8950  17.8950  19.3652  19.3652  30.1368

     occupation numbers 
     1.0000   1.0000   1.0000   1.0000   1.0000   1.0000   1.0000   1.0000
     1.0000   1.0000   1.0000   1.0000   1.0000   1.0000   1.0000   1.0000
     1.0000   1.0000   0.0000   0.0000   0.0000

          k = 0.1667 0.4811 0.0000 (  2879 PWs)   bands (ev):

   -77.4782 -77.4596 -40.8441 -40.8021 -40.7893 -40.7352 -40.6820 -40.6712
    14.0003  14.2627  14.2705  15.2240  15.6734  16.0551  16.3783  17.4447
    17.8504  17.8797  19.5464  24.1917  27.6465

     occupation numbers 
     1.0000   1.0000   1.0000   1.0000   1.0000   1.0000   1.0000   1.0000
     1.0000   1.0000   1.0000   1.0000   1.0000   1.0000   1.0000   1.0000
     1.0000   1.0000   0.0000   0.0000   0.0000

          k = 0.1667 0.4811 0.1035 (  2875 PWs)   bands (ev):

   -77.4770 -77.4608 -40.8594 -40.8218 -40.7654 -40.7293 -40.6845 -40.6632
    13.8537  14.3363  14.5163  15.0537  15.7247  16.1834  16.4418  17.4280
    17.6518  17.9431  19.6313  23.6636  26.4178

     occupation numbers 
     1.0000   1.0000   1.0000   1.0000   1.0000   1.0000   1.0000   1.0000
     1.0000   1.0000   1.0000   1.0000   1.0000   1.0000   1.0000   1.0000
     1.0000   1.0000   0.0000   0.0000   0.0000

          k = 0.1667 0.4811 0.2070 (  2872 PWs)   bands (ev):

   -77.4736 -77.4642 -40.8752 -40.8501 -40.7465 -40.7122 -40.6850 -40.6545
    13.8185  14.2594  14.7165  15.2646  15.6173  16.3017  16.6510  17.1208
    17.6150  18.0216  19.9459  22.1614  26.4729

     occupation numbers 
     1.0000   1.0000   1.0000   1.0000   1.0000   1.0000   1.0000   1.0000
     1.0000   1.0000   1.0000   1.0000   1.0000   1.0000   1.0000   1.0000
     1.0000   1.0000   0.0000   0.0000   0.0000

          k = 0.1667 0.4811-0.3106 (  2862 PWs)   bands (ev):

   -77.4689 -77.4689 -40.8719 -40.8719 -40.7268 -40.7268 -40.6630 -40.6630
    13.9771  13.9771  15.0660  15.0660  16.0254  16.0254  16.8026  16.8026
    17.9004  17.9004  20.7560  20.7560  27.3541

     occupation numbers 
     1.0000   1.0000   1.0000   1.0000   1.0000   1.0000   1.0000   1.0000
     1.0000   1.0000   1.0000   1.0000   1.0000   1.0000   1.0000   1.0000
     1.0000   1.0000   0.0000   0.0000   0.0000

          k = 0.1667 0.5774 0.0000 (  2876 PWs)   bands (ev):

   -77.4738 -77.4602 -40.8569 -40.8065 -40.7728 -40.7459 -40.6949 -40.6759
    14.1747  14.1765  14.1876  15.4400  15.6894  15.9495  16.4636  17.7164
    17.8494  17.8596  20.7971  22.3539  28.7294

     occupation numbers 
     1.0000   1.0000   1.0000   1.0000   1.0000   1.0000   1.0000   1.0000
     1.0000   1.0000   1.0000   1.0000   1.0000   1.0000   1.0000   1.0000
     1.0000   1.0000   0.0000   0.0000   0.0000

          k = 0.1667 0.5774 0.1035 (  2880 PWs)   bands (ev):

   -77.4728 -77.4611 -40.8690 -40.8248 -40.7692 -40.7241 -40.6970 -40.6688
    13.8824  14.2512  14.6810  15.0354  15.6479  16.3012  16.5312  17.6227
    17.7127  17.9149  20.8989  22.3075  27.7231

     occupation numbers 
     1.0000   1.0000   1.0000   1.0000   1.0000   1.0000   1.0000   1.0000
     1.0000   1.0000   1.0000   1.0000   1.0000   1.0000   1.0000   1.0000
     1.0000   1.0000   0.0000   0.0000   0.0000

          k = 0.1667 0.5774 0.2070 (  2877 PWs)   bands (ev):

   -77.4704 -77.4636 -40.8833 -40.8575 -40.7545 -40.7114 -40.6881 -40.6578
    13.8176  14.2716  14.7532  15.2235  15.5338  16.5021  16.7702  17.1909
    17.7284  17.9550  21.2099  22.1183  26.4310

     occupation numbers 
     1.0000   1.0000   1.0000   1.0000   1.0000   1.0000   1.0000   1.0000
     1.0000   1.0000   1.0000   1.0000   1.0000   1.0000   1.0000   1.0000
     1.0000   1.0000   0.0000   0.0000   0.0000

          k = 0.1667 0.5774-0.3106 (  2862 PWs)   bands (ev):

   -77.4670 -77.4670 -40.8803 -40.8803 -40.7329 -40.7329 -40.6629 -40.6629
    13.9803  13.9803  15.0262  15.0262  16.0658  16.0658  17.0036  17.0036
    17.8397  17.8397  21.7008  21.7008  25.9416

     occupation numbers 
     1.0000   1.0000   1.0000   1.0000   1.0000   1.0000   1.0000   1.0000
     1.0000   1.0000   1.0000   1.0000   1.0000   1.0000   1.0000   1.0000
     1.0000   1.0000   0.0000   0.0000   0.0000

          k = 0.2500 0.4330 0.0000 (  2890 PWs)   bands (ev):

   -77.4783 -77.4595 -40.8250 -40.8039 -40.7895 -40.7352 -40.6887 -40.6818
    14.1252  14.3253  14.6559  14.7110  15.6108  16.0694  16.3854  17.2215
    17.8108  17.8861  19.5536  25.9530  26.6862

     occupation numbers 
     1.0000   1.0000   1.0000   1.0000   1.0000   1.0000   1.0000   1.0000
     1.0000   1.0000   1.0000   1.0000   1.0000   1.0000   1.0000   1.0000
     1.0000   1.0000   0.0000   0.0000   0.0000

          k = 0.2500 0.4330 0.1035 (  2867 PWs)   bands (ev):

   -77.4770 -77.4608 -40.8374 -40.8289 -40.7504 -40.7484 -40.6915 -40.6673
    14.1342  14.2766  14.7241  14.8387  15.7608  15.9253  16.3749  17.2532
    17.6009  17.9512  19.6811  24.4628  26.9717

     occupation numbers 
     1.0000   1.0000   1.0000   1.0000   1.0000   1.0000   1.0000   1.0000
     1.0000   1.0000   1.0000   1.0000   1.0000   1.0000   1.0000   1.0000
     1.0000   1.0000   0.0000   0.0000   0.0000

          k = 0.2500 0.4330 0.2070 (  2861 PWs)   bands (ev):

   -77.4736 -77.4642 -40.8597 -40.8446 -40.7528 -40.7280 -40.6841 -40.6544
    14.1446  14.2234  14.8913  15.2258  15.6008  15.8726  16.4019  17.0365
    17.5852  18.0286  20.0604  22.4405  27.7600

     occupation numbers 
     1.0000   1.0000   1.0000   1.0000   1.0000   1.0000   1.0000   1.0000
     1.0000   1.0000   1.0000   1.0000   1.0000   1.0000   1.0000   1.0000
     1.0000   1.0000   0.0000   0.0000   0.0000

          k = 0.2500 0.4330-0.3106 (  2864 PWs)   bands (ev):

   -77.4689 -77.4689 -40.8605 -40.8605 -40.7400 -40.7400 -40.6613 -40.6613
    14.1763  14.1763  15.2129  15.2129  15.6552  15.6552  16.6077  16.6077
    17.9199  17.9199  20.9116  20.9116  28.7922

     occupation numbers 
     1.0000   1.0000   1.0000   1.0000   1.0000   1.0000   1.0000   1.0000
     1.0000   1.0000   1.0000   1.0000   1.0000   1.0000   1.0000   1.0000
     1.0000   1.0000   0.0000   0.0000   0.0000

          k = 0.2500 0.5292 0.0000 (  2882 PWs)   bands (ev):

   -77.4707 -77.4610 -40.8377 -40.7948 -40.7637 -40.7606 -40.7083 -40.7052
    14.2492  14.4218  14.5244  15.0128  15.6295  15.8735  16.5517  17.4924
    17.7861  17.8336  21.1914  23.7328  26.0397

     occupation numbers 
     1.0000   1.0000   1.0000   1.0000   1.0000   1.0000   1.0000   1.0000
     1.0000   1.0000   1.0000   1.0000   1.0000   1.0000   1.0000   1.0000
     1.0000   1.0000   0.0000   0.0000   0.0000

          k = 0.2500 0.5292 0.1035 (  2882 PWs)   bands (ev):

   -77.4700 -77.4617 -40.8441 -40.8181 -40.7822 -40.7305 -40.7122 -40.6831
    14.1905  14.5530  14.6495  14.9155  15.6580  15.8718  16.5544  17.5002
    17.5756  17.8778  21.3815  23.7584  26.0913

     occupation numbers 
     1.0000   1.0000   1.0000   1.0000   1.0000   1.0000   1.0000   1.0000
     1.0000   1.0000   1.0000   1.0000   1.0000   1.0000   1.0000   1.0000
     1.0000   1.0000   0.0000   0.0000   0.0000

          k = 0.2500 0.5292 0.2070 (  2868 PWs)   bands (ev):

   -77.4683 -77.4634 -40.8603 -40.8459 -40.7808 -40.7396 -40.6815 -40.6616
    14.2091  14.5586  14.8154  15.1040  15.5270  15.8861  16.5948  17.0669
    17.6514  17.9179  21.8821  23.4839  26.0370

     occupation numbers 
     1.0000   1.0000   1.0000   1.0000   1.0000   1.0000   1.0000   1.0000
     1.0000   1.0000   1.0000   1.0000   1.0000   1.0000   1.0000   1.0000
     1.0000   1.0000   0.0000   0.0000   0.0000

          k = 0.2500 0.5292-0.3106 (  2862 PWs)   bands (ev):

   -77.4658 -77.4658 -40.8631 -40.8631 -40.7615 -40.7615 -40.6602 -40.6602
    14.3467  14.3467  15.1084  15.1084  15.6621  15.6621  16.7228  16.7228
    17.8303  17.8303  22.6519  22.6519  26.5810

     occupation numbers 
     1.0000   1.0000   1.0000   1.0000   1.0000   1.0000   1.0000   1.0000
     1.0000   1.0000   1.0000   1.0000   1.0000   1.0000   1.0000   1.0000
     1.0000   1.0000   0.0000   0.0000   0.0000

          k = 0.3333 0.5774 0.0000 (  2880 PWs)   bands (ev):

   -77.4647 -77.4647 -40.8295 -40.7815 -40.7815 -40.7319 -40.7319 -40.7310
    14.2549  14.6148  14.6148  14.9031  15.7055  15.7055  16.6494  17.6363
    17.6363  17.7605  22.9170  23.7270  23.7270

     occupation numbers 
     1.0000   1.0000   1.0000   1.0000   1.0000   1.0000   1.0000   1.0000
     1.0000   1.0000   1.0000   1.0000   1.0000   1.0000   1.0000   1.0000
     1.0000   1.0000   0.0000   0.0000   0.0000

          k = 0.3333 0.5774 0.1035 (  2871 PWs)   bands (ev):

   -77.4647 -77.4647 -40.8230 -40.8098 -40.8098 -40.7376 -40.7034 -40.7034
    14.3496  14.6403  14.6403  14.9236  15.6787  15.6787  16.6206  17.5229
    17.6750  17.6750  23.3201  23.8042  23.8042

     occupation numbers 
     1.0000   1.0000   1.0000   1.0000   1.0000   1.0000   1.0000   1.0000
     1.0000   1.0000   1.0000   1.0000   1.0000   1.0000   1.0000   1.0000
     1.0000   1.0000   0.0000   0.0000   0.0000

          k = 0.3333 0.5774 0.2070 (  2886 PWs)   bands (ev):

   -77.4647 -77.4647 -40.8417 -40.8417 -40.8050 -40.7558 -40.6713 -40.6713
    14.5917  14.6902  14.6902  14.9414  15.6313  15.6313  16.5813  17.0388
    17.7479  17.7479  23.9963  23.9963  24.3485

     occupation numbers 
     1.0000   1.0000   1.0000   1.0000   1.0000   1.0000   1.0000   1.0000
     1.0000   1.0000   1.0000   1.0000   1.0000   1.0000   1.0000   1.0000
     1.0000   1.0000   0.0000   0.0000   0.0000

          k = 0.3333 0.5774-0.3106 (  2910 PWs)   bands (ev):

   -77.4647 -77.4647 -40.8538 -40.8538 -40.7804 -40.7804 -40.6591 -40.6591
    14.7142  14.7142  14.8414  14.8414  15.6109  15.6109  16.6765  16.6765
    17.7824  17.7824  24.1208  24.1208  25.7602

     occupation numbers 
     1.0000   1.0000   1.0000   1.0000   1.0000   1.0000   1.0000   1.0000
     1.0000   1.0000   1.0000   1.0000   1.0000   1.0000   1.0000   1.0000
     1.0000   1.0000   0.0000   0.0000   0.0000

 ------ SPIN DOWN ----------


          k = 0.0000 0.0000 0.0000 (  2863 PWs)   bands (ev):

   -75.4147 -75.3537 -38.8889 -38.5831 -38.5831 -38.5326 -38.5312 -38.5312
     9.6175  14.3968  17.6635  17.6687  17.6687  18.0428  18.0428  18.3460
    18.4348  18.4348  19.6789  19.6789  25.9764

     occupation numbers 
     1.0000   1.0000   1.0000   1.0000   1.0000   1.0000   1.0000   1.0000
     1.0000   1.0000   1.0000   1.0000   1.0000   1.0000   1.0000   1.0000
     1.0000   1.0000   0.0000   0.0000   0.0000

          k = 0.0000 0.0000 0.1035 (  2833 PWs)   bands (ev):

   -75.4106 -75.3578 -38.8653 -38.5796 -38.5796 -38.5568 -38.5347 -38.5347
     9.8972  14.1657  17.5693  17.5963  17.5963  17.7501  17.9552  17.9552
    18.6206  18.6206  19.6652  19.6652  27.3041

     occupation numbers 
     1.0000   1.0000   1.0000   1.0000   1.0000   1.0000   1.0000   1.0000
     1.0000   1.0000   1.0000   1.0000   1.0000   1.0000   1.0000   1.0000
     0.0000   0.0000   0.0000   0.0000   0.0000

          k = 0.0000 0.0000 0.2070 (  2864 PWs)   bands (ev):

   -75.3995 -75.3690 -38.8009 -38.6227 -38.5701 -38.5701 -38.5442 -38.5442
    10.7063  13.2783  17.1053  17.3300  17.5350  17.5350  17.7641  17.7641
    18.9892  18.9892  19.5729  19.5729  30.3007

     occupation numbers 
     1.0000   1.0000   1.0000   1.0000   1.0000   1.0000   1.0000   1.0000
     1.0000   1.0000   1.0000   1.0000   1.0000   1.0000   1.0000   1.0000
     0.0000   0.0000   0.0000   0.0000   0.0000

          k = 0.0000 0.0000-0.3106 (  2858 PWs)   bands (ev):

   -75.3843 -75.3843 -38.7121 -38.7121 -38.5572 -38.5572 -38.5572 -38.5572
    11.9322  11.9322  17.0829  17.0829  17.5957  17.5957  17.5957  17.5957
    19.3408  19.3408  19.3408  19.3408  33.9725

     occupation numbers 
     1.0000   1.0000   1.0000   1.0000   1.0000   1.0000   1.0000   1.0000
     1.0000   1.0000   1.0000   1.0000   1.0000   1.0000   1.0000   1.0000
     0.0000   0.0000   0.0000   0.0000   0.0000

          k = 0.0000 0.0962 0.0000 (  2849 PWs)   bands (ev):

   -75.4113 -75.3523 -38.8812 -38.5996 -38.5885 -38.5483 -38.5358 -38.5339
     9.8588  14.5603  17.3878  17.7133  17.7931  17.8849  17.9812  18.1526
    18.3515  18.3708  19.7156  20.5260  25.9929

     occupation numbers 
     1.0000   1.0000   1.0000   1.0000   1.0000   1.0000   1.0000   1.0000
     1.0000   1.0000   1.0000   1.0000   1.0000   1.0000   1.0000   1.0000
     1.0000   1.0000   0.0000   0.0000   0.0000

          k = 0.0000 0.0962 0.1035 (  2854 PWs)   bands (ev):

   -75.4074 -75.3562 -38.8590 -38.5955 -38.5849 -38.5692 -38.5418 -38.5375
    10.1348  14.3427  17.2788  17.3843  17.6797  17.7026  17.9983  18.0567
    18.5687  18.5891  19.6927  20.1762  27.3863

     occupation numbers 
     1.0000   1.0000   1.0000   1.0000   1.0000   1.0000   1.0000   1.0000
     1.0000   1.0000   1.0000   1.0000   1.0000   1.0000   1.0000   1.0000
     0.0183   0.0000   0.0000   0.0000   0.0000

          k = 0.0000 0.0962 0.2070 (  2858 PWs)   bands (ev):

   -75.3966 -75.3671 -38.7983 -38.6307 -38.5843 -38.5749 -38.5537 -38.5475
    10.9329  13.4721  16.8744  17.3133  17.4318  17.6329  17.7989  17.8643
    18.9588  18.9962  19.5800  19.7663  30.4365

     occupation numbers 
     1.0000   1.0000   1.0000   1.0000   1.0000   1.0000   1.0000   1.0000
     1.0000   1.0000   1.0000   1.0000   1.0000   1.0000   1.0000   1.0000
     0.0000   0.0000   0.0000   0.0000   0.0000

          k = 0.0000 0.0962-0.3106 (  2852 PWs)   bands (ev):

   -75.3819 -75.3819 -38.7147 -38.7147 -38.5690 -38.5690 -38.5612 -38.5612
    12.1424  12.1424  16.9796  16.9796  17.5687  17.5687  17.6945  17.6945
    19.3273  19.3273  19.4050  19.4050  34.1314

     occupation numbers 
     1.0000   1.0000   1.0000   1.0000   1.0000   1.0000   1.0000   1.0000
     1.0000   1.0000   1.0000   1.0000   1.0000   1.0000   1.0000   1.0000
     0.0000   0.0000   0.0000   0.0000   0.0000

          k = 0.0000 0.1925 0.0000 (  2847 PWs)   bands (ev):

   -75.4021 -75.3484 -38.8593 -38.6448 -38.6030 -38.5947 -38.5456 -38.5414
    10.5612  14.9809  16.8743  17.0281  17.7579  18.1466  18.1474  18.2114
    18.2166  18.4611  19.7930  21.9866  26.0598

     occupation numbers 
     1.0000   1.0000   1.0000   1.0000   1.0000   1.0000   1.0000   1.0000
     1.0000   1.0000   1.0000   1.0000   1.0000   1.0000   1.0000   1.0000
     1.0000   1.0000   0.0000   0.0000   0.0000

          k = 0.0000 0.1925 0.1035 (  2848 PWs)   bands (ev):

   -75.3985 -75.3520 -38.8416 -38.6388 -38.6115 -38.5989 -38.5529 -38.5456
    10.8243  14.8080  16.6136  17.0660  17.6442  17.9362  17.9370  18.3155
    18.5422  18.6076  19.7498  21.1926  27.6629

     occupation numbers 
     1.0000   1.0000   1.0000   1.0000   1.0000   1.0000   1.0000   1.0000
     1.0000   1.0000   1.0000   1.0000   1.0000   1.0000   1.0000   1.0000
     0.7441   0.0000   0.0000   0.0000   0.0000

          k = 0.0000 0.1925 0.2070 (  2850 PWs)   bands (ev):

   -75.3887 -75.3619 -38.7933 -38.6612 -38.6197 -38.5877 -38.5715 -38.5569
    11.5835  13.9933  16.4807  17.1464  17.2849  17.7484  17.8738  18.1428
    18.9241  19.0595  19.5943  20.2379  30.8456

     occupation numbers 
     1.0000   1.0000   1.0000   1.0000   1.0000   1.0000   1.0000   1.0000
     1.0000   1.0000   1.0000   1.0000   1.0000   1.0000   1.0000   1.0000
     0.0000   0.0000   0.0000   0.0000   0.0000

          k = 0.0000 0.1925-0.3106 (  2868 PWs)   bands (ev):

   -75.3753 -75.3753 -38.7271 -38.7271 -38.5960 -38.5960 -38.5723 -38.5723
    12.7304  12.7304  16.7686  16.7686  17.4634  17.4634  17.9590  17.9590
    19.3062  19.3062  19.5860  19.5860  34.5631

     occupation numbers 
     1.0000   1.0000   1.0000   1.0000   1.0000   1.0000   1.0000   1.0000
     1.0000   1.0000   1.0000   1.0000   1.0000   1.0000   1.0000   1.0000
     0.0000   0.0000   0.0000   0.0000   0.0000

          k = 0.0000 0.2887 0.0000 (  2852 PWs)   bands (ev):

   -75.3890 -75.3437 -38.8264 -38.7071 -38.6568 -38.6223 -38.5619 -38.5523
    11.6510  15.3969  16.2022  16.7062  17.6054  17.9037  17.9975  18.6547
    18.6655  18.9068  19.8657  23.6725  26.1995

     occupation numbers 
     1.0000   1.0000   1.0000   1.0000   1.0000   1.0000   1.0000   1.0000
     1.0000   1.0000   1.0000   1.0000   1.0000   1.0000   1.0000   0.0000
     0.0000   0.0000   0.0000   0.0000   0.0000

          k = 0.0000 0.2887 0.1035 (  2856 PWs)   bands (ev):

   -75.3860 -75.3467 -38.8193 -38.6956 -38.6709 -38.6176 -38.5666 -38.5570
    11.8845  15.2960  16.0702  16.7669  17.4618  17.9400  17.9423  18.7111
    18.8132  18.8643  19.8031  22.3098  28.1813

     occupation numbers 
[...]
    19.8295  19.9056  21.0034  23.4878  28.4325

     occupation numbers 
     1.0000   1.0000   1.0000   1.0000   1.0000   1.0000   1.0000   1.0000
     1.0000   1.0000   1.0000   1.0000   1.0000   1.0000   1.0000   0.0000
     0.0000   0.0000   0.0000   0.0000   0.0000

          k = 0.0833 0.5292 0.1035 (  2873 PWs)   bands (ev):

   -75.3571 -75.3398 -38.8402 -38.7877 -38.7102 -38.6593 -38.6152 -38.5882
    14.5601  15.1944  15.7332  16.2510  17.4752  17.9918  18.0493  19.6232
    19.7875  19.8711  20.8677  23.1603  27.3525

     occupation numbers 
     1.0000   1.0000   1.0000   1.0000   1.0000   1.0000   1.0000   1.0000
     1.0000   1.0000   1.0000   1.0000   1.0000   1.0000   1.0000   0.0000
     0.0000   0.0000   0.0000   0.0000   0.0000

          k = 0.0833 0.5292 0.2070 (  2863 PWs)   bands (ev):

   -75.3534 -75.3434 -38.8557 -38.8229 -38.6726 -38.6362 -38.6207 -38.5925
    14.5453  15.0302  16.0359  16.3580  17.5312  18.2890  18.4937  19.1558
    19.7361  19.9650  20.6506  22.2384  26.7848

     occupation numbers 
     1.0000   1.0000   1.0000   1.0000   1.0000   1.0000   1.0000   1.0000
     1.0000   1.0000   1.0000   1.0000   1.0000   1.0000   1.0000   0.0000
     0.0000   0.0000   0.0000   0.0000   0.0000

          k = 0.0833 0.5292-0.3106 (  2866 PWs)   bands (ev):

   -75.3484 -75.3484 -38.8498 -38.8498 -38.6438 -38.6438 -38.6067 -38.6067
    14.7263  14.7263  16.3117  16.3117  18.0284  18.0284  18.7976  18.7976
    19.8165  19.8165  21.1879  21.1879  27.0371

     occupation numbers 
     1.0000   1.0000   1.0000   1.0000   1.0000   1.0000   1.0000   1.0000
     1.0000   1.0000   1.0000   1.0000   1.0000   1.0000   0.0000   0.0000
     0.0000   0.0000   0.0000   0.0000   0.0000

          k = 0.1667 0.2887 0.0000 (  2864 PWs)   bands (ev):

   -75.3821 -75.3416 -38.8081 -38.7130 -38.7035 -38.6236 -38.5757 -38.5719
    12.2721  15.6819  16.0261  16.3780  17.5315  17.6371  18.1051  18.5323
    19.0472  19.4081  19.8199  24.5654  26.4189

     occupation numbers 
     1.0000   1.0000   1.0000   1.0000   1.0000   1.0000   1.0000   1.0000
     1.0000   1.0000   1.0000   1.0000   1.0000   1.0000   1.0000   0.9542
     0.0000   0.0000   0.0000   0.0000   0.0000

          k = 0.1667 0.2887 0.1035 (  2866 PWs)   bands (ev):

   -75.3794 -75.3443 -38.8080 -38.7110 -38.6955 -38.6311 -38.5802 -38.5703
    12.4870  15.6219  15.9200  16.4442  17.4541  17.6646  17.9907  18.6039
    19.1767  19.2875  19.8275  22.9139  28.6174

     occupation numbers 
     1.0000   1.0000   1.0000   1.0000   1.0000   1.0000   1.0000   1.0000
     1.0000   1.0000   1.0000   1.0000   1.0000   1.0000   1.0000   0.0000
     0.0000   0.0000   0.0000   0.0000   0.0000

          k = 0.1667 0.2887 0.2070 (  2857 PWs)   bands (ev):

   -75.3720 -75.3518 -38.7983 -38.7375 -38.6584 -38.6335 -38.5909 -38.5776
    13.0964  14.9363  16.1701  16.6131  17.2102  17.4932  18.0451  18.6495
    19.2972  19.4057  19.7782  21.1888  31.8649

     occupation numbers 
     1.0000   1.0000   1.0000   1.0000   1.0000   1.0000   1.0000   1.0000
     1.0000   1.0000   1.0000   1.0000   1.0000   1.0000   1.0000   0.0000
     0.0000   0.0000   0.0000   0.0000   0.0000

          k = 0.1667 0.2887-0.3106 (  2858 PWs)   bands (ev):

   -75.3619 -75.3619 -38.7725 -38.7725 -38.6317 -38.6317 -38.5941 -38.5941
    13.9846  13.9846  16.5498  16.5498  17.1739  17.1739  18.3507  18.3507
    19.5993  19.5993  20.0117  20.0117  33.5101

     occupation numbers 
     1.0000   1.0000   1.0000   1.0000   1.0000   1.0000   1.0000   1.0000
     1.0000   1.0000   1.0000   1.0000   1.0000   1.0000   1.0000   1.0000
     0.0000   0.0000   0.0000   0.0000   0.0000

          k = 0.1667 0.3849 0.0000 (  2863 PWs)   bands (ev):

   -75.3693 -75.3389 -38.7715 -38.7616 -38.7378 -38.6528 -38.5968 -38.5942
    13.5200  15.7197  15.7583  16.1796  17.3349  17.7744  17.8777  18.8680
    19.5508  19.8185  20.1190  26.3293  26.6206

     occupation numbers 
     1.0000   1.0000   1.0000   1.0000   1.0000   1.0000   1.0000   1.0000
     1.0000   1.0000   1.0000   1.0000   1.0000   1.0000   1.0000   0.0000
     0.0000   0.0000   0.0000   0.0000   0.0000

          k = 0.1667 0.3849 0.1035 (  2867 PWs)   bands (ev):

   -75.3673 -75.3409 -38.7999 -38.7568 -38.7101 -38.6591 -38.6034 -38.5855
    13.6711  15.5826  15.8636  16.2838  17.3203  17.7257  17.8383  18.8978
    19.5460  19.6537  20.2329  24.0026  28.6389

     occupation numbers 
     1.0000   1.0000   1.0000   1.0000   1.0000   1.0000   1.0000   1.0000
     1.0000   1.0000   1.0000   1.0000   1.0000   1.0000   1.0000   0.0000
     0.0000   0.0000   0.0000   0.0000   0.0000

          k = 0.1667 0.3849 0.2070 (  2862 PWs)   bands (ev):

   -75.3617 -75.3465 -38.8138 -38.7797 -38.6714 -38.6543 -38.6118 -38.5837
    14.0848  15.1998  16.1515  16.5040  17.1940  17.4381  18.0232  18.8345
    19.4076  19.8393  20.3153  22.0027  29.5780

     occupation numbers 
     1.0000   1.0000   1.0000   1.0000   1.0000   1.0000   1.0000   1.0000
     1.0000   1.0000   1.0000   1.0000   1.0000   1.0000   1.0000   0.0000
     0.0000   0.0000   0.0000   0.0000   0.0000

          k = 0.1667 0.3849-0.3106 (  2852 PWs)   bands (ev):

   -75.3541 -75.3541 -38.8047 -38.8047 -38.6533 -38.6533 -38.5993 -38.5993
    14.6482  14.6482  16.4973  16.4973  17.1642  17.1642  18.3833  18.3833
    19.8419  19.8419  20.6718  20.6718  30.6953

     occupation numbers 
     1.0000   1.0000   1.0000   1.0000   1.0000   1.0000   1.0000   1.0000
     1.0000   1.0000   1.0000   1.0000   1.0000   1.0000   1.0000   1.0000
     0.0000   0.0000   0.0000   0.0000   0.0000

          k = 0.1667 0.4811 0.0000 (  2879 PWs)   bands (ev):

   -75.3585 -75.3384 -38.8004 -38.7542 -38.7360 -38.6807 -38.6191 -38.6112
    14.6261  15.5392  15.5429  16.2182  17.2767  17.6233  18.0088  19.3118
    19.8132  19.8159  21.0152  24.9469  28.2268

     occupation numbers 
     1.0000   1.0000   1.0000   1.0000   1.0000   1.0000   1.0000   1.0000
     1.0000   1.0000   1.0000   1.0000   1.0000   1.0000   1.0000   0.0000
     0.0000   0.0000   0.0000   0.0000   0.0000

          k = 0.1667 0.4811 0.1035 (  2875 PWs)   bands (ev):

   -75.3571 -75.3397 -38.8162 -38.7753 -38.7116 -38.6735 -38.6244 -38.6004
    14.6478  15.4931  15.7076  16.2611  17.2944  17.6056  18.0587  19.2971
    19.5772  19.8891  21.0683  24.3580  27.1744

     occupation numbers 
     1.0000   1.0000   1.0000   1.0000   1.0000   1.0000   1.0000   1.0000
     1.0000   1.0000   1.0000   1.0000   1.0000   1.0000   1.0000   0.0000
     0.0000   0.0000   0.0000   0.0000   0.0000

          k = 0.1667 0.4811 0.2070 (  2872 PWs)   bands (ev):

   -75.3535 -75.3434 -38.8331 -38.8059 -38.6922 -38.6545 -38.6249 -38.5906
    14.7598  15.2898  16.0446  16.5482  17.1324  17.5772  18.2557  18.9623
    19.5109  19.9868  21.2207  22.9303  27.2797

     occupation numbers 
     1.0000   1.0000   1.0000   1.0000   1.0000   1.0000   1.0000   1.0000
     1.0000   1.0000   1.0000   1.0000   1.0000   1.0000   1.0000   0.0000
     0.0000   0.0000   0.0000   0.0000   0.0000

          k = 0.1667 0.4811-0.3106 (  2862 PWs)   bands (ev):

   -75.3484 -75.3484 -38.8295 -38.8295 -38.6709 -38.6709 -38.6000 -38.6000
    14.9927  14.9927  16.4622  16.4622  17.3073  17.3073  18.5279  18.5279
    19.8346  19.8346  21.7515  21.7515  28.0896

     occupation numbers 
     1.0000   1.0000   1.0000   1.0000   1.0000   1.0000   1.0000   1.0000
     1.0000   1.0000   1.0000   1.0000   1.0000   1.0000   0.9840   0.9840
     0.0000   0.0000   0.0000   0.0000   0.0000

          k = 0.1667 0.5774 0.0000 (  2876 PWs)   bands (ev):

   -75.3537 -75.3390 -38.8144 -38.7589 -38.7181 -38.6925 -38.6332 -38.6163
    15.0971  15.4073  15.4804  16.2721  17.3125  17.4729  18.1138  19.6227
    19.7974  19.8146  21.9101  23.3832  29.1455

     occupation numbers 
     1.0000   1.0000   1.0000   1.0000   1.0000   1.0000   1.0000   1.0000
     1.0000   1.0000   1.0000   1.0000   1.0000   1.0000   1.0000   0.0000
     0.0000   0.0000   0.0000   0.0000   0.0000

          k = 0.1667 0.5774 0.1035 (  2880 PWs)   bands (ev):

   -75.3527 -75.3400 -38.8269 -38.7786 -38.7161 -38.6673 -38.6373 -38.6069
    14.9528  15.4536  15.8487  16.1045  17.2498  17.6422  18.1730  19.5456
    19.6198  19.8621  21.9425  23.2885  28.3199

     occupation numbers 
     1.0000   1.0000   1.0000   1.0000   1.0000   1.0000   1.0000   1.0000
     1.0000   1.0000   1.0000   1.0000   1.0000   1.0000   1.0000   0.0000
     0.0000   0.0000   0.0000   0.0000   0.0000

          k = 0.1667 0.5774 0.2070 (  2877 PWs)   bands (ev):

   -75.3500 -75.3427 -38.8422 -38.8140 -38.7009 -38.6540 -38.6274 -38.5942
    14.9162  15.3483  16.1079  16.4633  17.0428  17.7500  18.4019  19.0359
    19.6424  19.9062  22.0747  22.9721  27.2247

     occupation numbers 
     1.0000   1.0000   1.0000   1.0000   1.0000   1.0000   1.0000   1.0000
     1.0000   1.0000   1.0000   1.0000   1.0000   1.0000   1.0000   0.0000
     0.0000   0.0000   0.0000   0.0000   0.0000

          k = 0.1667 0.5774-0.3106 (  2862 PWs)   bands (ev):

   -75.3463 -75.3463 -38.8388 -38.8388 -38.6777 -38.6777 -38.5998 -38.5998
    15.0747  15.0747  16.4536  16.4536  17.3579  17.3579  18.6920  18.6920
    19.7700  19.7700  22.4697  22.4697  26.8379

     occupation numbers 
     1.0000   1.0000   1.0000   1.0000   1.0000   1.0000   1.0000   1.0000
     1.0000   1.0000   1.0000   1.0000   1.0000   1.0000   0.0000   0.0000
     0.0000   0.0000   0.0000   0.0000   0.0000

          k = 0.2500 0.4330 0.0000 (  2890 PWs)   bands (ev):

   -75.3585 -75.3384 -38.7795 -38.7560 -38.7363 -38.6809 -38.6303 -38.6189
    14.6299  15.6119  15.8829  15.8997  17.1875  17.6475  18.0117  19.0761
    19.7703  19.8183  21.0517  26.5158  27.2994

     occupation numbers 
     1.0000   1.0000   1.0000   1.0000   1.0000   1.0000   1.0000   1.0000
     1.0000   1.0000   1.0000   1.0000   1.0000   1.0000   1.0000   0.0000
     0.0000   0.0000   0.0000   0.0000   0.0000

          k = 0.2500 0.4330 0.1035 (  2867 PWs)   bands (ev):

   -75.3572 -75.3397 -38.7912 -38.7836 -38.6952 -38.6948 -38.6332 -38.6038
    14.7131  15.5298  15.9521  16.0885  17.2345  17.4729  18.0078  19.1073
    19.5215  19.8983  21.1587  25.1085  27.5905

     occupation numbers 
     1.0000   1.0000   1.0000   1.0000   1.0000   1.0000   1.0000   1.0000
     1.0000   1.0000   1.0000   1.0000   1.0000   1.0000   1.0000   0.0000
     0.0000   0.0000   0.0000   0.0000   0.0000

          k = 0.2500 0.4330 0.2070 (  2861 PWs)   bands (ev):

   -75.3535 -75.3434 -38.8158 -38.8001 -38.6996 -38.6719 -38.6238 -38.5903
    14.9252  15.3892  16.1759  16.4532  17.0905  17.2147  18.0767  18.8667
    19.4711  19.9950  21.3968  23.2485  28.3779

     occupation numbers 
     1.0000   1.0000   1.0000   1.0000   1.0000   1.0000   1.0000   1.0000
     1.0000   1.0000   1.0000   1.0000   1.0000   1.0000   1.0000   0.0000
     0.0000   0.0000   0.0000   0.0000   0.0000

          k = 0.2500 0.4330-0.3106 (  2864 PWs)   bands (ev):

   -75.3484 -75.3484 -38.8169 -38.8169 -38.6856 -38.6856 -38.5981 -38.5981
    15.1793  15.1793  16.5193  16.5193  16.9838  16.9838  18.3663  18.3663
    19.8580  19.8580  21.9651  21.9651  29.3963

     occupation numbers 
     1.0000   1.0000   1.0000   1.0000   1.0000   1.0000   1.0000   1.0000
     1.0000   1.0000   1.0000   1.0000   1.0000   1.0000   1.0000   1.0000
     0.0000   0.0000   0.0000   0.0000   0.0000

          k = 0.2500 0.5292 0.0000 (  2882 PWs)   bands (ev):

   -75.3504 -75.3400 -38.7933 -38.7462 -38.7121 -38.7047 -38.6516 -38.6443
    15.3521  15.5742  15.7208  15.9795  17.1900  17.4101  18.2108  19.3780
    19.7418  19.7654  22.3158  24.5407  26.6169

     occupation numbers 
     1.0000   1.0000   1.0000   1.0000   1.0000   1.0000   1.0000   1.0000
     1.0000   1.0000   1.0000   1.0000   1.0000   1.0000   1.0000   0.0000
     0.0000   0.0000   0.0000   0.0000   0.0000

          k = 0.2500 0.5292 0.1035 (  2882 PWs)   bands (ev):

   -75.3497 -75.3407 -38.7997 -38.7709 -38.7314 -38.6739 -38.6548 -38.6212
    15.3196  15.6879  15.8075  16.0479  17.1697  17.3125  18.2141  19.3904
    19.4891  19.8182  22.4806  24.5236  26.6959

     occupation numbers 
     1.0000   1.0000   1.0000   1.0000   1.0000   1.0000   1.0000   1.0000
     1.0000   1.0000   1.0000   1.0000   1.0000   1.0000   1.0000   0.0000
     0.0000   0.0000   0.0000   0.0000   0.0000

          k = 0.2500 0.5292 0.2070 (  2868 PWs)   bands (ev):

   -75.3477 -75.3426 -38.8168 -38.8011 -38.7303 -38.6854 -38.6200 -38.5980
    15.3624  15.6533  16.0861  16.3964  16.9284  17.1702  18.2720  18.9081
    19.5563  19.8631  22.8662  24.1792  26.7867

     occupation numbers 
     1.0000   1.0000   1.0000   1.0000   1.0000   1.0000   1.0000   1.0000
     1.0000   1.0000   1.0000   1.0000   1.0000   1.0000   1.0000   0.0000
     0.0000   0.0000   0.0000   0.0000   0.0000

          k = 0.2500 0.5292-0.3106 (  2862 PWs)   bands (ev):

   -75.3451 -75.3451 -38.8197 -38.8197 -38.7094 -38.7094 -38.5966 -38.5966
    15.4976  15.4976  16.4831  16.4831  16.8848  16.8848  18.4735  18.4735
    19.7570  19.7570  23.4580  23.4580  27.3330

     occupation numbers 
     1.0000   1.0000   1.0000   1.0000   1.0000   1.0000   1.0000   1.0000
     1.0000   1.0000   1.0000   1.0000   1.0000   1.0000   1.0000   1.0000
     0.0000   0.0000   0.0000   0.0000   0.0000

          k = 0.3333 0.5774 0.0000 (  2880 PWs)   bands (ev):

   -75.3440 -75.3440 -38.7841 -38.7317 -38.7317 -38.6763 -38.6734 -38.6734
    15.6039  15.7048  15.7048  15.9125  17.2368  17.2368  18.3182  19.5442
    19.5442  19.7123  23.7478  24.5293  24.5293

     occupation numbers 
     1.0000   1.0000   1.0000   1.0000   1.0000   1.0000   1.0000   1.0000
     1.0000   1.0000   1.0000   1.0000   1.0000   1.0000   1.0000   0.0000
     0.0000   0.0000   0.0000   0.0000   0.0000

          k = 0.3333 0.5774 0.1035 (  2871 PWs)   bands (ev):

   -75.3440 -75.3440 -38.7770 -38.7616 -38.7616 -38.6835 -38.6433 -38.6433
    15.6787  15.7810  15.7810  15.9457  17.1526  17.1526  18.2945  19.4330
    19.5880  19.5880  24.1672  24.5815  24.5815

     occupation numbers 
     1.0000   1.0000   1.0000   1.0000   1.0000   1.0000   1.0000   1.0000
     1.0000   1.0000   1.0000   1.0000   1.0000   1.0000   1.0000   0.0000
     0.0000   0.0000   0.0000   0.0000   0.0000

          k = 0.3333 0.5774 0.2070 (  2886 PWs)   bands (ev):

   -75.3439 -75.3439 -38.7961 -38.7961 -38.7573 -38.7034 -38.6086 -38.6086
    15.8540  15.9622  15.9622  16.0071  16.9634  16.9634  18.2848  18.8820
    19.6672  19.6672  24.7108  24.7108  25.1814

     occupation numbers 
     1.0000   1.0000   1.0000   1.0000   1.0000   1.0000   1.0000   1.0000
     1.0000   1.0000   1.0000   1.0000   1.0000   1.0000   1.0000   0.0000
     0.0000   0.0000   0.0000   0.0000   0.0000

          k = 0.3333 0.5774-0.3106 (  2910 PWs)   bands (ev):

   -75.3439 -75.3439 -38.8092 -38.8092 -38.7304 -38.7304 -38.5953 -38.5953
    15.9963  15.9963  16.0798  16.0798  16.8453  16.8453  18.4479  18.4479
    19.7029  19.7029  24.7932  24.7932  26.5149

     occupation numbers 
     1.0000   1.0000   1.0000   1.0000   1.0000   1.0000   1.0000   1.0000
     1.0000   1.0000   1.0000   1.0000   1.0000   1.0000   1.0000   1.0000
     0.0000   0.0000   0.0000   0.0000   0.0000

     the Fermi energy is    18.5486 ev

!    total energy              =    -753.45515069 Ry
     total all-electron energy =     -5573.811842 Ry
     estimated scf accuracy    <       0.00000005 Ry
     smearing contrib. (-TS)   =      -0.00001961 Ry
     internal energy E=F+TS    =    -753.45513108 Ry

     The total energy is F=E-TS. E is the sum of the following terms:
     one-electron contribution =    -283.80739452 Ry
     hartree contribution      =     165.41421075 Ry
     xc contribution           =     -61.39429330 Ry
     ewald contribution        =    -398.49328976 Ry
     one-center paw contrib.   =    -175.17436426 Ry
      -> PAW hartree energy AE =     221.98860969 Ry
      -> PAW hartree energy PS =    -220.93299645 Ry
      -> PAW xc energy AE      =    -117.66963910 Ry
      -> PAW xc energy PS      =      29.02684373 Ry
      -> total E_H with PAW    =     166.46982399 Ry
      -> total E_XC with PAW   =    -150.03708866 Ry

     total magnetization       =     3.31 Bohr mag/cell
     absolute magnetization    =     3.63 Bohr mag/cell

     convergence has been achieved in   7 iterations

     Writing all to output data dir ./out/Co.save/
 
     init_run     :      0.40s CPU      0.50s WALL (       1 calls)
     electrons    :     14.21s CPU     15.09s WALL (       1 calls)

     Called by init_run:
     wfcinit      :      0.28s CPU      0.35s WALL (       1 calls)
     potinit      :      0.08s CPU      0.10s WALL (       1 calls)
     hinit0       :      0.03s CPU      0.03s WALL (       1 calls)

     Called by electrons:
     c_bands      :     12.28s CPU     12.98s WALL (       7 calls)
     sum_band     :      1.30s CPU      1.37s WALL (       7 calls)
     v_of_rho     :      0.02s CPU      0.02s WALL (       8 calls)
     v_h          :      0.00s CPU      0.00s WALL (       8 calls)
     v_xc         :      0.02s CPU      0.02s WALL (       8 calls)
     newd         :      0.03s CPU      0.04s WALL (       8 calls)
     PAW_pot      :      0.64s CPU      0.76s WALL (       8 calls)
     mix_rho      :      0.00s CPU      0.00s WALL (       7 calls)

     Called by c_bands:
     init_us_2    :      0.07s CPU      0.08s WALL (    2128 calls)
     init_us_2:cp :      0.07s CPU      0.08s WALL (    2128 calls)
     cegterg      :     11.79s CPU     12.35s WALL (    1064 calls)

     Called by sum_band:
     sum_band:wei :      0.01s CPU      0.01s WALL (       7 calls)
     sum_band:loo :      1.24s CPU      1.29s WALL (       7 calls)
     sum_band:buf :      0.00s CPU      0.01s WALL (    1064 calls)
     sum_band:ini :      0.04s CPU      0.04s WALL (    1064 calls)
     sum_band:cal :      0.11s CPU      0.10s WALL (    1064 calls)
     sum_band:bec :      0.00s CPU      0.01s WALL (    1064 calls)
     addusdens    :      0.05s CPU      0.05s WALL (       7 calls)
                                        0.00s GPU  (       7 calls)
     addusd:skk   :      0.00s CPU      0.00s WALL (       7 calls)
                                        0.00s GPU  (       7 calls)

     Called by *egterg:
     cdiaghg      :      2.98s CPU      3.05s WALL (    6150 calls)
     cegterg:over :      0.43s CPU      0.39s WALL (    5238 calls)
     cegterg:upda :      0.05s CPU      0.10s WALL (    5238 calls)
     cegterg:last :      0.13s CPU      0.17s WALL (    3388 calls)
     h_psi        :      7.75s CPU      8.17s WALL (    6302 calls)
     s_psi        :      0.15s CPU      0.13s WALL (    6302 calls)
     g_psi        :      0.02s CPU      0.03s WALL (    5238 calls)

     Called by h_psi:
     h_psi:calbec :      0.44s CPU      0.41s WALL (    6302 calls)
     vloc_psi     :      7.21s CPU      7.59s WALL (    6302 calls)
     add_vuspsi   :      0.07s CPU      0.14s WALL (    6302 calls)

     General routines
     calbec       :      0.55s CPU      0.50s WALL (    7366 calls)
     fft          :      0.01s CPU      0.01s WALL (     194 calls)
     ffts         :      0.00s CPU      0.00s WALL (      30 calls)
     fftw         :      7.80s CPU      8.11s WALL (  181096 calls)
     interpolate  :      0.00s CPU      0.00s WALL (      16 calls)
 
     Parallel routines

     PAW routines
     PAW_pot      :      0.64s CPU      0.76s WALL (       8 calls)
     PAW_symme    :      0.01s CPU      0.01s WALL (      14 calls)
 
     PWSCF        :     14.95s CPU     16.58s WALL

 
   This run was terminated on:   8:47:25  22Mar2024            

=------------------------------------------------------------------------------=
   JOB DONE.
=------------------------------------------------------------------------------=
