
     Program PWSCF v.7.2 starts on 22Mar2024 at  7:48: 4 

     This program is part of the open-source Quantum ESPRESSO suite
     for quantum simulation of materials; please cite
         "P. Giannozzi et al., J. Phys.:Condens. Matter 21 395502 (2009);
         "P. Giannozzi et al., J. Phys.:Condens. Matter 29 465901 (2017);
         "P. Giannozzi et al., J. Chem. Phys. 152 154105 (2020);
          URL http://www.quantum-espresso.org", 
     in publications or presentations arising from this work. More details at
     http://www.quantum-espresso.org/quote

     Parallel version (MPI), running on    20 processors

     MPI processes distributed on     1 nodes
     352953 MiB available memory on the printing compute node when the environment starts
 
     Waiting for input...
     Reading input from standard input

     Current dimensions of program PWSCF are:
     Max number of different atomic species (ntypx) = 10
     Max number of k-points (npk) = 120000
     Max angular momentum in pseudopotentials (lmaxx) =  4
     file Co.pbe-spn-kjpaw_psl.0.3.1.UPF: wavefunction(s)  3P 3D renormalized
 
     R & G space division:  proc/nbgrp/npool/nimage =      20
     Subspace diagonalization in iterative solution of the eigenvalue problem:
     a serial algorithm will be used

 
     Parallelization info
     --------------------
     sticks:   dense  smooth     PW     G-vecs:    dense   smooth      PW
     Min          33      33      9                 1159     1125     181
     Max          35      34     10                 1169     1131     188
     Sum         673     661    199                23247    22563    3717
 
     Using Slab Decomposition
 


     bravais-lattice index     =            4
     lattice parameter (alat)  =       4.6771  a.u.
     unit-cell volume          =     144.6302 (a.u.)^3
     number of atoms/cell      =            2
     number of atomic types    =            1
     number of electrons       =        34.00
     number of Kohn-Sham states=           21
     kinetic-energy cutoff     =     110.0000  Ry
     charge density cutoff     =     450.0000  Ry
     scf convergence threshold =      1.0E-06
     mixing beta               =       0.7000
     number of iterations used =            8  plain     mixing
     Exchange-correlation= SLA  PW   PBX  PBC
                           (   1   4   3   4   0   0   0)

     celldm(1)=   4.677072  celldm(2)=   0.000000  celldm(3)=   1.632323
     celldm(4)=   0.000000  celldm(5)=   0.000000  celldm(6)=   0.000000

     crystal axes: (cart. coord. in units of alat)
               a(1) = (   1.000000   0.000000   0.000000 )  
               a(2) = (  -0.500000   0.866025   0.000000 )  
               a(3) = (   0.000000   0.000000   1.632323 )  

     reciprocal axes: (cart. coord. in units 2 pi/alat)
               b(1) = (  1.000000  0.577350  0.000000 )  
               b(2) = (  0.000000  1.154701  0.000000 )  
               b(3) = (  0.000000  0.000000  0.612624 )  


     PseudoPot. # 1 for Co read from file:
     /truba/home/amuhaymin/ZnS/pseudo/QE/Co.pbe-spn-kjpaw_psl.0.3.1.UPF
     MD5 check sum: b0a1ad65bf214e88c1f3d33b20c7d919
     Pseudo is Projector augmented-wave + core cor, Zval = 17.0
     Generated using &quot;atomic&quot; code by A. Dal Corso  v.6.2.2
     Shape of augmentation charge: PSQ
     Using radial grid of 1193 points,  6 beta functions with: 
                l(1) =   0
                l(2) =   0
                l(3) =   1
                l(4) =   1
                l(5) =   2
                l(6) =   2
     Q(r) pseudized with 0 coefficients 


     atomic species   valence    mass     pseudopotential
        Co            17.00    58.93300     Co( 1.00)

     Starting magnetic structure 
     atomic species   magnetization
        Co           0.294

     24 Sym. Ops., with inversion, found (12 have fractional translation)


                                    s                        frac. trans.

      isym =  1     identity                                     

 cryst.   s( 1) = (     1          0          0      )
                  (     0          1          0      )
                  (     0          0          1      )

 cart.    s( 1) = (  1.0000000  0.0000000  0.0000000 )
                  (  0.0000000  1.0000000  0.0000000 )
                  (  0.0000000  0.0000000  1.0000000 )


      isym =  2     180 deg rotation - cart. axis [0,0,1]        

 cryst.   s( 2) = (    -1          0          0      )    f =(  0.0000000 )
                  (     0         -1          0      )       ( -0.0000000 )
                  (     0          0          1      )       ( -0.5000000 )

 cart.    s( 2) = ( -1.0000000  0.0000000  0.0000000 )    f =(  0.0000000 )
                  (  0.0000000 -1.0000000  0.0000000 )       ( -0.0000000 )
                  (  0.0000000  0.0000000  1.0000000 )       ( -0.8161616 )


      isym =  3     180 deg rotation - cart. axis [0,1,0]        

 cryst.   s( 3) = (    -1          0          0      )    f =(  0.0000000 )
                  (     1          1          0      )       (  0.0000000 )
                  (     0          0         -1      )       (  0.5000000 )

 cart.    s( 3) = ( -1.0000000  0.0000000  0.0000000 )    f =(  0.0000000 )
                  (  0.0000000  1.0000000  0.0000000 )       (  0.0000000 )
                  (  0.0000000  0.0000000 -1.0000000 )       (  0.8161616 )


      isym =  4     180 deg rotation - cart. axis [1,0,0]        

 cryst.   s( 4) = (     1          0          0      )
                  (    -1         -1          0      )
                  (     0          0         -1      )

 cart.    s( 4) = (  1.0000000  0.0000000  0.0000000 )
                  (  0.0000000 -1.0000000  0.0000000 )
                  (  0.0000000  0.0000000 -1.0000000 )


      isym =  5      60 deg rotation - cryst. axis [0,0,1]       

 cryst.   s( 5) = (     1          1          0      )    f =(  0.0000000 )
                  (    -1          0          0      )       ( -0.0000000 )
                  (     0          0          1      )       ( -0.5000000 )

 cart.    s( 5) = (  0.5000000 -0.8660254  0.0000000 )    f =(  0.0000000 )
                  (  0.8660254  0.5000000  0.0000000 )       ( -0.0000000 )
                  (  0.0000000  0.0000000  1.0000000 )       ( -0.8161616 )


      isym =  6      60 deg rotation - cryst. axis [0,0,-1]      

 cryst.   s( 6) = (     0         -1          0      )    f =(  0.0000000 )
                  (     1          1          0      )       ( -0.0000000 )
                  (     0          0          1      )       ( -0.5000000 )

 cart.    s( 6) = (  0.5000000  0.8660254  0.0000000 )    f =(  0.0000000 )
                  ( -0.8660254  0.5000000  0.0000000 )       ( -0.0000000 )
                  (  0.0000000  0.0000000  1.0000000 )       ( -0.8161616 )


      isym =  7     120 deg rotation - cryst. axis [0,0,1]       

 cryst.   s( 7) = (     0          1          0      )
                  (    -1         -1          0      )
                  (     0          0          1      )

 cart.    s( 7) = ( -0.5000000 -0.8660254  0.0000000 )
                  (  0.8660254 -0.5000000  0.0000000 )
                  (  0.0000000  0.0000000  1.0000000 )


      isym =  8     120 deg rotation - cryst. axis [0,0,-1]      

 cryst.   s( 8) = (    -1         -1          0      )
                  (     1          0          0      )
                  (     0          0          1      )

 cart.    s( 8) = ( -0.5000000  0.8660254  0.0000000 )
                  ( -0.8660254 -0.5000000  0.0000000 )
                  (  0.0000000  0.0000000  1.0000000 )


      isym =  9     180 deg rotation - cryst. axis [1,-1,0]      

 cryst.   s( 9) = (     0         -1          0      )    f =( -0.0000000 )
                  (    -1          0          0      )       ( -0.0000000 )
                  (     0          0         -1      )       (  0.5000000 )

 cart.    s( 9) = (  0.5000000 -0.8660254  0.0000000 )    f =( -0.0000000 )
                  ( -0.8660254 -0.5000000  0.0000000 )       ( -0.0000000 )
                  (  0.0000000  0.0000000 -1.0000000 )       (  0.8161616 )


      isym = 10     180 deg rotation - cryst. axis [2,1,0]       

 cryst.   s(10) = (     1          1          0      )    f =(  0.0000000 )
                  (     0         -1          0      )       ( -0.0000000 )
                  (     0          0         -1      )       (  0.5000000 )

 cart.    s(10) = (  0.5000000  0.8660254  0.0000000 )    f =(  0.0000000 )
                  (  0.8660254 -0.5000000  0.0000000 )       ( -0.0000000 )
                  (  0.0000000  0.0000000 -1.0000000 )       (  0.8161616 )


      isym = 11     180 deg rotation - cryst. axis [0,1,0]       

 cryst.   s(11) = (    -1         -1          0      )
                  (     0          1          0      )
                  (     0          0         -1      )

 cart.    s(11) = ( -0.5000000 -0.8660254  0.0000000 )
                  ( -0.8660254  0.5000000  0.0000000 )
                  (  0.0000000  0.0000000 -1.0000000 )


      isym = 12     180 deg rotation - cryst. axis [1,1,0]       

 cryst.   s(12) = (     0          1          0      )
                  (     1          0          0      )
                  (     0          0         -1      )

 cart.    s(12) = ( -0.5000000  0.8660254  0.0000000 )
                  (  0.8660254  0.5000000  0.0000000 )
                  (  0.0000000  0.0000000 -1.0000000 )


      isym = 13     inversion                                    

 cryst.   s(13) = (    -1          0          0      )
                  (     0         -1          0      )
                  (     0          0         -1      )

 cart.    s(13) = ( -1.0000000  0.0000000  0.0000000 )
                  (  0.0000000 -1.0000000  0.0000000 )
                  (  0.0000000  0.0000000 -1.0000000 )


      isym = 14     inv. 180 deg rotation - cart. axis [0,0,1]   

 cryst.   s(14) = (     1          0          0      )    f =(  0.0000000 )
                  (     0          1          0      )       (  0.0000000 )
                  (     0          0         -1      )       (  0.5000000 )

 cart.    s(14) = (  1.0000000  0.0000000  0.0000000 )    f =(  0.0000000 )
                  (  0.0000000  1.0000000  0.0000000 )       (  0.0000000 )
                  (  0.0000000  0.0000000 -1.0000000 )       (  0.8161616 )


      isym = 15     inv. 180 deg rotation - cart. axis [0,1,0]   

 cryst.   s(15) = (     1          0          0      )    f =(  0.0000000 )
                  (    -1         -1          0      )       ( -0.0000000 )
                  (     0          0          1      )       ( -0.5000000 )

 cart.    s(15) = (  1.0000000  0.0000000  0.0000000 )    f =(  0.0000000 )
                  (  0.0000000 -1.0000000  0.0000000 )       ( -0.0000000 )
                  (  0.0000000  0.0000000  1.0000000 )       ( -0.8161616 )


      isym = 16     inv. 180 deg rotation - cart. axis [1,0,0]   

 cryst.   s(16) = (    -1          0          0      )
                  (     1          1          0      )
                  (     0          0          1      )

 cart.    s(16) = ( -1.0000000  0.0000000  0.0000000 )
                  (  0.0000000  1.0000000  0.0000000 )
                  (  0.0000000  0.0000000  1.0000000 )


      isym = 17     inv.  60 deg rotation - cryst. axis [0,0,1]  

 cryst.   s(17) = (    -1         -1          0      )    f =(  0.0000000 )
                  (     1          0          0      )       ( -0.0000000 )
                  (     0          0         -1      )       (  0.5000000 )

 cart.    s(17) = ( -0.5000000  0.8660254  0.0000000 )    f =(  0.0000000 )
                  ( -0.8660254 -0.5000000  0.0000000 )       ( -0.0000000 )
                  (  0.0000000  0.0000000 -1.0000000 )       (  0.8161616 )


      isym = 18     inv.  60 deg rotation - cryst. axis [0,0,-1] 

 cryst.   s(18) = (     0          1          0      )    f =( -0.0000000 )
                  (    -1         -1          0      )       ( -0.0000000 )
                  (     0          0         -1      )       (  0.5000000 )

 cart.    s(18) = ( -0.5000000 -0.8660254  0.0000000 )    f =(  0.0000000 )
                  (  0.8660254 -0.5000000  0.0000000 )       ( -0.0000000 )
                  (  0.0000000  0.0000000 -1.0000000 )       (  0.8161616 )


      isym = 19     inv. 120 deg rotation - cryst. axis [0,0,1]  

 cryst.   s(19) = (     0         -1          0      )
                  (     1          1          0      )
                  (     0          0         -1      )

 cart.    s(19) = (  0.5000000  0.8660254  0.0000000 )
                  ( -0.8660254  0.5000000  0.0000000 )
                  (  0.0000000  0.0000000 -1.0000000 )


      isym = 20     inv. 120 deg rotation - cryst. axis [0,0,-1] 

 cryst.   s(20) = (     1          1          0      )
                  (    -1          0          0      )
                  (     0          0         -1      )

 cart.    s(20) = (  0.5000000 -0.8660254  0.0000000 )
                  (  0.8660254  0.5000000  0.0000000 )
                  (  0.0000000  0.0000000 -1.0000000 )


      isym = 21     inv. 180 deg rotation - cryst. axis [1,-1,0] 

 cryst.   s(21) = (     0          1          0      )    f =(  0.0000000 )
                  (     1          0          0      )       ( -0.0000000 )
                  (     0          0          1      )       ( -0.5000000 )

 cart.    s(21) = ( -0.5000000  0.8660254  0.0000000 )    f =(  0.0000000 )
                  (  0.8660254  0.5000000  0.0000000 )       ( -0.0000000 )
                  (  0.0000000  0.0000000  1.0000000 )       ( -0.8161616 )


      isym = 22     inv. 180 deg rotation - cryst. axis [2,1,0]  

 cryst.   s(22) = (    -1         -1          0      )    f =(  0.0000000 )
                  (     0          1          0      )       ( -0.0000000 )
                  (     0          0          1      )       ( -0.5000000 )

 cart.    s(22) = ( -0.5000000 -0.8660254  0.0000000 )    f =(  0.0000000 )
                  ( -0.8660254  0.5000000  0.0000000 )       ( -0.0000000 )
                  (  0.0000000  0.0000000  1.0000000 )       ( -0.8161616 )


      isym = 23     inv. 180 deg rotation - cryst. axis [0,1,0]  

 cryst.   s(23) = (     1          1          0      )
                  (     0         -1          0      )
                  (     0          0          1      )

 cart.    s(23) = (  0.5000000  0.8660254  0.0000000 )
                  (  0.8660254 -0.5000000  0.0000000 )
                  (  0.0000000  0.0000000  1.0000000 )


      isym = 24     inv. 180 deg rotation - cryst. axis [1,1,0]  

 cryst.   s(24) = (     0         -1          0      )
                  (    -1          0          0      )
                  (     0          0          1      )

 cart.    s(24) = (  0.5000000 -0.8660254  0.0000000 )
                  ( -0.8660254 -0.5000000  0.0000000 )
                  (  0.0000000  0.0000000  1.0000000 )


     point group D_6h(6/mmm)
     there are 12 classes
     the character table:

       E     2C6   2C3   C2    3C2'  3C2'' i     2S3   2S6   s_h   3s_d  3s_v 
A_1g   1.00  1.00  1.00  1.00  1.00  1.00  1.00  1.00  1.00  1.00  1.00  1.00
A_2g   1.00  1.00  1.00  1.00 -1.00 -1.00  1.00  1.00  1.00  1.00 -1.00 -1.00
B_1g   1.00 -1.00  1.00 -1.00  1.00 -1.00  1.00 -1.00  1.00 -1.00  1.00 -1.00
B_2g   1.00 -1.00  1.00 -1.00 -1.00  1.00  1.00 -1.00  1.00 -1.00 -1.00  1.00
E_1g   2.00  1.00 -1.00 -2.00  0.00  0.00  2.00  1.00 -1.00 -2.00  0.00  0.00
E_2g   2.00 -1.00 -1.00  2.00  0.00  0.00  2.00 -1.00 -1.00  2.00  0.00  0.00
A_1u   1.00  1.00  1.00  1.00  1.00  1.00 -1.00 -1.00 -1.00 -1.00 -1.00 -1.00
A_2u   1.00  1.00  1.00  1.00 -1.00 -1.00 -1.00 -1.00 -1.00 -1.00  1.00  1.00
B_1u   1.00 -1.00  1.00 -1.00  1.00 -1.00 -1.00  1.00 -1.00  1.00 -1.00  1.00
B_2u   1.00 -1.00  1.00 -1.00 -1.00  1.00 -1.00  1.00 -1.00  1.00  1.00 -1.00
E_1u   2.00  1.00 -1.00 -2.00  0.00  0.00 -2.00 -1.00  1.00  2.00  0.00  0.00
E_2u   2.00 -1.00 -1.00  2.00  0.00  0.00 -2.00  1.00  1.00 -2.00  0.00  0.00

     the symmetry operations in each class and the name of the first element:

     E        1
          identity                                               
     2C6      5    6
           60 deg rotation - cryst. axis [0,0,1]                 
     2C3      7    8
          120 deg rotation - cryst. axis [0,0,1]                 
     C2       2
          180 deg rotation - cart. axis [0,0,1]                  
     3C2'     4   12   11
          180 deg rotation - cart. axis [1,0,0]                  
     3C2''    3    9   10
          180 deg rotation - cart. axis [0,1,0]                  
     i       13
          inversion                                              
     2S3     17   18
          inv.  60 deg rotation - cryst. axis [0,0,1]            
     2S6     19   20
          inv. 120 deg rotation - cryst. axis [0,0,1]            
     s_h     14
          inv. 180 deg rotation - cart. axis [0,0,1]             
     3s_d    16   24   23
          inv. 180 deg rotation - cart. axis [1,0,0]             
     3s_v    15   21   22
          inv. 180 deg rotation - cart. axis [0,1,0]             

   Cartesian axes

     site n.     atom                  positions (alat units)
         1           Co  tau(   1) = (  -0.0000000   0.5773503   0.4080808  )
         2           Co  tau(   2) = (   0.5000000   0.2886751   1.2242424  )

   Crystallographic axes

     site n.     atom                  positions (cryst. coord.)
         1           Co  tau(   1) = (  0.3333333  0.6666667  0.2500000  )
         2           Co  tau(   2) = (  0.6666667  0.3333333  0.7500000  )

     number of k points=    76  Gaussian smearing, width (Ry)=  0.0010
                       cart. coord. in units 2pi/alat
        k(    1) = (   0.0000000   0.0000000   0.0000000), wk =   0.0011574
        k(    2) = (   0.0000000   0.0000000   0.1021040), wk =   0.0023148
        k(    3) = (   0.0000000   0.0000000   0.2042079), wk =   0.0023148
        k(    4) = (   0.0000000   0.0000000  -0.3063119), wk =   0.0011574
        k(    5) = (   0.0000000   0.0962250   0.0000000), wk =   0.0069444
        k(    6) = (   0.0000000   0.0962250   0.1021040), wk =   0.0138889
        k(    7) = (   0.0000000   0.0962250   0.2042079), wk =   0.0138889
        k(    8) = (   0.0000000   0.0962250  -0.3063119), wk =   0.0069444
        k(    9) = (   0.0000000   0.1924501   0.0000000), wk =   0.0069444
        k(   10) = (   0.0000000   0.1924501   0.1021040), wk =   0.0138889
        k(   11) = (   0.0000000   0.1924501   0.2042079), wk =   0.0138889
        k(   12) = (   0.0000000   0.1924501  -0.3063119), wk =   0.0069444
        k(   13) = (   0.0000000   0.2886751   0.0000000), wk =   0.0069444
        k(   14) = (   0.0000000   0.2886751   0.1021040), wk =   0.0138889
        k(   15) = (   0.0000000   0.2886751   0.2042079), wk =   0.0138889
        k(   16) = (   0.0000000   0.2886751  -0.3063119), wk =   0.0069444
        k(   17) = (   0.0000000   0.3849002   0.0000000), wk =   0.0069444
        k(   18) = (   0.0000000   0.3849002   0.1021040), wk =   0.0138889
        k(   19) = (   0.0000000   0.3849002   0.2042079), wk =   0.0138889
        k(   20) = (   0.0000000   0.3849002  -0.3063119), wk =   0.0069444
        k(   21) = (   0.0000000   0.4811252   0.0000000), wk =   0.0069444
        k(   22) = (   0.0000000   0.4811252   0.1021040), wk =   0.0138889
        k(   23) = (   0.0000000   0.4811252   0.2042079), wk =   0.0138889
        k(   24) = (   0.0000000   0.4811252  -0.3063119), wk =   0.0069444
        k(   25) = (   0.0000000  -0.5773503   0.0000000), wk =   0.0034722
        k(   26) = (   0.0000000  -0.5773503   0.1021040), wk =   0.0069444
        k(   27) = (   0.0000000  -0.5773503   0.2042079), wk =   0.0069444
        k(   28) = (   0.0000000  -0.5773503  -0.3063119), wk =   0.0034722
        k(   29) = (   0.0833333   0.1443376   0.0000000), wk =   0.0069444
        k(   30) = (   0.0833333   0.1443376   0.1021040), wk =   0.0138889
        k(   31) = (   0.0833333   0.1443376   0.2042079), wk =   0.0138889
        k(   32) = (   0.0833333   0.1443376  -0.3063119), wk =   0.0069444
        k(   33) = (   0.0833333   0.2405626   0.0000000), wk =   0.0138889
        k(   34) = (   0.0833333   0.2405626   0.1021040), wk =   0.0277778
        k(   35) = (   0.0833333   0.2405626   0.2042079), wk =   0.0277778
        k(   36) = (   0.0833333   0.2405626  -0.3063119), wk =   0.0138889
        k(   37) = (   0.0833333   0.3367877   0.0000000), wk =   0.0138889
        k(   38) = (   0.0833333   0.3367877   0.1021040), wk =   0.0277778
        k(   39) = (   0.0833333   0.3367877   0.2042079), wk =   0.0277778
        k(   40) = (   0.0833333   0.3367877  -0.3063119), wk =   0.0138889
        k(   41) = (   0.0833333   0.4330127   0.0000000), wk =   0.0138889
        k(   42) = (   0.0833333   0.4330127   0.1021040), wk =   0.0277778
        k(   43) = (   0.0833333   0.4330127   0.2042079), wk =   0.0277778
        k(   44) = (   0.0833333   0.4330127  -0.3063119), wk =   0.0138889
        k(   45) = (   0.0833333   0.5292377   0.0000000), wk =   0.0138889
        k(   46) = (   0.0833333   0.5292377   0.1021040), wk =   0.0277778
        k(   47) = (   0.0833333   0.5292377   0.2042079), wk =   0.0277778
        k(   48) = (   0.0833333   0.5292377  -0.3063119), wk =   0.0138889
        k(   49) = (   0.1666667   0.2886751   0.0000000), wk =   0.0069444
        k(   50) = (   0.1666667   0.2886751   0.1021040), wk =   0.0138889
        k(   51) = (   0.1666667   0.2886751   0.2042079), wk =   0.0138889
        k(   52) = (   0.1666667   0.2886751  -0.3063119), wk =   0.0069444
        k(   53) = (   0.1666667   0.3849002   0.0000000), wk =   0.0138889
        k(   54) = (   0.1666667   0.3849002   0.1021040), wk =   0.0277778
        k(   55) = (   0.1666667   0.3849002   0.2042079), wk =   0.0277778
        k(   56) = (   0.1666667   0.3849002  -0.3063119), wk =   0.0138889
        k(   57) = (   0.1666667   0.4811252   0.0000000), wk =   0.0138889
        k(   58) = (   0.1666667   0.4811252   0.1021040), wk =   0.0277778
        k(   59) = (   0.1666667   0.4811252   0.2042079), wk =   0.0277778
        k(   60) = (   0.1666667   0.4811252  -0.3063119), wk =   0.0138889
        k(   61) = (   0.1666667   0.5773503   0.0000000), wk =   0.0069444
        k(   62) = (   0.1666667   0.5773503   0.1021040), wk =   0.0138889
        k(   63) = (   0.1666667   0.5773503   0.2042079), wk =   0.0138889
        k(   64) = (   0.1666667   0.5773503  -0.3063119), wk =   0.0069444
        k(   65) = (   0.2500000   0.4330127   0.0000000), wk =   0.0069444
        k(   66) = (   0.2500000   0.4330127   0.1021040), wk =   0.0138889
        k(   67) = (   0.2500000   0.4330127   0.2042079), wk =   0.0138889
        k(   68) = (   0.2500000   0.4330127  -0.3063119), wk =   0.0069444
        k(   69) = (   0.2500000   0.5292377   0.0000000), wk =   0.0138889
        k(   70) = (   0.2500000   0.5292377   0.1021040), wk =   0.0277778
        k(   71) = (   0.2500000   0.5292377   0.2042079), wk =   0.0277778
        k(   72) = (   0.2500000   0.5292377  -0.3063119), wk =   0.0138889
        k(   73) = (   0.3333333   0.5773503   0.0000000), wk =   0.0023148
        k(   74) = (   0.3333333   0.5773503   0.1021040), wk =   0.0046296
        k(   75) = (   0.3333333   0.5773503   0.2042079), wk =   0.0046296
        k(   76) = (   0.3333333   0.5773503  -0.3063119), wk =   0.0023148

                       cryst. coord.
        k(    1) = (   0.0000000   0.0000000   0.0000000), wk =   0.0011574
        k(    2) = (   0.0000000   0.0000000   0.1666667), wk =   0.0023148
        k(    3) = (   0.0000000   0.0000000   0.3333333), wk =   0.0023148
        k(    4) = (   0.0000000   0.0000000  -0.5000000), wk =   0.0011574
        k(    5) = (   0.0000000   0.0833333   0.0000000), wk =   0.0069444
        k(    6) = (   0.0000000   0.0833333   0.1666667), wk =   0.0138889
        k(    7) = (   0.0000000   0.0833333   0.3333333), wk =   0.0138889
        k(    8) = (   0.0000000   0.0833333  -0.5000000), wk =   0.0069444
        k(    9) = (   0.0000000   0.1666667   0.0000000), wk =   0.0069444
        k(   10) = (   0.0000000   0.1666667   0.1666667), wk =   0.0138889
        k(   11) = (   0.0000000   0.1666667   0.3333333), wk =   0.0138889
        k(   12) = (   0.0000000   0.1666667  -0.5000000), wk =   0.0069444
        k(   13) = (   0.0000000   0.2500000   0.0000000), wk =   0.0069444
        k(   14) = (   0.0000000   0.2500000   0.1666667), wk =   0.0138889
        k(   15) = (   0.0000000   0.2500000   0.3333333), wk =   0.0138889
        k(   16) = (   0.0000000   0.2500000  -0.5000000), wk =   0.0069444
        k(   17) = (   0.0000000   0.3333333   0.0000000), wk =   0.0069444
        k(   18) = (   0.0000000   0.3333333   0.1666667), wk =   0.0138889
        k(   19) = (   0.0000000   0.3333333   0.3333333), wk =   0.0138889
        k(   20) = (   0.0000000   0.3333333  -0.5000000), wk =   0.0069444
        k(   21) = (   0.0000000   0.4166667   0.0000000), wk =   0.0069444
        k(   22) = (   0.0000000   0.4166667   0.1666667), wk =   0.0138889
        k(   23) = (   0.0000000   0.4166667   0.3333333), wk =   0.0138889
        k(   24) = (   0.0000000   0.4166667  -0.5000000), wk =   0.0069444
        k(   25) = (   0.0000000  -0.5000000   0.0000000), wk =   0.0034722
        k(   26) = (   0.0000000  -0.5000000   0.1666667), wk =   0.0069444
        k(   27) = (   0.0000000  -0.5000000   0.3333333), wk =   0.0069444
        k(   28) = (   0.0000000  -0.5000000  -0.5000000), wk =   0.0034722
        k(   29) = (   0.0833333   0.0833333   0.0000000), wk =   0.0069444
        k(   30) = (   0.0833333   0.0833333   0.1666667), wk =   0.0138889
        k(   31) = (   0.0833333   0.0833333   0.3333333), wk =   0.0138889
        k(   32) = (   0.0833333   0.0833333  -0.5000000), wk =   0.0069444
        k(   33) = (   0.0833333   0.1666667   0.0000000), wk =   0.0138889
        k(   34) = (   0.0833333   0.1666667   0.1666667), wk =   0.0277778
        k(   35) = (   0.0833333   0.1666667   0.3333333), wk =   0.0277778
        k(   36) = (   0.0833333   0.1666667  -0.5000000), wk =   0.0138889
        k(   37) = (   0.0833333   0.2500000   0.0000000), wk =   0.0138889
        k(   38) = (   0.0833333   0.2500000   0.1666667), wk =   0.0277778
        k(   39) = (   0.0833333   0.2500000   0.3333333), wk =   0.0277778
        k(   40) = (   0.0833333   0.2500000  -0.5000000), wk =   0.0138889
        k(   41) = (   0.0833333   0.3333333   0.0000000), wk =   0.0138889
        k(   42) = (   0.0833333   0.3333333   0.1666667), wk =   0.0277778
        k(   43) = (   0.0833333   0.3333333   0.3333333), wk =   0.0277778
        k(   44) = (   0.0833333   0.3333333  -0.5000000), wk =   0.0138889
        k(   45) = (   0.0833333   0.4166667   0.0000000), wk =   0.0138889
        k(   46) = (   0.0833333   0.4166667   0.1666667), wk =   0.0277778
        k(   47) = (   0.0833333   0.4166667   0.3333333), wk =   0.0277778
        k(   48) = (   0.0833333   0.4166667  -0.5000000), wk =   0.0138889
        k(   49) = (   0.1666667   0.1666667   0.0000000), wk =   0.0069444
        k(   50) = (   0.1666667   0.1666667   0.1666667), wk =   0.0138889
        k(   51) = (   0.1666667   0.1666667   0.3333333), wk =   0.0138889
        k(   52) = (   0.1666667   0.1666667  -0.5000000), wk =   0.0069444
        k(   53) = (   0.1666667   0.2500000   0.0000000), wk =   0.0138889
        k(   54) = (   0.1666667   0.2500000   0.1666667), wk =   0.0277778
        k(   55) = (   0.1666667   0.2500000   0.3333333), wk =   0.0277778
        k(   56) = (   0.1666667   0.2500000  -0.5000000), wk =   0.0138889
        k(   57) = (   0.1666667   0.3333333   0.0000000), wk =   0.0138889
        k(   58) = (   0.1666667   0.3333333   0.1666667), wk =   0.0277778
        k(   59) = (   0.1666667   0.3333333   0.3333333), wk =   0.0277778
        k(   60) = (   0.1666667   0.3333333  -0.5000000), wk =   0.0138889
        k(   61) = (   0.1666667   0.4166667   0.0000000), wk =   0.0069444
        k(   62) = (   0.1666667   0.4166667   0.1666667), wk =   0.0138889
        k(   63) = (   0.1666667   0.4166667   0.3333333), wk =   0.0138889
        k(   64) = (   0.1666667   0.4166667  -0.5000000), wk =   0.0069444
        k(   65) = (   0.2500000   0.2500000   0.0000000), wk =   0.0069444
        k(   66) = (   0.2500000   0.2500000   0.1666667), wk =   0.0138889
        k(   67) = (   0.2500000   0.2500000   0.3333333), wk =   0.0138889
        k(   68) = (   0.2500000   0.2500000  -0.5000000), wk =   0.0069444
        k(   69) = (   0.2500000   0.3333333   0.0000000), wk =   0.0138889
        k(   70) = (   0.2500000   0.3333333   0.1666667), wk =   0.0277778
        k(   71) = (   0.2500000   0.3333333   0.3333333), wk =   0.0277778
        k(   72) = (   0.2500000   0.3333333  -0.5000000), wk =   0.0138889
        k(   73) = (   0.3333333   0.3333333   0.0000000), wk =   0.0023148
        k(   74) = (   0.3333333   0.3333333   0.1666667), wk =   0.0046296
        k(   75) = (   0.3333333   0.3333333   0.3333333), wk =   0.0046296
        k(   76) = (   0.3333333   0.3333333  -0.5000000), wk =   0.0023148

     Dense  grid:    23247 G-vectors     FFT dimensions: (  32,  32,  54)

     Smooth grid:    22563 G-vectors     FFT dimensions: (  32,  32,  54)

     Dynamical RAM for                 wfc:       0.04 MB

     Dynamical RAM for     wfc (w. buffer):       6.86 MB

     Dynamical RAM for           str. fact:       0.02 MB

     Dynamical RAM for           local pot:       0.00 MB

     Dynamical RAM for          nlocal pot:       0.08 MB

     Dynamical RAM for                qrad:       1.70 MB

     Dynamical RAM for          rho,v,vnew:       0.25 MB

     Dynamical RAM for               rhoin:       0.08 MB

     Dynamical RAM for            rho*nmix:       0.57 MB

     Dynamical RAM for           G-vectors:       0.08 MB

     Dynamical RAM for          h,s,v(r/c):       0.08 MB

     Dynamical RAM for          <psi|beta>:       0.01 MB

     Dynamical RAM for                 psi:       0.09 MB

     Dynamical RAM for                hpsi:       0.09 MB

     Dynamical RAM for                spsi:       0.09 MB

     Dynamical RAM for      wfcinit/wfcrot:       0.10 MB

     Dynamical RAM for           addusdens:       3.35 MB

     Estimated static dynamical RAM per process >       9.24 MB

     Estimated max dynamical RAM per process >      13.16 MB

     Estimated total dynamical RAM >     263.19 MB

     Check: negative core charge=   -0.000044
     Generating pointlists ...
     new r_m :   0.4124 (alat units)  1.9288 (a.u.) for type    1

     The initial density is read from file :
     ./out/Co.save/charge-density


     starting charge      33.8446, renormalised to      34.0000

     negative rho (up, down):  3.430E-01 2.915E-01
     Starting wfcs from file
     Checking if some PAW data can be deallocated... 

     total cpu time spent up to now is        0.6 secs

     Self-consistent Calculation

     iteration #  1     ecut=   110.00 Ry     beta= 0.70
     Davidson diagonalization with overlap

---- Real-time Memory Report at c_bands before calling an iterative solver
            56 MiB given to the printing process from OS
             0 MiB allocation reported by mallinfo(arena+hblkhd)
        352376 MiB available memory on the node where the printing process lives
------------------
     c_bands:  2 eigenvalues not converged
     c_bands:  1 eigenvalues not converged
     c_bands:  1 eigenvalues not converged
     c_bands:  5 eigenvalues not converged
     c_bands:  4 eigenvalues not converged
     c_bands:  5 eigenvalues not converged
     c_bands:  4 eigenvalues not converged
     c_bands:  1 eigenvalues not converged
     c_bands:  1 eigenvalues not converged
     c_bands:  2 eigenvalues not converged
     c_bands:  1 eigenvalues not converged
     c_bands:  5 eigenvalues not converged
     c_bands:  5 eigenvalues not converged
     c_bands:  5 eigenvalues not converged
     c_bands:  4 eigenvalues not converged
     c_bands:  4 eigenvalues not converged
     c_bands:  2 eigenvalues not converged
     c_bands:  1 eigenvalues not converged
     c_bands:  4 eigenvalues not converged
     c_bands:  3 eigenvalues not converged
     c_bands:  1 eigenvalues not converged
     c_bands:  4 eigenvalues not converged
     c_bands:  2 eigenvalues not converged
     c_bands:  4 eigenvalues not converged
     c_bands:  5 eigenvalues not converged
     c_bands:  1 eigenvalues not converged
     c_bands:  2 eigenvalues not converged
     c_bands:  5 eigenvalues not converged
     c_bands:  5 eigenvalues not converged
     c_bands:  5 eigenvalues not converged
     c_bands:  5 eigenvalues not converged
     c_bands:  4 eigenvalues not converged
     c_bands:  1 eigenvalues not converged
     c_bands:  2 eigenvalues not converged
     c_bands:  1 eigenvalues not converged
     c_bands:  5 eigenvalues not converged
     c_bands:  1 eigenvalues not converged
     c_bands:  2 eigenvalues not converged
     c_bands:  3 eigenvalues not converged
     c_bands:  3 eigenvalues not converged
     c_bands:  2 eigenvalues not converged
     c_bands:  1 eigenvalues not converged
     c_bands:  1 eigenvalues not converged
     c_bands:  2 eigenvalues not converged
     c_bands:  2 eigenvalues not converged
     c_bands:  2 eigenvalues not converged
     c_bands:  1 eigenvalues not converged
     c_bands:  3 eigenvalues not converged
     c_bands:  2 eigenvalues not converged
     c_bands:  1 eigenvalues not converged
     c_bands:  2 eigenvalues not converged
     c_bands:  2 eigenvalues not converged
     c_bands:  2 eigenvalues not converged
     c_bands:  1 eigenvalues not converged
     c_bands:  2 eigenvalues not converged
     c_bands:  4 eigenvalues not converged
     c_bands:  1 eigenvalues not converged
     c_bands:  5 eigenvalues not converged
     c_bands:  3 eigenvalues not converged
     c_bands:  1 eigenvalues not converged
     c_bands:  3 eigenvalues not converged
     c_bands:  5 eigenvalues not converged
     c_bands:  5 eigenvalues not converged
     c_bands:  3 eigenvalues not converged
     ethr =  1.00E-05,  avg # of iterations = 20.3

     negative rho (up, down):  3.807E-03 2.389E-03

     total cpu time spent up to now is        9.8 secs

     total energy              =    -753.12837393 Ry
     estimated scf accuracy    <       0.26605991 Ry

     total magnetization       =     3.35 Bohr mag/cell
     absolute magnetization    =     3.64 Bohr mag/cell

     iteration #  2     ecut=   110.00 Ry     beta= 0.70
     Davidson diagonalization with overlap

---- Real-time Memory Report at c_bands before calling an iterative solver
            80 MiB given to the printing process from OS
             0 MiB allocation reported by mallinfo(arena+hblkhd)
        352158 MiB available memory on the node where the printing process lives
------------------
     ethr =  7.83E-04,  avg # of iterations =  4.2

     negative rho (up, down):  1.683E-03 1.044E-03

     total cpu time spent up to now is       11.6 secs

     total energy              =    -753.16128043 Ry
     estimated scf accuracy    <       0.72705919 Ry

     total magnetization       =     3.09 Bohr mag/cell
     absolute magnetization    =     3.32 Bohr mag/cell

     iteration #  3     ecut=   110.00 Ry     beta= 0.70
     Davidson diagonalization with overlap

---- Real-time Memory Report at c_bands before calling an iterative solver
            82 MiB given to the printing process from OS
             0 MiB allocation reported by mallinfo(arena+hblkhd)
        352146 MiB available memory on the node where the printing process lives
------------------
     ethr =  7.83E-04,  avg # of iterations =  3.9

     total cpu time spent up to now is       13.2 secs

     total energy              =    -753.42776115 Ry
     estimated scf accuracy    <       0.02593181 Ry

     total magnetization       =     3.29 Bohr mag/cell
     absolute magnetization    =     3.56 Bohr mag/cell

     iteration #  4     ecut=   110.00 Ry     beta= 0.70
     Davidson diagonalization with overlap

---- Real-time Memory Report at c_bands before calling an iterative solver
            84 MiB given to the printing process from OS
             0 MiB allocation reported by mallinfo(arena+hblkhd)
        352135 MiB available memory on the node where the printing process lives
------------------
     ethr =  7.63E-05,  avg # of iterations =  5.7

     total cpu time spent up to now is       15.6 secs

     total energy              =    -753.44301783 Ry
     estimated scf accuracy    <       0.09371446 Ry

     total magnetization       =     3.34 Bohr mag/cell
     absolute magnetization    =     3.65 Bohr mag/cell

     iteration #  5     ecut=   110.00 Ry     beta= 0.70
     Davidson diagonalization with overlap

---- Real-time Memory Report at c_bands before calling an iterative solver
            84 MiB given to the printing process from OS
             0 MiB allocation reported by mallinfo(arena+hblkhd)
        352126 MiB available memory on the node where the printing process lives
------------------
     ethr =  7.63E-05,  avg # of iterations =  4.0

     total cpu time spent up to now is       17.3 secs

     total energy              =    -753.45317705 Ry
     estimated scf accuracy    <       0.00246772 Ry

     total magnetization       =     3.30 Bohr mag/cell
     absolute magnetization    =     3.59 Bohr mag/cell

     iteration #  6     ecut=   110.00 Ry     beta= 0.70
     Davidson diagonalization with overlap

---- Real-time Memory Report at c_bands before calling an iterative solver
            84 MiB given to the printing process from OS
             0 MiB allocation reported by mallinfo(arena+hblkhd)
        352120 MiB available memory on the node where the printing process lives
------------------
     ethr =  7.26E-06,  avg # of iterations =  4.9

     total cpu time spent up to now is       19.4 secs

     total energy              =    -753.45465931 Ry
     estimated scf accuracy    <       0.00118701 Ry

     total magnetization       =     3.28 Bohr mag/cell
     absolute magnetization    =     3.59 Bohr mag/cell

     iteration #  7     ecut=   110.00 Ry     beta= 0.70
     Davidson diagonalization with overlap

---- Real-time Memory Report at c_bands before calling an iterative solver
            85 MiB given to the printing process from OS
             0 MiB allocation reported by mallinfo(arena+hblkhd)
        352113 MiB available memory on the node where the printing process lives
------------------
     ethr =  3.49E-06,  avg # of iterations =  2.2

     total cpu time spent up to now is       20.7 secs

     total energy              =    -753.45488491 Ry
     estimated scf accuracy    <       0.00003453 Ry

     total magnetization       =     3.30 Bohr mag/cell
     absolute magnetization    =     3.61 Bohr mag/cell

     iteration #  8     ecut=   110.00 Ry     beta= 0.70
     Davidson diagonalization with overlap

---- Real-time Memory Report at c_bands before calling an iterative solver
            85 MiB given to the printing process from OS
             0 MiB allocation reported by mallinfo(arena+hblkhd)
        352107 MiB available memory on the node where the printing process lives
------------------
     ethr =  1.02E-07,  avg # of iterations =  8.4

     total cpu time spent up to now is       23.5 secs

     total energy              =    -753.45494324 Ry
     estimated scf accuracy    <       0.00003164 Ry

     total magnetization       =     3.30 Bohr mag/cell
     absolute magnetization    =     3.61 Bohr mag/cell

     iteration #  9     ecut=   110.00 Ry     beta= 0.70
     Davidson diagonalization with overlap

---- Real-time Memory Report at c_bands before calling an iterative solver
            87 MiB given to the printing process from OS
             0 MiB allocation reported by mallinfo(arena+hblkhd)
        352102 MiB available memory on the node where the printing process lives
------------------
     ethr =  9.31E-08,  avg # of iterations =  3.1

     total cpu time spent up to now is       25.1 secs

     total energy              =    -753.45495218 Ry
     estimated scf accuracy    <       0.00001030 Ry

     total magnetization       =     3.31 Bohr mag/cell
     absolute magnetization    =     3.62 Bohr mag/cell

     iteration # 10     ecut=   110.00 Ry     beta= 0.70
     Davidson diagonalization with overlap

---- Real-time Memory Report at c_bands before calling an iterative solver
            87 MiB given to the printing process from OS
             0 MiB allocation reported by mallinfo(arena+hblkhd)
        352096 MiB available memory on the node where the printing process lives
------------------
     ethr =  3.03E-08,  avg # of iterations =  4.1

     total cpu time spent up to now is       26.9 secs

     total energy              =    -753.45495688 Ry
     estimated scf accuracy    <       0.00000671 Ry

     total magnetization       =     3.31 Bohr mag/cell
     absolute magnetization    =     3.62 Bohr mag/cell

     iteration # 11     ecut=   110.00 Ry     beta= 0.70
     Davidson diagonalization with overlap

---- Real-time Memory Report at c_bands before calling an iterative solver
            88 MiB given to the printing process from OS
             0 MiB allocation reported by mallinfo(arena+hblkhd)
        352093 MiB available memory on the node where the printing process lives
------------------
     ethr =  1.97E-08,  avg # of iterations =  1.7

     total cpu time spent up to now is       28.1 secs

     total energy              =    -753.45495729 Ry
     estimated scf accuracy    <       0.00000128 Ry

     total magnetization       =     3.31 Bohr mag/cell
     absolute magnetization    =     3.62 Bohr mag/cell

     iteration # 12     ecut=   110.00 Ry     beta= 0.70
     Davidson diagonalization with overlap

---- Real-time Memory Report at c_bands before calling an iterative solver
            89 MiB given to the printing process from OS
             0 MiB allocation reported by mallinfo(arena+hblkhd)
        352087 MiB available memory on the node where the printing process lives
------------------
     ethr =  3.77E-09,  avg # of iterations =  5.3
 
     Magnetic moment per site  (integrated on atomic sphere of radius R)
     atom   1 (R=0.412)  charge= 15.5966  magn=  1.7265
     atom   2 (R=0.412)  charge= 15.5966  magn=  1.7265

     total cpu time spent up to now is       30.0 secs

     End of self-consistent calculation

 ------ SPIN UP ------------


          k = 0.0000 0.0000 0.0000 (  2803 PWs)   bands (ev):

   -77.1731 -77.1158 -40.5805 -40.2708 -40.2708 -40.2467 -40.2238 -40.2238
     9.8903  13.6996  16.2467  16.3294  16.3294  16.6392  16.6392  17.0190
    17.0190  18.1119  18.1119  18.6122  25.2320

     occupation numbers 
     1.0000   1.0000   1.0000   1.0000   1.0000   1.0000   1.0000   1.0000
     1.0000   1.0000   1.0000   1.0000   1.0000   1.0000   1.0000   1.0000
     1.0000   1.0000   1.0000   1.0000   0.0000

          k = 0.0000 0.0000 0.1021 (  2821 PWs)   bands (ev):

   -77.1693 -77.1196 -40.5585 -40.2693 -40.2677 -40.2677 -40.2269 -40.2269
    10.1665  13.6258  16.1767  16.2690  16.2690  16.5678  16.5678  17.1768
    17.1768  17.6765  18.0939  18.0939  26.7344

     occupation numbers 
     1.0000   1.0000   1.0000   1.0000   1.0000   1.0000   1.0000   1.0000
     1.0000   1.0000   1.0000   1.0000   1.0000   1.0000   1.0000   1.0000
     1.0000   1.0000   1.0000   1.0000   0.0000

          k = 0.0000 0.0000 0.2042 (  2828 PWs)   bands (ev):

   -77.1588 -77.1302 -40.4980 -40.3310 -40.2591 -40.2591 -40.2356 -40.2356
    10.9583  13.1776  16.0152  16.2173  16.2173  16.3824  16.4098  16.4098
    17.4927  17.4927  18.0036  18.0036  29.9253

     occupation numbers 
     1.0000   1.0000   1.0000   1.0000   1.0000   1.0000   1.0000   1.0000
     1.0000   1.0000   1.0000   1.0000   1.0000   1.0000   1.0000   1.0000
     1.0000   1.0000   1.0000   1.0000   0.0000

          k = 0.0000 0.0000-0.3063 (  2834 PWs)   bands (ev):

   -77.1445 -77.1445 -40.4148 -40.4148 -40.2474 -40.2474 -40.2474 -40.2474
    12.1117  12.1117  15.9385  15.9385  16.2686  16.2686  16.2686  16.2686
    17.7971  17.7971  17.7971  17.7971  33.7412

     occupation numbers 
     1.0000   1.0000   1.0000   1.0000   1.0000   1.0000   1.0000   1.0000
     1.0000   1.0000   1.0000   1.0000   1.0000   1.0000   1.0000   1.0000
     1.0000   1.0000   1.0000   1.0000   0.0000

          k = 0.0000 0.0962 0.0000 (  2809 PWs)   bands (ev):

   -77.1697 -77.1141 -40.5732 -40.2877 -40.2763 -40.2495 -40.2412 -40.2267
    10.1359  13.8498  16.0698  16.4464  16.4704  16.5874  16.7433  16.8464
    16.9467  17.2658  18.1416  19.7939  25.2711

     occupation numbers 
     1.0000   1.0000   1.0000   1.0000   1.0000   1.0000   1.0000   1.0000
     1.0000   1.0000   1.0000   1.0000   1.0000   1.0000   1.0000   1.0000
     1.0000   1.0000   1.0000   0.0000   0.0000

          k = 0.0000 0.0962 0.1021 (  2815 PWs)   bands (ev):

   -77.1660 -77.1179 -40.5523 -40.2842 -40.2760 -40.2730 -40.2397 -40.2300
    10.4078  13.7906  16.0691  16.3010  16.3702  16.4024  16.6661  16.9355
    17.1304  17.1974  18.1163  19.0471  26.8435

     occupation numbers 
     1.0000   1.0000   1.0000   1.0000   1.0000   1.0000   1.0000   1.0000
     1.0000   1.0000   1.0000   1.0000   1.0000   1.0000   1.0000   1.0000
     1.0000   1.0000   1.0000   0.0000   0.0000

          k = 0.0000 0.0962 0.2042 (  2823 PWs)   bands (ev):

   -77.1559 -77.1281 -40.4951 -40.3366 -40.2740 -40.2639 -40.2476 -40.2391
    11.1869  13.3701  15.9511  16.0000  16.1348  16.3111  16.5066  16.5492
    17.4659  17.5094  18.0093  18.3018  30.0806

     occupation numbers 
     1.0000   1.0000   1.0000   1.0000   1.0000   1.0000   1.0000   1.0000
     1.0000   1.0000   1.0000   1.0000   1.0000   1.0000   1.0000   1.0000
     1.0000   1.0000   1.0000   1.0000   0.0000

          k = 0.0000 0.0962-0.3063 (  2824 PWs)   bands (ev):

   -77.1420 -77.1420 -40.4163 -40.4163 -40.2606 -40.2606 -40.2515 -40.2515
    12.3219  12.3219  15.8010  15.8010  16.2714  16.2714  16.3635  16.3635
    17.7853  17.7853  17.8882  17.8882  33.9124

     occupation numbers 
     1.0000   1.0000   1.0000   1.0000   1.0000   1.0000   1.0000   1.0000
     1.0000   1.0000   1.0000   1.0000   1.0000   1.0000   1.0000   1.0000
     1.0000   1.0000   1.0000   1.0000   0.0000

          k = 0.0000 0.1925 0.0000 (  2813 PWs)   bands (ev):

   -77.1603 -77.1097 -40.5522 -40.3338 -40.2907 -40.2883 -40.2583 -40.2348
    10.8457  14.2217  15.8015  16.0666  16.3984  16.7683  16.7769  16.7782
    16.9347  17.0354  18.2042  21.4048  25.4099

     occupation numbers 
     1.0000   1.0000   1.0000   1.0000   1.0000   1.0000   1.0000   1.0000
     1.0000   1.0000   1.0000   1.0000   1.0000   1.0000   1.0000   1.0000
     1.0000   1.0000   1.0000   0.0000   0.0000

          k = 0.0000 0.1925 0.1021 (  2806 PWs)   bands (ev):

   -77.1569 -77.1131 -40.5353 -40.3288 -40.3081 -40.2870 -40.2607 -40.2385
    11.1014  14.2071  15.7916  15.8433  16.2765  16.5920  16.6637  16.9215
    17.1048  17.1841  18.1628  20.2866  27.1991

     occupation numbers 
     1.0000   1.0000   1.0000   1.0000   1.0000   1.0000   1.0000   1.0000
     1.0000   1.0000   1.0000   1.0000   1.0000   1.0000   1.0000   1.0000
     1.0000   1.0000   1.0000   0.0000   0.0000

          k = 0.0000 0.1925 0.2042 (  2811 PWs)   bands (ev):

   -77.1477 -77.1224 -40.4890 -40.3599 -40.3122 -40.2768 -40.2727 -40.2488
    11.8307  13.8680  15.4525  15.9036  15.9898  16.4875  16.5410  16.7744
    17.4367  17.5919  18.0213  18.9479  30.5454

     occupation numbers 
     1.0000   1.0000   1.0000   1.0000   1.0000   1.0000   1.0000   1.0000
     1.0000   1.0000   1.0000   1.0000   1.0000   1.0000   1.0000   1.0000
     1.0000   1.0000   1.0000   0.1173   0.0000

          k = 0.0000 0.1925-0.3063 (  2828 PWs)   bands (ev):

   -77.1350 -77.1350 -40.4250 -40.4250 -40.2921 -40.2921 -40.2628 -40.2628
    12.8871  12.8871  15.5740  15.5740  16.2050  16.2050  16.6166  16.6166
    17.7681  17.7681  18.1342  18.1342  34.3834

     occupation numbers 
     1.0000   1.0000   1.0000   1.0000   1.0000   1.0000   1.0000   1.0000
     1.0000   1.0000   1.0000   1.0000   1.0000   1.0000   1.0000   1.0000
     1.0000   1.0000   1.0000   1.0000   0.0000

          k = 0.0000 0.2887 0.0000 (  2808 PWs)   bands (ev):

   -77.1469 -77.1042 -40.5208 -40.3973 -40.3515 -40.3100 -40.2730 -40.2464
    11.9183  14.5199  15.3311  15.6384  16.2915  16.5539  16.7258  17.2200
    17.2565  17.4552  18.2622  23.2128  25.6816

     occupation numbers 
     1.0000   1.0000   1.0000   1.0000   1.0000   1.0000   1.0000   1.0000
     1.0000   1.0000   1.0000   1.0000   1.0000   1.0000   1.0000   1.0000
     1.0000   1.0000   1.0000   0.0000   0.0000

          k = 0.0000 0.2887 0.1021 (  2807 PWs)   bands (ev):

   -77.1440 -77.1071 -40.5130 -40.3878 -40.3657 -40.3057 -40.2764 -40.2506
    12.1303  14.5589  15.1880  15.6917  16.1406  16.5931  16.7233  17.2984
    17.3495  17.4122  18.2068  21.5747  27.8403

     occupation numbers 
     1.0000   1.0000   1.0000   1.0000   1.0000   1.0000   1.0000   1.0000
     1.0000   1.0000   1.0000   1.0000   1.0000   1.0000   1.0000   1.0000
     1.0000   1.0000   1.0000   0.0000   0.0000

          k = 0.0000 0.2887 0.2042 (  2812 PWs)   bands (ev):

   -77.1362 -77.1149 -40.4893 -40.4085 -40.3539 -40.2941 -40.2914 -40.2623
    12.7209  14.3082  15.1180  15.7146  16.0178  16.5621  16.7163  17.1511
    17.5617  17.7492  18.0472  19.7234  31.2014

     occupation numbers 
     1.0000   1.0000   1.0000   1.0000   1.0000   1.0000   1.0000   1.0000
     1.0000   1.0000   1.0000   1.0000   1.0000   1.0000   1.0000   1.0000
     1.0000   1.0000   1.0000   0.0000   0.0000

          k = 0.0000 0.2887-0.3063 (  2826 PWs)   bands (ev):

   -77.1256 -77.1256 -40.4519 -40.4519 -40.3198 -40.3198 -40.2782 -40.2782
    13.5400  13.5400  15.4168  15.4168  16.2658  16.2658  16.9171  16.9171
    17.8125  17.8125  18.4800  18.4800  33.4955

     occupation numbers 
     1.0000   1.0000   1.0000   1.0000   1.0000   1.0000   1.0000   1.0000
     1.0000   1.0000   1.0000   1.0000   1.0000   1.0000   1.0000   1.0000
     1.0000   1.0000   1.0000   1.0000   0.0000

          k = 0.0000 0.3849 0.0000 (  2818 PWs)   bands (ev):

   -77.1325 -77.0996 -40.4840 -40.4613 -40.4137 -40.3287 -40.2930 -40.2584
    13.0860  14.4495  14.8027  15.7503  16.3607  16.4155  16.5342  17.7689
    17.9099  17.9292  18.3008  25.1807  25.7702

     occupation numbers 
     1.0000   1.0000   1.0000   1.0000   1.0000   1.0000   1.0000   1.0000
     1.0000   1.0000   1.0000   1.0000   1.0000   1.0000   1.0000   1.0000
     1.0000   1.0000   1.0000   0.0000   0.0000

          k = 0.0000 0.3849 0.1021 (  2816 PWs)   bands (ev):

   -77.1303 -77.1018 -40.5037 -40.4377 -40.4172 -40.3240 -40.2934 -40.2631
    13.1822  14.4751  14.8415  15.5977  16.3448  16.4536  16.8862  17.7836
    17.8188  17.8654  18.2509  22.8224  28.0013

     occupation numbers 
     1.0000   1.0000   1.0000   1.0000   1.0000   1.0000   1.0000   1.0000
     1.0000   1.0000   1.0000   1.0000   1.0000   1.0000   1.0000   1.0000
     1.0000   1.0000   1.0000   0.0000   0.0000

          k = 0.0000 0.3849 0.2042 (  2809 PWs)   bands (ev):

   -77.1243 -77.1078 -40.5106 -40.4652 -40.3732 -40.3112 -40.3031 -40.2760
    13.4548  14.2878  14.9894  15.4993  16.4586  16.7154  17.2017  17.4959
    17.8901  17.9817  18.1401  20.6142  29.1686

     occupation numbers 
     1.0000   1.0000   1.0000   1.0000   1.0000   1.0000   1.0000   1.0000
     1.0000   1.0000   1.0000   1.0000   1.0000   1.0000   1.0000   1.0000
     1.0000   1.0000   1.0000   0.0000   0.0000

          k = 0.0000 0.3849-0.3063 (  2816 PWs)   bands (ev):

   -77.1161 -77.1161 -40.4956 -40.4956 -40.3304 -40.3304 -40.2936 -40.2936
    13.8578  13.8578  15.2807  15.2807  16.8796  16.8796  17.0937  17.0937
    18.0109  18.0109  18.9631  18.9631  30.2819

     occupation numbers 
     1.0000   1.0000   1.0000   1.0000   1.0000   1.0000   1.0000   1.0000
     1.0000   1.0000   1.0000   1.0000   1.0000   1.0000   1.0000   1.0000
     1.0000   1.0000   0.0028   0.0028   0.0000

          k = 0.0000 0.4811 0.0000 (  2826 PWs)   bands (ev):

   -77.1208 -77.0974 -40.5085 -40.4585 -40.4501 -40.3423 -40.3146 -40.2673
    13.8500  14.2571  14.4878  16.1129  16.2287  16.3981  16.6272  18.1533
    18.2857  18.3208  19.0690  24.0098  27.2113

     occupation numbers 
     1.0000   1.0000   1.0000   1.0000   1.0000   1.0000   1.0000   1.0000
     1.0000   1.0000   1.0000   1.0000   1.0000   1.0000   1.0000   1.0000
     1.0000   1.0000   0.0000   0.0000   0.0000

          k = 0.0000 0.4811 0.1021 (  2818 PWs)   bands (ev):

   -77.1193 -77.0990 -40.5267 -40.4757 -40.4181 -40.3373 -40.3111 -40.2723
    13.7369  14.2475  14.8069  15.4869  16.3419  16.6332  17.2486  18.0711
    18.1826  18.3455  18.9055  23.1893  26.6075

     occupation numbers 
     1.0000   1.0000   1.0000   1.0000   1.0000   1.0000   1.0000   1.0000
     1.0000   1.0000   1.0000   1.0000   1.0000   1.0000   1.0000   1.0000
     1.0000   1.0000   0.9994   0.0000   0.0000

          k = 0.0000 0.4811 0.2042 (  2813 PWs)   bands (ev):

   -77.1150 -77.1033 -40.5410 -40.5077 -40.3702 -40.3236 -40.3124 -40.2861
    13.7004  14.1736  14.9742  15.2951  16.6628  16.8954  17.6518  18.2158
    18.2345  18.3181  18.5684  21.4542  26.7755

     occupation numbers 
     1.0000   1.0000   1.0000   1.0000   1.0000   1.0000   1.0000   1.0000
     1.0000   1.0000   1.0000   1.0000   1.0000   1.0000   1.0000   1.0000
     1.0000   1.0000   1.0000   0.0000   0.0000

          k = 0.0000 0.4811-0.3063 (  2826 PWs)   bands (ev):

   -77.1091 -77.1091 -40.5338 -40.5338 -40.3318 -40.3318 -40.3049 -40.3049
    13.8830  13.8830  15.1536  15.1536  17.1337  17.1337  17.6171  17.6171
    18.2680  18.2680  19.7967  19.7967  27.5511

     occupation numbers 
     1.0000   1.0000   1.0000   1.0000   1.0000   1.0000   1.0000   1.0000
     1.0000   1.0000   1.0000   1.0000   1.0000   1.0000   1.0000   1.0000
     1.0000   1.0000   0.0000   0.0000   0.0000

          k = 0.0000-0.5774 0.0000 (  2818 PWs)   bands (ev):

   -77.1160 -77.0972 -40.5258 -40.4748 -40.4343 -40.3472 -40.3259 -40.2706
    14.1016  14.1206  14.3835  16.1821  16.3489  16.3673  16.7032  18.2924
    18.3267  18.4377  20.2400  22.2878  28.5287

     occupation numbers 
     1.0000   1.0000   1.0000   1.0000   1.0000   1.0000   1.0000   1.0000
     1.0000   1.0000   1.0000   1.0000   1.0000   1.0000   1.0000   1.0000
     1.0000   1.0000   0.0000   0.0000   0.0000

          k = 0.0000-0.5774 0.1021 (  2818 PWs)   bands (ev):

   -77.1147 -77.0984 -40.5402 -40.4911 -40.4091 -40.3421 -40.3202 -40.2758
    13.8353  14.1503  14.8400  15.4584  16.3010  16.7205  17.4554  18.1247
    18.3298  18.4301  20.0218  22.1009  27.6951

     occupation numbers 
     1.0000   1.0000   1.0000   1.0000   1.0000   1.0000   1.0000   1.0000
     1.0000   1.0000   1.0000   1.0000   1.0000   1.0000   1.0000   1.0000
     1.0000   1.0000   0.0000   0.0000   0.0000

          k = 0.0000-0.5774 0.2042 (  2800 PWs)   bands (ev):

   -77.1113 -77.1019 -40.5543 -40.5233 -40.3657 -40.3281 -40.3169 -40.2898
    13.7190  14.1285  15.0016  15.2004  16.6388  17.0396  17.6831  18.3510
    18.3550  18.4091  19.6714  21.4778  26.6608

     occupation numbers 
     1.0000   1.0000   1.0000   1.0000   1.0000   1.0000   1.0000   1.0000
     1.0000   1.0000   1.0000   1.0000   1.0000   1.0000   1.0000   1.0000
     1.0000   1.0000   0.0000   0.0000   0.0000

          k = 0.0000-0.5774-0.3063 (  2824 PWs)   bands (ev):

   -77.1066 -77.1066 -40.5485 -40.5485 -40.3316 -40.3316 -40.3090 -40.3090
    13.8657  13.8657  15.1042  15.1042  17.1356  17.1356  17.8619  17.8619
    18.3802  18.3802  20.4524  20.4524  26.2877

     occupation numbers 
     1.0000   1.0000   1.0000   1.0000   1.0000   1.0000   1.0000   1.0000
     1.0000   1.0000   1.0000   1.0000   1.0000   1.0000   1.0000   1.0000
     1.0000   1.0000   0.0000   0.0000   0.0000

          k = 0.0833 0.1443 0.0000 (  2807 PWs)   bands (ev):

   -77.1633 -77.1111 -40.5590 -40.3163 -40.2938 -40.2665 -40.2554 -40.2343
    10.6145  14.1169  15.8588  16.3180  16.4771  16.6218  16.6852  16.7321
    16.9714  17.0650  18.1769  20.9547  25.3621

     occupation numbers 
     1.0000   1.0000   1.0000   1.0000   1.0000   1.0000   1.0000   1.0000
     1.0000   1.0000   1.0000   1.0000   1.0000   1.0000   1.0000   1.0000
     1.0000   1.0000   1.0000   0.0000   0.0000

          k = 0.0833 0.1443 0.1021 (  2816 PWs)   bands (ev):

   -77.1598 -77.1146 -40.5407 -40.3116 -40.3003 -40.2818 -40.2535 -40.2379
    10.8763  14.0878  15.8874  15.9819  16.3231  16.5407  16.6427  16.8352
    17.1200  17.1830  18.1434  19.9503  27.0779

     occupation numbers 
     1.0000   1.0000   1.0000   1.0000   1.0000   1.0000   1.0000   1.0000
     1.0000   1.0000   1.0000   1.0000   1.0000   1.0000   1.0000   1.0000
     1.0000   1.0000   1.0000   0.0000   0.0000

          k = 0.0833 0.1443 0.2042 (  2808 PWs)   bands (ev):

   -77.1503 -77.1242 -40.4905 -40.3509 -40.2988 -40.2780 -40.2609 -40.2475
    11.6250  13.7220  15.5772  15.9502  16.0026  16.4605  16.5136  16.6920
    17.4666  17.5392  18.0202  18.7608  30.3935

     occupation numbers 
     1.0000   1.0000   1.0000   1.0000   1.0000   1.0000   1.0000   1.0000
     1.0000   1.0000   1.0000   1.0000   1.0000   1.0000   1.0000   1.0000
     1.0000   1.0000   1.0000   1.0000   0.0000

          k = 0.0833 0.1443-0.3063 (  2826 PWs)   bands (ev):

   -77.1372 -77.1372 -40.4213 -40.4213 -40.2826 -40.2826 -40.2598 -40.2598
    12.7133  12.7133  15.6324  15.6324  16.2071  16.2071  16.5499  16.5499
    17.7736  17.7736  18.0576  18.0576  34.2428

     occupation numbers 
     1.0000   1.0000   1.0000   1.0000   1.0000   1.0000   1.0000   1.0000
     1.0000   1.0000   1.0000   1.0000   1.0000   1.0000   1.0000   1.0000
     1.0000   1.0000   1.0000   1.0000   0.0000

          k = 0.0833 0.2406 0.0000 (  2805 PWs)   bands (ev):

   -77.1519 -77.1062 -40.5327 -40.3672 -40.3378 -40.2952 -40.2672 -40.2475
    11.5145  14.4989  15.5860  15.5998  16.3425  16.4981  16.8862  16.9141
    17.1209  17.4000  18.2194  22.5614  25.5888

     occupation numbers 
     1.0000   1.0000   1.0000   1.0000   1.0000   1.0000   1.0000   1.0000
     1.0000   1.0000   1.0000   1.0000   1.0000   1.0000   1.0000   1.0000
     1.0000   1.0000   1.0000   0.0000   0.0000

          k = 0.0833 0.2406 0.1021 (  2808 PWs)   bands (ev):

   -77.1488 -77.1092 -40.5206 -40.3605 -40.3475 -40.2999 -40.2681 -40.2512
    11.7485  14.5291  15.3883  15.6373  16.2253  16.4990  16.7301  17.0363
    17.3121  17.3777  18.1808  21.1321  27.5982

     occupation numbers 
     1.0000   1.0000   1.0000   1.0000   1.0000   1.0000   1.0000   1.0000
     1.0000   1.0000   1.0000   1.0000   1.0000   1.0000   1.0000   1.0000
     1.0000   1.0000   1.0000   0.0000   0.0000

          k = 0.0833 0.2406 0.2042 (  2805 PWs)   bands (ev):

   -77.1405 -77.1176 -40.4866 -40.3878 -40.3368 -40.2995 -40.2762 -40.2615
    12.4096  14.2489  15.2025  15.7469  15.9501  16.3819  16.6914  17.0195
    17.5569  17.6652  18.0583  19.4549  31.0060

     occupation numbers 
     1.0000   1.0000   1.0000   1.0000   1.0000   1.0000   1.0000   1.0000
     1.0000   1.0000   1.0000   1.0000   1.0000   1.0000   1.0000   1.0000
     1.0000   1.0000   1.0000   0.0000   0.0000

          k = 0.0833 0.2406-0.3063 (  2820 PWs)   bands (ev):

   -77.1290 -77.1290 -40.4385 -40.4385 -40.3117 -40.3117 -40.2742 -40.2742
    13.3523  13.3523  15.4767  15.4767  16.0971  16.0971  16.8379  16.8379
    17.8185  17.8185  18.3565  18.3565  34.6736

     occupation numbers 
     1.0000   1.0000   1.0000   1.0000   1.0000   1.0000   1.0000   1.0000
     1.0000   1.0000   1.0000   1.0000   1.0000   1.0000   1.0000   1.0000
     1.0000   1.0000   1.0000   1.0000   0.0000

          k = 0.0833 0.3368 0.0000 (  2810 PWs)   bands (ev):

   -77.1379 -77.1011 -40.4984 -40.4294 -40.3919 -40.3219 -40.2848 -40.2617
    12.6727  14.6227  15.0210  15.5191  16.3037  16.3437  16.7068  17.3094
    17.6379  17.9808  18.2544  24.4110  25.9393

     occupation numbers 
     1.0000   1.0000   1.0000   1.0000   1.0000   1.0000   1.0000   1.0000
     1.0000   1.0000   1.0000   1.0000   1.0000   1.0000   1.0000   1.0000
     1.0000   1.0000   1.0000   0.0000   0.0000

          k = 0.0833 0.3368 0.1021 (  2815 PWs)   bands (ev):

   -77.1355 -77.1036 -40.5014 -40.4171 -40.3975 -40.3219 -40.2851 -40.2652
    12.8346  14.6832  14.9307  15.5667  16.1354  16.5348  16.6762  17.3414
    17.7251  17.8387  18.2668  22.4038  28.3477

     occupation numbers 
     1.0000   1.0000   1.0000   1.0000   1.0000   1.0000   1.0000   1.0000
     1.0000   1.0000   1.0000   1.0000   1.0000   1.0000   1.0000   1.0000
     1.0000   1.0000   1.0000   0.0000   0.0000

          k = 0.0833 0.3368 0.2042 (  2812 PWs)   bands (ev):

   -77.1287 -77.1103 -40.4961 -40.4405 -40.3665 -40.3173 -40.2926 -40.2753
    13.2733  14.4295  15.0490  15.6307  16.0517  16.5406  16.7551  17.3510
    17.7855  17.9528  18.2358  20.3147  30.8011

     occupation numbers 
     1.0000   1.0000   1.0000   1.0000   1.0000   1.0000   1.0000   1.0000
     1.0000   1.0000   1.0000   1.0000   1.0000   1.0000   1.0000   1.0000
     1.0000   1.0000   1.0000   0.0000   0.0000

          k = 0.0833 0.3368-0.3063 (  2820 PWs)   bands (ev):

   -77.1196 -77.1196 -40.4739 -40.4739 -40.3305 -40.3305 -40.2898 -40.2898
    13.8613  13.8613  15.3906  15.3906  16.2785  16.2785  17.0321  17.0321
    18.0279  18.0279  18.8187  18.8187  32.0047

     occupation numbers 
     1.0000   1.0000   1.0000   1.0000   1.0000   1.0000   1.0000   1.0000
     1.0000   1.0000   1.0000   1.0000   1.0000   1.0000   1.0000   1.0000
     1.0000   1.0000   1.0000   1.0000   0.0000

          k = 0.0833 0.4330 0.0000 (  2829 PWs)   bands (ev):

   -77.1247 -77.0979 -40.4844 -40.4621 -40.4390 -40.3432 -40.3066 -40.2739
    13.6886  14.4424  14.6310  15.7525  16.1822  16.4963  16.5409  17.8442
    18.0782  18.2752  18.7924  25.3274  26.4189

     occupation numbers 
     1.0000   1.0000   1.0000   1.0000   1.0000   1.0000   1.0000   1.0000
     1.0000   1.0000   1.0000   1.0000   1.0000   1.0000   1.0000   1.0000
     1.0000   1.0000   1.0000   0.0000   0.0000

          k = 0.0833 0.4330 0.1021 (  2815 PWs)   bands (ev):

   -77.1229 -77.0997 -40.5092 -40.4585 -40.4198 -40.3401 -40.3044 -40.2772
    13.6772  14.4590  14.7902  15.4999  16.2583  16.5814  16.8438  17.7938
    18.0934  18.1382  18.7911  23.4944  27.1595

     occupation numbers 
     1.0000   1.0000   1.0000   1.0000   1.0000   1.0000   1.0000   1.0000
     1.0000   1.0000   1.0000   1.0000   1.0000   1.0000   1.0000   1.0000
     1.0000   1.0000   1.0000   0.0000   0.0000

          k = 0.0833 0.4330 0.2042 (  2823 PWs)   bands (ev):

   -77.1180 -77.1046 -40.5229 -40.4880 -40.3740 -40.3298 -40.3084 -40.2859
    13.7537  14.3261  14.9806  15.4545  16.3649  16.8019  17.2427  17.5390
    17.9687  18.2922  18.8516  21.3427  27.8912

     occupation numbers 
     1.0000   1.0000   1.0000   1.0000   1.0000   1.0000   1.0000   1.0000
     1.0000   1.0000   1.0000   1.0000   1.0000   1.0000   1.0000   1.0000
     1.0000   1.0000   1.0000   0.0000   0.0000

          k = 0.0833 0.4330-0.3063 (  2822 PWs)   bands (ev):

   -77.1113 -77.1113 -40.5142 -40.5142 -40.3390 -40.3390 -40.3013 -40.3013
    13.9950  13.9950  15.2665  15.2665  16.8074  16.8074  17.2064  17.2064
    18.2406  18.2406  19.6737  19.6737  28.9270

     occupation numbers 
     1.0000   1.0000   1.0000   1.0000   1.0000   1.0000   1.0000   1.0000
     1.0000   1.0000   1.0000   1.0000   1.0000   1.0000   1.0000   1.0000
     1.0000   1.0000   0.0000   0.0000   0.0000

          k = 0.0833 0.5292 0.0000 (  2813 PWs)   bands (ev):

   -77.1160 -77.0972 -40.5164 -40.4661 -40.4345 -40.3551 -40.3257 -40.2810
    14.1376  14.2774  14.4365  16.1238  16.1426  16.3493  16.7010  18.2323
    18.2840  18.3105  20.0799  23.0615  28.3358

     occupation numbers 
     1.0000   1.0000   1.0000   1.0000   1.0000   1.0000   1.0000   1.0000
     1.0000   1.0000   1.0000   1.0000   1.0000   1.0000   1.0000   1.0000
     1.0000   1.0000   0.0000   0.0000   0.0000

          k = 0.0833 0.5292 0.1021 (  2823 PWs)   bands (ev):

   -77.1147 -77.0984 -40.5310 -40.4830 -40.4104 -40.3488 -40.3212 -40.2843
    13.9185  14.2846  14.8761  15.4418  16.1899  16.7679  17.1170  18.0677
    18.2510  18.3402  20.0079  22.7838  27.1176

     occupation numbers 
     1.0000   1.0000   1.0000   1.0000   1.0000   1.0000   1.0000   1.0000
     1.0000   1.0000   1.0000   1.0000   1.0000   1.0000   1.0000   1.0000
     1.0000   1.0000   0.0000   0.0000   0.0000

          k = 0.0833 0.5292 0.2042 (  2825 PWs)   bands (ev):

   -77.1113 -77.1019 -40.5453 -40.5151 -40.3724 -40.3318 -40.3219 -40.2920
    13.8249  14.2579  15.0103  15.3113  16.3626  17.1074  17.5188  17.7902
    18.2102  18.4063  20.0374  21.9008  26.4269

     occupation numbers 
     1.0000   1.0000   1.0000   1.0000   1.0000   1.0000   1.0000   1.0000
     1.0000   1.0000   1.0000   1.0000   1.0000   1.0000   1.0000   1.0000
     1.0000   1.0000   0.0000   0.0000   0.0000

          k = 0.0833 0.5292-0.3063 (  2820 PWs)   bands (ev):

   -77.1066 -77.1066 -40.5398 -40.5398 -40.3430 -40.3430 -40.3064 -40.3064
    13.9812  13.9812  15.1790  15.1790  16.9136  16.9136  17.6449  17.6449
    18.2821  18.2821  20.7682  20.7682  26.7066

     occupation numbers 
     1.0000   1.0000   1.0000   1.0000   1.0000   1.0000   1.0000   1.0000
     1.0000   1.0000   1.0000   1.0000   1.0000   1.0000   1.0000   1.0000
     1.0000   1.0000   0.0000   0.0000   0.0000

          k = 0.1667 0.2887 0.0000 (  2804 PWs)   bands (ev):

   -77.1399 -77.1017 -40.5034 -40.4044 -40.3952 -40.3142 -40.2820 -40.2701
    12.5270  14.8097  15.1368  15.2862  16.2265  16.3486  16.8102  17.0563
    17.6241  18.0052  18.2130  24.1514  25.9784

     occupation numbers 
     1.0000   1.0000   1.0000   1.0000   1.0000   1.0000   1.0000   1.0000
     1.0000   1.0000   1.0000   1.0000   1.0000   1.0000   1.0000   1.0000
     1.0000   1.0000   1.0000   0.0000   0.0000

          k = 0.1667 0.2887 0.1021 (  2809 PWs)   bands (ev):

   -77.1373 -77.1043 -40.5016 -40.4032 -40.3898 -40.3227 -40.2780 -40.2741
    12.7112  14.9044  14.9919  15.3401  16.1841  16.3585  16.6955  17.1550
    17.7406  17.8283  18.2800  22.2661  28.3335

     occupation numbers 
     1.0000   1.0000   1.0000   1.0000   1.0000   1.0000   1.0000   1.0000
     1.0000   1.0000   1.0000   1.0000   1.0000   1.0000   1.0000   1.0000
     1.0000   1.0000   1.0000   0.0000   0.0000

          k = 0.1667 0.2887 0.2042 (  2814 PWs)   bands (ev):

   -77.1303 -77.1113 -40.4899 -40.4297 -40.3578 -40.3271 -40.2838 -40.2815
    13.2160  14.5516  15.1629  15.4945  15.9926  16.2224  16.6991  17.2869
    17.7898  17.9403  18.3128  20.2391  31.7033

     occupation numbers 
     1.0000   1.0000   1.0000   1.0000   1.0000   1.0000   1.0000   1.0000
     1.0000   1.0000   1.0000   1.0000   1.0000   1.0000   1.0000   1.0000
     1.0000   1.0000   1.0000   0.0000   0.0000

          k = 0.1667 0.2887-0.3063 (  2810 PWs)   bands (ev):

   -77.1208 -77.1208 -40.4639 -40.4639 -40.3313 -40.3313 -40.2898 -40.2898
    13.8982  13.8982  15.4852  15.4852  15.9396  15.9396  16.9794  16.9794
    18.0780  18.0780  18.8001  18.8001  33.7294

     occupation numbers 
     1.0000   1.0000   1.0000   1.0000   1.0000   1.0000   1.0000   1.0000
     1.0000   1.0000   1.0000   1.0000   1.0000   1.0000   1.0000   1.0000
     1.0000   1.0000   1.0000   1.0000   0.0000

          k = 0.1667 0.3849 0.0000 (  2816 PWs)   bands (ev):

   -77.1269 -77.0983 -40.4685 -40.4532 -40.4312 -40.3434 -40.3024 -40.2920
    13.6353  14.7771  14.7908  15.2640  16.0624  16.4921  16.6071  17.3799
    18.0740  18.2036  18.8287  26.0228  26.3881

     occupation numbers 
     1.0000   1.0000   1.0000   1.0000   1.0000   1.0000   1.0000   1.0000
     1.0000   1.0000   1.0000   1.0000   1.0000   1.0000   1.0000   1.0000
     1.0000   1.0000   1.0000   0.0000   0.0000

          k = 0.1667 0.3849 0.1021 (  2815 PWs)   bands (ev):

   -77.1250 -77.1002 -40.4918 -40.4495 -40.4084 -40.3503 -40.3007 -40.2901
    13.7097  14.7095  14.8887  15.3455  16.1071  16.4855  16.5619  17.4209
    17.9923  18.1620  18.9112  23.5702  28.5940

     occupation numbers 
     1.0000   1.0000   1.0000   1.0000   1.0000   1.0000   1.0000   1.0000
     1.0000   1.0000   1.0000   1.0000   1.0000   1.0000   1.0000   1.0000
     1.0000   1.0000   0.9956   0.0000   0.0000

          k = 0.1667 0.3849 0.2042 (  2821 PWs)   bands (ev):

   -77.1198 -77.1054 -40.5038 -40.4712 -40.3705 -40.3498 -40.3070 -40.2886
    13.9151  14.5057  15.1351  15.5730  16.0196  16.3246  16.7059  17.4047
    17.8983  18.3117  19.0891  21.3649  29.6079

     occupation numbers 
     1.0000   1.0000   1.0000   1.0000   1.0000   1.0000   1.0000   1.0000
     1.0000   1.0000   1.0000   1.0000   1.0000   1.0000   1.0000   1.0000
     1.0000   1.0000   0.0000   0.0000   0.0000

          k = 0.1667 0.3849-0.3063 (  2814 PWs)   bands (ev):

   -77.1126 -77.1126 -40.4948 -40.4948 -40.3502 -40.3502 -40.3003 -40.3003
    14.2058  14.2058  15.4752  15.4752  16.1054  16.1054  16.9878  16.9878
    18.2920  18.2920  19.7736  19.7736  30.7510

     occupation numbers 
     1.0000   1.0000   1.0000   1.0000   1.0000   1.0000   1.0000   1.0000
     1.0000   1.0000   1.0000   1.0000   1.0000   1.0000   1.0000   1.0000
     1.0000   1.0000   0.0000   0.0000   0.0000

          k = 0.1667 0.4811 0.0000 (  2830 PWs)   bands (ev):

   -77.1160 -77.0971 -40.4920 -40.4497 -40.4349 -40.3705 -40.3253 -40.3070
    14.3320  14.5563  14.5840  15.5819  16.0207  16.3823  16.6980  17.8110
    18.1962  18.2912  20.0217  24.7356  28.0503

     occupation numbers 
     1.0000   1.0000   1.0000   1.0000   1.0000   1.0000   1.0000   1.0000
     1.0000   1.0000   1.0000   1.0000   1.0000   1.0000   1.0000   1.0000
     1.0000   1.0000   0.0000   0.0000   0.0000

          k = 0.1667 0.4811 0.1021 (  2822 PWs)   bands (ev):

   -77.1148 -77.0984 -40.5071 -40.4693 -40.4097 -40.3666 -40.3243 -40.3023
    14.1647  14.6406  14.8325  15.3885  16.0702  16.5230  16.7810  17.7979
    18.0029  18.3522  20.1014  24.1425  26.9424

     occupation numbers 
     1.0000   1.0000   1.0000   1.0000   1.0000   1.0000   1.0000   1.0000
     1.0000   1.0000   1.0000   1.0000   1.0000   1.0000   1.0000   1.0000
     1.0000   1.0000   0.0000   0.0000   0.0000

          k = 0.1667 0.4811 0.2042 (  2825 PWs)   bands (ev):

   -77.1113 -77.1018 -40.5228 -40.4976 -40.3866 -40.3530 -40.3237 -40.2954
    14.1188  14.5577  15.0297  15.5712  15.9638  16.6555  17.0150  17.4889
    17.9909  18.4269  20.4051  22.5997  27.0520

     occupation numbers 
     1.0000   1.0000   1.0000   1.0000   1.0000   1.0000   1.0000   1.0000
     1.0000   1.0000   1.0000   1.0000   1.0000   1.0000   1.0000   1.0000
     1.0000   1.0000   0.0000   0.0000   0.0000

          k = 0.1667 0.4811-0.3063 (  2816 PWs)   bands (ev):

   -77.1066 -77.1066 -40.5194 -40.5194 -40.3662 -40.3662 -40.3039 -40.3039
    14.2736  14.2736  15.3693  15.3693  16.3754  16.3754  17.1761  17.1761
    18.2959  18.2959  21.2009  21.2009  27.9265

     occupation numbers 
     1.0000   1.0000   1.0000   1.0000   1.0000   1.0000   1.0000   1.0000
     1.0000   1.0000   1.0000   1.0000   1.0000   1.0000   1.0000   1.0000
     1.0000   1.0000   0.0000   0.0000   0.0000

          k = 0.1667 0.5774 0.0000 (  2822 PWs)   bands (ev):

   -77.1113 -77.0975 -40.5060 -40.4555 -40.4179 -40.3817 -40.3384 -40.3123
    14.4820  14.4826  14.5051  15.8078  16.0483  16.2576  16.7864  18.1050
    18.1932  18.2599  21.2911  22.8946  29.3853

     occupation numbers 
     1.0000   1.0000   1.0000   1.0000   1.0000   1.0000   1.0000   1.0000
     1.0000   1.0000   1.0000   1.0000   1.0000   1.0000   1.0000   1.0000
     1.0000   1.0000   0.0000   0.0000   0.0000

          k = 0.1667 0.5774 0.1021 (  2824 PWs)   bands (ev):

   -77.1103 -77.0984 -40.5178 -40.4734 -40.4111 -40.3633 -40.3387 -40.3075
    14.1852  14.5551  14.9998  15.3685  15.9909  16.6464  16.8750  17.9754
    18.1018  18.3099  21.3831  22.8370  28.2198

     occupation numbers 
     1.0000   1.0000   1.0000   1.0000   1.0000   1.0000   1.0000   1.0000
     1.0000   1.0000   1.0000   1.0000   1.0000   1.0000   1.0000   1.0000
     1.0000   1.0000   0.0000   0.0000   0.0000

          k = 0.1667 0.5774 0.2042 (  2825 PWs)   bands (ev):

   -77.1078 -77.1009 -40.5319 -40.5058 -40.3944 -40.3514 -40.3292 -40.2987
    14.1144  14.5693  15.0683  15.5248  15.8803  16.8571  17.1430  17.5594
    18.1188  18.3488  21.6752  22.6151  26.9651

     occupation numbers 
     1.0000   1.0000   1.0000   1.0000   1.0000   1.0000   1.0000   1.0000
     1.0000   1.0000   1.0000   1.0000   1.0000   1.0000   1.0000   1.0000
     1.0000   1.0000   0.0000   0.0000   0.0000

          k = 0.1667 0.5774-0.3063 (  2810 PWs)   bands (ev):

   -77.1044 -77.1044 -40.5286 -40.5286 -40.3725 -40.3725 -40.3044 -40.3044
    14.2763  14.2763  15.3281  15.3281  16.4147  16.4147  17.3856  17.3856
    18.2323  18.2323  22.1656  22.1656  26.4911

     occupation numbers 
     1.0000   1.0000   1.0000   1.0000   1.0000   1.0000   1.0000   1.0000
     1.0000   1.0000   1.0000   1.0000   1.0000   1.0000   1.0000   1.0000
     1.0000   1.0000   0.0000   0.0000   0.0000

          k = 0.2500 0.4330 0.0000 (  2832 PWs)   bands (ev):

   -77.1161 -77.0971 -40.4707 -40.4496 -40.4351 -40.3728 -40.3264 -40.3251
    14.4734  14.6258  14.9984  15.0330  15.9445  16.4061  16.7070  17.5647
    18.1508  18.2939  20.0359  26.4809  27.3090

     occupation numbers 
     1.0000   1.0000   1.0000   1.0000   1.0000   1.0000   1.0000   1.0000
     1.0000   1.0000   1.0000   1.0000   1.0000   1.0000   1.0000   1.0000
     1.0000   1.0000   0.0000   0.0000   0.0000

          k = 0.2500 0.4330 0.1021 (  2831 PWs)   bands (ev):

   -77.1148 -77.0984 -40.4832 -40.4752 -40.3960 -40.3863 -40.3290 -40.3099
    14.4731  14.5772  15.0438  15.1777  16.0962  16.2567  16.7071  17.6070
    17.9466  18.3590  20.1578  24.9014  27.5886

     occupation numbers 
     1.0000   1.0000   1.0000   1.0000   1.0000   1.0000   1.0000   1.0000
     1.0000   1.0000   1.0000   1.0000   1.0000   1.0000   1.0000   1.0000
     1.0000   1.0000   0.0000   0.0000   0.0000

          k = 0.2500 0.4330 0.2042 (  2822 PWs)   bands (ev):

   -77.1113 -77.1018 -40.5057 -40.4911 -40.3913 -40.3709 -40.3237 -40.2967
    14.4627  14.5210  15.2103  15.5606  15.9265  16.2059  16.7512  17.3961
    17.9575  18.4349  20.5273  22.8776  28.3624

     occupation numbers 
     1.0000   1.0000   1.0000   1.0000   1.0000   1.0000   1.0000   1.0000
     1.0000   1.0000   1.0000   1.0000   1.0000   1.0000   1.0000   1.0000
     1.0000   1.0000   0.0000   0.0000   0.0000

          k = 0.2500 0.4330-0.3063 (  2810 PWs)   bands (ev):

   -77.1066 -77.1066 -40.5067 -40.5067 -40.3798 -40.3798 -40.3031 -40.3031
    14.4787  14.4787  15.5309  15.5309  15.9905  15.9905  16.9669  16.9669
    18.3159  18.3159  21.3632  21.3632  29.3783

     occupation numbers 
     1.0000   1.0000   1.0000   1.0000   1.0000   1.0000   1.0000   1.0000
     1.0000   1.0000   1.0000   1.0000   1.0000   1.0000   1.0000   1.0000
     1.0000   1.0000   0.0000   0.0000   0.0000

          k = 0.2500 0.5292 0.0000 (  2834 PWs)   bands (ev):

   -77.1080 -77.0982 -40.4838 -40.4407 -40.4054 -40.4039 -40.3488 -40.3485
    14.5574  14.7638  14.8555  15.3603  15.9619  16.1952  16.8781  17.8541
    18.1199  18.2236  21.7100  24.3035  26.6511

     occupation numbers 
     1.0000   1.0000   1.0000   1.0000   1.0000   1.0000   1.0000   1.0000
     1.0000   1.0000   1.0000   1.0000   1.0000   1.0000   1.0000   1.0000
     1.0000   1.0000   0.0000   0.0000   0.0000

          k = 0.2500 0.5292 0.1021 (  2833 PWs)   bands (ev):

   -77.1073 -77.0989 -40.4906 -40.4638 -40.4231 -40.3742 -40.3534 -40.3257
    14.5016  14.8855  14.9784  15.2522  15.9872  16.2006  16.8902  17.8598
    17.9241  18.2694  21.8943  24.3115  26.6720

     occupation numbers 
     1.0000   1.0000   1.0000   1.0000   1.0000   1.0000   1.0000   1.0000
     1.0000   1.0000   1.0000   1.0000   1.0000   1.0000   1.0000   1.0000
     1.0000   1.0000   0.0000   0.0000   0.0000

          k = 0.2500 0.5292 0.2042 (  2820 PWs)   bands (ev):

   -77.1055 -77.1007 -40.5066 -40.4919 -40.4217 -40.3816 -40.3243 -40.3043
    14.5162  14.8741  15.1353  15.4420  15.8441  16.2236  16.9460  17.4190
    18.0330  18.3138  22.3835  23.9881  26.5874

     occupation numbers 
     1.0000   1.0000   1.0000   1.0000   1.0000   1.0000   1.0000   1.0000
     1.0000   1.0000   1.0000   1.0000   1.0000   1.0000   1.0000   1.0000
     1.0000   1.0000   0.0000   0.0000   0.0000

          k = 0.2500 0.5292-0.3063 (  2814 PWs)   bands (ev):

   -77.1031 -77.1031 -40.5092 -40.5092 -40.4030 -40.4030 -40.3030 -40.3030
    14.6531  14.6531  15.4277  15.4277  15.9958  15.9958  17.0798  17.0798
    18.2247  18.2247  23.1429  23.1429  27.1319

     occupation numbers 
     1.0000   1.0000   1.0000   1.0000   1.0000   1.0000   1.0000   1.0000
     1.0000   1.0000   1.0000   1.0000   1.0000   1.0000   1.0000   1.0000
     1.0000   1.0000   0.0000   0.0000   0.0000

          k = 0.3333 0.5774 0.0000 (  2838 PWs)   bands (ev):

   -77.1018 -77.1018 -40.4730 -40.4252 -40.4252 -40.3759 -40.3759 -40.3748
    14.5708  14.9637  14.9637  15.2343  16.0277  16.0277  16.9791  18.0059
    18.0059  18.0895  23.4584  24.3106  24.3106

     occupation numbers 
     1.0000   1.0000   1.0000   1.0000   1.0000   1.0000   1.0000   1.0000
     1.0000   1.0000   1.0000   1.0000   1.0000   1.0000   1.0000   1.0000
     1.0000   1.0000   0.0000   0.0000   0.0000

          k = 0.3333 0.5774 0.1021 (  2841 PWs)   bands (ev):

   -77.1018 -77.1018 -40.4665 -40.4539 -40.4539 -40.3815 -40.3471 -40.3471
    14.6654  14.9820  14.9820  15.2521  16.0034  16.0034  16.9530  17.8585
    18.0505  18.0505  23.8545  24.3789  24.3789

     occupation numbers 
     1.0000   1.0000   1.0000   1.0000   1.0000   1.0000   1.0000   1.0000
     1.0000   1.0000   1.0000   1.0000   1.0000   1.0000   1.0000   1.0000
     1.0000   1.0000   0.0000   0.0000   0.0000

          k = 0.3333 0.5774 0.2042 (  2826 PWs)   bands (ev):

   -77.1018 -77.1018 -40.4860 -40.4860 -40.4485 -40.3995 -40.3147 -40.3147
    14.9069  15.0164  15.0164  15.2632  15.9614  15.9614  16.9208  17.3837
    18.1361  18.1361  24.5478  24.5478  24.8715

     occupation numbers 
     1.0000   1.0000   1.0000   1.0000   1.0000   1.0000   1.0000   1.0000
     1.0000   1.0000   1.0000   1.0000   1.0000   1.0000   1.0000   1.0000
     1.0000   1.0000   0.0000   0.0000   0.0000

          k = 0.3333 0.5774-0.3063 (  2796 PWs)   bands (ev):

   -77.1018 -77.1018 -40.4981 -40.4981 -40.4240 -40.4240 -40.3024 -40.3024
    15.0324  15.0324  15.1575  15.1575  15.9438  15.9438  17.0228  17.0228
    18.1772  18.1772  24.6561  24.6561  26.2735

     occupation numbers 
     1.0000   1.0000   1.0000   1.0000   1.0000   1.0000   1.0000   1.0000
     1.0000   1.0000   1.0000   1.0000   1.0000   1.0000   1.0000   1.0000
     1.0000   1.0000   0.0000   0.0000   0.0000

 ------ SPIN DOWN ----------


          k = 0.0000 0.0000 0.0000 (  2803 PWs)   bands (ev):

[...]
    20.2449  20.2735  21.4473  23.9933  28.8513

     occupation numbers 
     1.0000   1.0000   1.0000   1.0000   1.0000   1.0000   1.0000   1.0000
     1.0000   1.0000   1.0000   1.0000   1.0000   1.0000   1.0000   0.0000
     0.0000   0.0000   0.0000   0.0000   0.0000

          k = 0.0833 0.5292 0.1021 (  2823 PWs)   bands (ev):

   -74.9968 -74.9793 -38.4950 -38.4430 -38.3531 -38.2968 -38.2555 -38.2264
    14.8714  15.4806  16.0360  16.5937  17.8474  18.3383  18.3787  20.0096
    20.1753  20.2823  21.3080  23.6415  27.8495

     occupation numbers 
     1.0000   1.0000   1.0000   1.0000   1.0000   1.0000   1.0000   1.0000
     1.0000   1.0000   1.0000   1.0000   1.0000   1.0000   1.0000   0.0000
     0.0000   0.0000   0.0000   0.0000   0.0000

          k = 0.0833 0.5292 0.2042 (  2825 PWs)   bands (ev):

   -74.9931 -74.9830 -38.5093 -38.4768 -38.3148 -38.2755 -38.2613 -38.2319
    14.8416  15.3209  16.3398  16.6517  17.8921  18.6684  18.8659  19.5458
    20.1275  20.3630  21.0904  22.6852  27.3384

     occupation numbers 
     1.0000   1.0000   1.0000   1.0000   1.0000   1.0000   1.0000   1.0000
     1.0000   1.0000   1.0000   1.0000   1.0000   1.0000   1.0000   0.0000
     0.0000   0.0000   0.0000   0.0000   0.0000

          k = 0.0833 0.5292-0.3063 (  2820 PWs)   bands (ev):

   -74.9880 -74.9880 -38.5032 -38.5032 -38.2848 -38.2848 -38.2468 -38.2468
    15.0176  15.0176  16.5976  16.5976  18.4030  18.4030  19.1915  19.1915
    20.2130  20.2130  21.6222  21.6222  27.5995

     occupation numbers 
     1.0000   1.0000   1.0000   1.0000   1.0000   1.0000   1.0000   1.0000
     1.0000   1.0000   1.0000   1.0000   1.0000   1.0000   0.0000   0.0000
     0.0000   0.0000   0.0000   0.0000   0.0000

          k = 0.1667 0.2887 0.0000 (  2804 PWs)   bands (ev):

   -75.0239 -74.9828 -38.4525 -38.3582 -38.3489 -38.2599 -38.2121 -38.2111
    12.6039  16.0077  16.3038  16.6990  17.9008  17.9361  18.4885  18.8309
    19.4440  19.8065  20.1915  24.9474  26.7507

     occupation numbers 
     1.0000   1.0000   1.0000   1.0000   1.0000   1.0000   1.0000   1.0000
     1.0000   1.0000   1.0000   1.0000   1.0000   1.0000   1.0000   1.0000
     0.0000   0.0000   0.0000   0.0000   0.0000

          k = 0.1667 0.2887 0.1021 (  2809 PWs)   bands (ev):

   -75.0211 -74.9856 -38.4524 -38.3567 -38.3405 -38.2669 -38.2164 -38.2099
    12.8150  15.9163  16.2268  16.7661  17.7992  17.9610  18.3832  18.9359
    19.5719  19.6761  20.2040  23.2982  28.9430

     occupation numbers 
     1.0000   1.0000   1.0000   1.0000   1.0000   1.0000   1.0000   1.0000
     1.0000   1.0000   1.0000   1.0000   1.0000   1.0000   1.0000   0.5252
     0.0000   0.0000   0.0000   0.0000   0.0000

          k = 0.1667 0.2887 0.2042 (  2814 PWs)   bands (ev):

   -75.0136 -74.9931 -38.4427 -38.3828 -38.3029 -38.2705 -38.2268 -38.2175
    13.4134  15.2227  16.4885  16.9373  17.5233  17.7963  18.4399  19.0439
    19.6602  19.7988  20.1606  21.5772  32.1960

     occupation numbers 
     1.0000   1.0000   1.0000   1.0000   1.0000   1.0000   1.0000   1.0000
     1.0000   1.0000   1.0000   1.0000   1.0000   1.0000   1.0000   0.0000
     0.0000   0.0000   0.0000   0.0000   0.0000

          k = 0.1667 0.2887-0.3063 (  2810 PWs)   bands (ev):

   -75.0034 -75.0034 -38.4171 -38.4171 -38.2732 -38.2732 -38.2314 -38.2314
    14.2857  14.2857  16.8700  16.8700  17.4802  17.4802  18.7486  18.7486
    19.9884  19.9884  20.3896  20.3896  34.1586

     occupation numbers 
     1.0000   1.0000   1.0000   1.0000   1.0000   1.0000   1.0000   1.0000
     1.0000   1.0000   1.0000   1.0000   1.0000   1.0000   1.0000   1.0000
     0.0000   0.0000   0.0000   0.0000   0.0000

          k = 0.1667 0.3849 0.0000 (  2816 PWs)   bands (ev):

   -75.0099 -74.9791 -38.4143 -38.4119 -38.3877 -38.2916 -38.2359 -38.2331
    13.8687  16.0063  16.0787  16.5135  17.6908  18.0712  18.2429  19.1872
    19.9585  20.1807  20.5515  26.7300  27.0177

     occupation numbers 
     1.0000   1.0000   1.0000   1.0000   1.0000   1.0000   1.0000   1.0000
     1.0000   1.0000   1.0000   1.0000   1.0000   1.0000   1.0000   0.0000
     0.0000   0.0000   0.0000   0.0000   0.0000

          k = 0.1667 0.3849 0.1021 (  2815 PWs)   bands (ev):

   -75.0079 -74.9812 -38.4464 -38.4066 -38.3567 -38.2973 -38.2424 -38.2251
    14.0136  15.8685  16.1817  16.6171  17.6574  18.0458  18.1986  19.2353
    19.9173  20.0612  20.6537  24.4042  29.2159

     occupation numbers 
     1.0000   1.0000   1.0000   1.0000   1.0000   1.0000   1.0000   1.0000
     1.0000   1.0000   1.0000   1.0000   1.0000   1.0000   1.0000   0.0000
     0.0000   0.0000   0.0000   0.0000   0.0000

          k = 0.1667 0.3849 0.2042 (  2821 PWs)   bands (ev):

   -75.0022 -74.9868 -38.4610 -38.4288 -38.3149 -38.2949 -38.2506 -38.2243
    14.4107  15.4898  16.4646  16.8325  17.5108  17.7687  18.3926  19.2188
    19.7678  20.2455  20.7358  22.4104  30.2161

     occupation numbers 
     1.0000   1.0000   1.0000   1.0000   1.0000   1.0000   1.0000   1.0000
     1.0000   1.0000   1.0000   1.0000   1.0000   1.0000   1.0000   0.0000
     0.0000   0.0000   0.0000   0.0000   0.0000

          k = 0.1667 0.3849-0.3063 (  2814 PWs)   bands (ev):

   -74.9945 -74.9945 -38.4527 -38.4527 -38.2947 -38.2947 -38.2398 -38.2398
    14.9536  14.9536  16.8099  16.8099  17.4901  17.4901  18.7644  18.7644
    20.2347  20.2347  21.0845  21.0845  31.3173

     occupation numbers 
     1.0000   1.0000   1.0000   1.0000   1.0000   1.0000   1.0000   1.0000
     1.0000   1.0000   1.0000   1.0000   1.0000   1.0000   1.0000   1.0000
     0.0000   0.0000   0.0000   0.0000   0.0000

          k = 0.1667 0.4811 0.0000 (  2830 PWs)   bands (ev):

   -74.9982 -74.9779 -38.4542 -38.4078 -38.3775 -38.3211 -38.2581 -38.2520
    14.9740  15.8340  15.8496  16.5754  17.6295  17.9663  18.3106  19.6624
    20.1718  20.2170  21.4829  25.4884  28.6492

     occupation numbers 
     1.0000   1.0000   1.0000   1.0000   1.0000   1.0000   1.0000   1.0000
     1.0000   1.0000   1.0000   1.0000   1.0000   1.0000   1.0000   0.0000
     0.0000   0.0000   0.0000   0.0000   0.0000

          k = 0.1667 0.4811 0.1021 (  2822 PWs)   bands (ev):

   -74.9969 -74.9792 -38.4682 -38.4274 -38.3550 -38.3142 -38.2654 -38.2404
    14.9820  15.7911  16.0196  16.6034  17.6419  17.9430  18.3883  19.6571
    19.9363  20.2916  21.5317  24.8421  27.7125

     occupation numbers 
     1.0000   1.0000   1.0000   1.0000   1.0000   1.0000   1.0000   1.0000
     1.0000   1.0000   1.0000   1.0000   1.0000   1.0000   1.0000   0.0000
     0.0000   0.0000   0.0000   0.0000   0.0000

          k = 0.1667 0.4811 0.2042 (  2825 PWs)   bands (ev):

   -74.9931 -74.9829 -38.4840 -38.4574 -38.3342 -38.2972 -38.2660 -38.2316
    15.0735  15.5898  16.3532  16.8684  17.4678  17.9253  18.6189  19.3372
    19.8793  20.3876  21.6796  23.3820  27.8638

     occupation numbers 
     1.0000   1.0000   1.0000   1.0000   1.0000   1.0000   1.0000   1.0000
     1.0000   1.0000   1.0000   1.0000   1.0000   1.0000   1.0000   0.0000
     0.0000   0.0000   0.0000   0.0000   0.0000

          k = 0.1667 0.4811-0.3063 (  2816 PWs)   bands (ev):

   -74.9880 -74.9880 -38.4804 -38.4804 -38.3131 -38.3131 -38.2416 -38.2416
    15.2947  15.2947  16.7625  16.7625  17.6591  17.6591  18.9016  18.9016
    20.2255  20.2255  22.2050  22.2050  28.6695

     occupation numbers 
     1.0000   1.0000   1.0000   1.0000   1.0000   1.0000   1.0000   1.0000
     1.0000   1.0000   1.0000   1.0000   1.0000   1.0000   0.9999   0.9999
     0.0000   0.0000   0.0000   0.0000   0.0000

          k = 0.1667 0.5774 0.0000 (  2822 PWs)   bands (ev):

   -74.9931 -74.9783 -38.4695 -38.4140 -38.3590 -38.3332 -38.2724 -38.2578
    15.4341  15.7086  15.7786  16.6476  17.6851  17.7863  18.4176  19.9979
    20.1683  20.1881  22.4012  23.9180  29.8117

     occupation numbers 
     1.0000   1.0000   1.0000   1.0000   1.0000   1.0000   1.0000   1.0000
     1.0000   1.0000   1.0000   1.0000   1.0000   1.0000   1.0000   0.0000
     0.0000   0.0000   0.0000   0.0000   0.0000

          k = 0.1667 0.5774 0.1021 (  2824 PWs)   bands (ev):

   -74.9921 -74.9793 -38.4807 -38.4323 -38.3576 -38.3088 -38.2791 -38.2473
    15.2667  15.7537  16.1685  16.4546  17.5993  17.9779  18.5045  19.9090
    19.9968  20.2482  22.4266  23.8134  28.8306

     occupation numbers 
     1.0000   1.0000   1.0000   1.0000   1.0000   1.0000   1.0000   1.0000
     1.0000   1.0000   1.0000   1.0000   1.0000   1.0000   1.0000   0.0000
     0.0000   0.0000   0.0000   0.0000   0.0000

          k = 0.1667 0.5774 0.2042 (  2825 PWs)   bands (ev):

   -74.9894 -74.9820 -38.4945 -38.4663 -38.3432 -38.2967 -38.2694 -38.2353
    15.2178  15.6518  16.4218  16.7805  17.3782  18.1038  18.7697  19.4076
    20.0248  20.2951  22.5481  23.4708  27.7624

     occupation numbers 
     1.0000   1.0000   1.0000   1.0000   1.0000   1.0000   1.0000   1.0000
     1.0000   1.0000   1.0000   1.0000   1.0000   1.0000   1.0000   0.0000
     0.0000   0.0000   0.0000   0.0000   0.0000

          k = 0.1667 0.5774-0.3063 (  2810 PWs)   bands (ev):

   -74.9857 -74.9857 -38.4907 -38.4907 -38.3203 -38.3203 -38.2416 -38.2416
    15.3745  15.3745  16.7510  16.7510  17.7146  17.7146  19.0692  19.0692
    20.1593  20.1593  22.9453  22.9453  27.3941

     occupation numbers 
     1.0000   1.0000   1.0000   1.0000   1.0000   1.0000   1.0000   1.0000
     1.0000   1.0000   1.0000   1.0000   1.0000   1.0000   0.0000   0.0000
     0.0000   0.0000   0.0000   0.0000   0.0000

          k = 0.2500 0.4330 0.0000 (  2832 PWs)   bands (ev):

   -74.9983 -74.9778 -38.4310 -38.4076 -38.3778 -38.3237 -38.2732 -38.2579
    14.9897  15.9126  16.2020  16.2397  17.5308  17.9961  18.3164  19.4034
    20.1199  20.2173  21.5272  27.0502  27.9281

     occupation numbers 
     1.0000   1.0000   1.0000   1.0000   1.0000   1.0000   1.0000   1.0000
     1.0000   1.0000   1.0000   1.0000   1.0000   1.0000   1.0000   0.0000
     0.0000   0.0000   0.0000   0.0000   0.0000

          k = 0.2500 0.4330 0.1021 (  2831 PWs)   bands (ev):

   -74.9969 -74.9792 -38.4394 -38.4352 -38.3403 -38.3363 -38.2757 -38.2441
    15.0647  15.8301  16.2700  16.4253  17.5740  17.8130  18.3269  19.4508
    19.8751  20.2990  21.6286  25.5646  28.2134

     occupation numbers 
     1.0000   1.0000   1.0000   1.0000   1.0000   1.0000   1.0000   1.0000
     1.0000   1.0000   1.0000   1.0000   1.0000   1.0000   1.0000   0.0000
     0.0000   0.0000   0.0000   0.0000   0.0000

          k = 0.2500 0.4330 0.2042 (  2822 PWs)   bands (ev):

   -74.9931 -74.9829 -38.4641 -38.4506 -38.3416 -38.3170 -38.2657 -38.2317
    15.2565  15.6882  16.4918  16.7843  17.4206  17.5460  18.4200  19.2342
    19.8362  20.3970  21.8623  23.7000  28.9873

     occupation numbers 
     1.0000   1.0000   1.0000   1.0000   1.0000   1.0000   1.0000   1.0000
     1.0000   1.0000   1.0000   1.0000   1.0000   1.0000   1.0000   0.0000
     0.0000   0.0000   0.0000   0.0000   0.0000

          k = 0.2500 0.4330-0.3063 (  2810 PWs)   bands (ev):

   -74.9880 -74.9880 -38.4660 -38.4660 -38.3291 -38.3291 -38.2401 -38.2401
    15.4892  15.4892  16.8352  16.8352  17.3164  17.3164  18.7268  18.7268
    20.2498  20.2498  22.4245  22.4245  29.9907

     occupation numbers 
     1.0000   1.0000   1.0000   1.0000   1.0000   1.0000   1.0000   1.0000
     1.0000   1.0000   1.0000   1.0000   1.0000   1.0000   1.0000   1.0000
     0.0000   0.0000   0.0000   0.0000   0.0000

          k = 0.2500 0.5292 0.0000 (  2834 PWs)   bands (ev):

   -74.9896 -74.9790 -38.4451 -38.3979 -38.3578 -38.3452 -38.2973 -38.2836
    15.7046  15.8865  16.0430  16.3310  17.5309  17.7405  18.5199  19.7247
    20.0842  20.1433  22.8327  25.1134  27.2352

     occupation numbers 
     1.0000   1.0000   1.0000   1.0000   1.0000   1.0000   1.0000   1.0000
     1.0000   1.0000   1.0000   1.0000   1.0000   1.0000   1.0000   0.0000
     0.0000   0.0000   0.0000   0.0000   0.0000

          k = 0.2500 0.5292 0.1021 (  2833 PWs)   bands (ev):

   -74.9889 -74.9797 -38.4510 -38.4207 -38.3756 -38.3187 -38.2985 -38.2622
    15.6499  16.0182  16.1263  16.3925  17.5056  17.6411  18.5351  19.7475
    19.8371  20.2002  22.9923  25.0794  27.2866

     occupation numbers 
     1.0000   1.0000   1.0000   1.0000   1.0000   1.0000   1.0000   1.0000
     1.0000   1.0000   1.0000   1.0000   1.0000   1.0000   1.0000   0.0000
     0.0000   0.0000   0.0000   0.0000   0.0000

          k = 0.2500 0.5292 0.2042 (  2820 PWs)   bands (ev):

   -74.9869 -74.9817 -38.4662 -38.4505 -38.3752 -38.3317 -38.2626 -38.2399
    15.6775  15.9725  16.4060  16.7372  17.2465  17.5050  18.6131  19.2647
    19.9320  20.2541  23.3709  24.6935  27.3466

     occupation numbers 
     1.0000   1.0000   1.0000   1.0000   1.0000   1.0000   1.0000   1.0000
     1.0000   1.0000   1.0000   1.0000   1.0000   1.0000   1.0000   0.0000
     0.0000   0.0000   0.0000   0.0000   0.0000

          k = 0.2500 0.5292-0.3063 (  2814 PWs)   bands (ev):

   -74.9843 -74.9843 -38.4687 -38.4687 -38.3553 -38.3553 -38.2389 -38.2389
    15.8089  15.8089  16.8014  16.8014  17.2199  17.2199  18.8267  18.8267
    20.1489  20.1489  23.9585  23.9585  27.8918

     occupation numbers 
     1.0000   1.0000   1.0000   1.0000   1.0000   1.0000   1.0000   1.0000
     1.0000   1.0000   1.0000   1.0000   1.0000   1.0000   1.0000   1.0000
     0.0000   0.0000   0.0000   0.0000   0.0000

          k = 0.3333 0.5774 0.0000 (  2838 PWs)   bands (ev):

   -74.9829 -74.9829 -38.4332 -38.3811 -38.3811 -38.3258 -38.3132 -38.3132
    15.9259  16.0550  16.0550  16.2447  17.5663  17.5663  18.6306  19.8998
    19.8998  20.0494  24.2943  25.1154  25.1154

     occupation numbers 
     1.0000   1.0000   1.0000   1.0000   1.0000   1.0000   1.0000   1.0000
     1.0000   1.0000   1.0000   1.0000   1.0000   1.0000   1.0000   0.0000
     0.0000   0.0000   0.0000   0.0000   0.0000

          k = 0.3333 0.5774 0.1021 (  2841 PWs)   bands (ev):

   -74.9829 -74.9829 -38.4260 -38.4089 -38.4089 -38.3330 -38.2851 -38.2851
    16.0004  16.1256  16.1256  16.2756  17.4804  17.4804  18.6113  19.7769
    19.9527  19.9527  24.7061  25.1592  25.1592

     occupation numbers 
     1.0000   1.0000   1.0000   1.0000   1.0000   1.0000   1.0000   1.0000
     1.0000   1.0000   1.0000   1.0000   1.0000   1.0000   1.0000   0.0000
     0.0000   0.0000   0.0000   0.0000   0.0000

          k = 0.3333 0.5774 0.2042 (  2826 PWs)   bands (ev):

   -74.9829 -74.9829 -38.4427 -38.4427 -38.4065 -38.3528 -38.2510 -38.2510
    16.1746  16.2934  16.2934  16.3316  17.2903  17.2903  18.6137  19.2308
    20.0506  20.0506  25.2675  25.2675  25.7112

     occupation numbers 
     1.0000   1.0000   1.0000   1.0000   1.0000   1.0000   1.0000   1.0000
     1.0000   1.0000   1.0000   1.0000   1.0000   1.0000   1.0000   0.0000
     0.0000   0.0000   0.0000   0.0000   0.0000

          k = 0.3333 0.5774-0.3063 (  2796 PWs)   bands (ev):

   -74.9829 -74.9829 -38.4557 -38.4557 -38.3796 -38.3796 -38.2378 -38.2378
    16.3168  16.3168  16.4018  16.4018  17.1743  17.1743  18.7906  18.7906
    20.0961  20.0961  25.3359  25.3359  27.0400

     occupation numbers 
     1.0000   1.0000   1.0000   1.0000   1.0000   1.0000   1.0000   1.0000
     1.0000   1.0000   1.0000   1.0000   1.0000   1.0000   1.0000   1.0000
     0.0000   0.0000   0.0000   0.0000   0.0000

     the Fermi energy is    18.9365 ev

!    total energy              =    -753.45495764 Ry
     total all-electron energy =     -5573.811649 Ry
     estimated scf accuracy    <       0.00000019 Ry
     smearing contrib. (-TS)   =      -0.00002730 Ry
     internal energy E=F+TS    =    -753.45493035 Ry

     The total energy is F=E-TS. E is the sum of the following terms:
     one-electron contribution =    -280.26467804 Ry
     hartree contribution      =     164.09184964 Ry
     xc contribution           =     -61.41750907 Ry
     ewald contribution        =    -400.68874942 Ry
     one-center paw contrib.   =    -175.17584345 Ry
      -> PAW hartree energy AE =     222.07740972 Ry
      -> PAW hartree energy PS =    -221.02176608 Ry
      -> PAW xc energy AE      =    -117.67494454 Ry
      -> PAW xc energy PS      =      29.03137918 Ry
      -> total E_H with PAW    =     165.14749328 Ry
      -> total E_XC with PAW   =    -150.06107444 Ry

     total magnetization       =     3.31 Bohr mag/cell
     absolute magnetization    =     3.62 Bohr mag/cell

     convergence has been achieved in  12 iterations

     Writing all to output data dir ./out/Co.save/
 
     init_run     :      0.39s CPU      0.50s WALL (       1 calls)
     electrons    :     28.18s CPU     29.42s WALL (       1 calls)

     Called by init_run:
     wfcinit      :      0.26s CPU      0.35s WALL (       1 calls)
     potinit      :      0.09s CPU      0.10s WALL (       1 calls)
     hinit0       :      0.03s CPU      0.03s WALL (       1 calls)

     Called by electrons:
     c_bands      :     24.88s CPU     25.84s WALL (      12 calls)
     sum_band     :      2.21s CPU      2.32s WALL (      12 calls)
     v_of_rho     :      0.04s CPU      0.04s WALL (      13 calls)
     v_h          :      0.00s CPU      0.00s WALL (      13 calls)
     v_xc         :      0.03s CPU      0.04s WALL (      13 calls)
     newd         :      0.05s CPU      0.06s WALL (      13 calls)
     PAW_pot      :      1.07s CPU      1.23s WALL (      13 calls)
     mix_rho      :      0.01s CPU      0.01s WALL (      12 calls)

     Called by c_bands:
     init_us_2    :      0.13s CPU      0.13s WALL (    3648 calls)
     init_us_2:cp :      0.13s CPU      0.12s WALL (    3648 calls)
     cegterg      :     24.14s CPU     25.08s WALL (    1848 calls)

     Called by sum_band:
     sum_band:wei :      0.02s CPU      0.02s WALL (      12 calls)
     sum_band:loo :      2.10s CPU      2.20s WALL (      12 calls)
     sum_band:buf :      0.01s CPU      0.01s WALL (    1824 calls)
     sum_band:ini :      0.08s CPU      0.06s WALL (    1824 calls)
     sum_band:cal :      0.18s CPU      0.17s WALL (    1824 calls)
     sum_band:bec :      0.00s CPU      0.01s WALL (    1824 calls)
     addusdens    :      0.08s CPU      0.08s WALL (      12 calls)
                                        0.00s GPU  (      12 calls)
     addusd:skk   :      0.00s CPU      0.00s WALL (      12 calls)
                                        0.00s GPU  (      12 calls)

     Called by *egterg:
     cdiaghg      :      5.94s CPU      6.08s WALL (   11963 calls)
     cegterg:over :      0.80s CPU      0.77s WALL (   10291 calls)
     cegterg:upda :      0.11s CPU      0.19s WALL (   10291 calls)
     cegterg:last :      0.34s CPU      0.37s WALL (    7227 calls)
     h_psi        :     15.97s CPU     16.68s WALL (   12139 calls)
     s_psi        :      0.31s CPU      0.27s WALL (   12139 calls)
     g_psi        :      0.05s CPU      0.06s WALL (   10291 calls)

     Called by h_psi:
     h_psi:calbec :      0.83s CPU      0.81s WALL (   12139 calls)
     vloc_psi     :     14.91s CPU     15.52s WALL (   12139 calls)
     add_vuspsi   :      0.19s CPU      0.28s WALL (   12139 calls)

     General routines
     calbec       :      1.00s CPU      0.96s WALL (   13963 calls)
     fft          :      0.02s CPU      0.02s WALL (     319 calls)
     ffts         :      0.00s CPU      0.00s WALL (      50 calls)
     fftw         :     15.94s CPU     16.24s WALL (  368198 calls)
     interpolate  :      0.00s CPU      0.00s WALL (      26 calls)
 
     Parallel routines

     PAW routines
     PAW_pot      :      1.07s CPU      1.23s WALL (      13 calls)
     PAW_symme    :      0.01s CPU      0.01s WALL (      24 calls)
 
     PWSCF        :     28.91s CPU     30.71s WALL

 
   This run was terminated on:   7:48:35  22Mar2024            

=------------------------------------------------------------------------------=
   JOB DONE.
=------------------------------------------------------------------------------=
