
     Program PWSCF v.7.2 starts on 22Mar2024 at  9:33:50 

     This program is part of the open-source Quantum ESPRESSO suite
     for quantum simulation of materials; please cite
         "P. Giannozzi et al., J. Phys.:Condens. Matter 21 395502 (2009);
         "P. Giannozzi et al., J. Phys.:Condens. Matter 29 465901 (2017);
         "P. Giannozzi et al., J. Chem. Phys. 152 154105 (2020);
          URL http://www.quantum-espresso.org", 
     in publications or presentations arising from this work. More details at
     http://www.quantum-espresso.org/quote

     Parallel version (MPI), running on    20 processors

     MPI processes distributed on     1 nodes
     336869 MiB available memory on the printing compute node when the environment starts
 
     Waiting for input...
     Reading input from standard input

     Current dimensions of program PWSCF are:
     Max number of different atomic species (ntypx) = 10
     Max number of k-points (npk) = 120000
     Max angular momentum in pseudopotentials (lmaxx) =  4
     file Co.pbe-spn-kjpaw_psl.0.3.1.UPF: wavefunction(s)  3P 3D renormalized
 
     R & G space division:  proc/nbgrp/npool/nimage =      20
     Subspace diagonalization in iterative solution of the eigenvalue problem:
     a serial algorithm will be used

 
     Parallelization info
     --------------------
     sticks:   dense  smooth     PW     G-vecs:    dense   smooth      PW
     Min          32      32      9                 1145     1104     181
     Max          34      33     10                 1161     1111     186
     Sum         661     649    199                23007    22131    3695
 
     Using Slab Decomposition
 


     bravais-lattice index     =            4
     lattice parameter (alat)  =       4.6204  a.u.
     unit-cell volume          =     142.1934 (a.u.)^3
     number of atoms/cell      =            2
     number of atomic types    =            1
     number of electrons       =        34.00
     number of Kohn-Sham states=           21
     kinetic-energy cutoff     =     110.0000  Ry
     charge density cutoff     =     450.0000  Ry
     scf convergence threshold =      1.0E-06
     mixing beta               =       0.7000
     number of iterations used =            8  plain     mixing
     Exchange-correlation= SLA  PW   PBX  PBC
                           (   1   4   3   4   0   0   0)

     celldm(1)=   4.620380  celldm(2)=   0.000000  celldm(3)=   1.664622
     celldm(4)=   0.000000  celldm(5)=   0.000000  celldm(6)=   0.000000

     crystal axes: (cart. coord. in units of alat)
               a(1) = (   1.000000   0.000000   0.000000 )  
               a(2) = (  -0.500000   0.866025   0.000000 )  
               a(3) = (   0.000000   0.000000   1.664622 )  

     reciprocal axes: (cart. coord. in units 2 pi/alat)
               b(1) = (  1.000000  0.577350  0.000000 )  
               b(2) = (  0.000000  1.154701  0.000000 )  
               b(3) = (  0.000000  0.000000  0.600737 )  


     PseudoPot. # 1 for Co read from file:
     /truba/home/amuhaymin/ZnS/pseudo/QE/Co.pbe-spn-kjpaw_psl.0.3.1.UPF
     MD5 check sum: b0a1ad65bf214e88c1f3d33b20c7d919
     Pseudo is Projector augmented-wave + core cor, Zval = 17.0
     Generated using &quot;atomic&quot; code by A. Dal Corso  v.6.2.2
     Shape of augmentation charge: PSQ
     Using radial grid of 1193 points,  6 beta functions with: 
                l(1) =   0
                l(2) =   0
                l(3) =   1
                l(4) =   1
                l(5) =   2
                l(6) =   2
     Q(r) pseudized with 0 coefficients 


     atomic species   valence    mass     pseudopotential
        Co            17.00    58.93300     Co( 1.00)

     Starting magnetic structure 
     atomic species   magnetization
        Co           0.294

     24 Sym. Ops., with inversion, found (12 have fractional translation)


                                    s                        frac. trans.

      isym =  1     identity                                     

 cryst.   s( 1) = (     1          0          0      )
                  (     0          1          0      )
                  (     0          0          1      )

 cart.    s( 1) = (  1.0000000  0.0000000  0.0000000 )
                  (  0.0000000  1.0000000  0.0000000 )
                  (  0.0000000  0.0000000  1.0000000 )


      isym =  2     180 deg rotation - cart. axis [0,0,1]        

 cryst.   s( 2) = (    -1          0          0      )    f =(  0.0000000 )
                  (     0         -1          0      )       (  0.0000000 )
                  (     0          0          1      )       (  0.5000000 )

 cart.    s( 2) = ( -1.0000000  0.0000000  0.0000000 )    f =(  0.0000000 )
                  (  0.0000000 -1.0000000  0.0000000 )       (  0.0000000 )
                  (  0.0000000  0.0000000  1.0000000 )       (  0.8323108 )


      isym =  3     180 deg rotation - cart. axis [0,1,0]        

 cryst.   s( 3) = (    -1          0          0      )    f =(  0.0000000 )
                  (     1          1          0      )       (  0.0000000 )
                  (     0          0         -1      )       (  0.5000000 )

 cart.    s( 3) = ( -1.0000000  0.0000000  0.0000000 )    f =(  0.0000000 )
                  (  0.0000000  1.0000000  0.0000000 )       (  0.0000000 )
                  (  0.0000000  0.0000000 -1.0000000 )       (  0.8323108 )


      isym =  4     180 deg rotation - cart. axis [1,0,0]        

 cryst.   s( 4) = (     1          0          0      )
                  (    -1         -1          0      )
                  (     0          0         -1      )

 cart.    s( 4) = (  1.0000000  0.0000000  0.0000000 )
                  (  0.0000000 -1.0000000  0.0000000 )
                  (  0.0000000  0.0000000 -1.0000000 )


      isym =  5      60 deg rotation - cryst. axis [0,0,1]       

 cryst.   s( 5) = (     1          1          0      )    f =(  0.0000000 )
                  (    -1          0          0      )       ( -0.0000000 )
                  (     0          0          1      )       (  0.5000000 )

 cart.    s( 5) = (  0.5000000 -0.8660254  0.0000000 )    f =(  0.0000000 )
                  (  0.8660254  0.5000000  0.0000000 )       ( -0.0000000 )
                  (  0.0000000  0.0000000  1.0000000 )       (  0.8323108 )


      isym =  6      60 deg rotation - cryst. axis [0,0,-1]      

 cryst.   s( 6) = (     0         -1          0      )    f =(  0.0000000 )
                  (     1          1          0      )       ( -0.0000000 )
                  (     0          0          1      )       (  0.5000000 )

 cart.    s( 6) = (  0.5000000  0.8660254  0.0000000 )    f =(  0.0000000 )
                  ( -0.8660254  0.5000000  0.0000000 )       ( -0.0000000 )
                  (  0.0000000  0.0000000  1.0000000 )       (  0.8323108 )


      isym =  7     120 deg rotation - cryst. axis [0,0,1]       

 cryst.   s( 7) = (     0          1          0      )
                  (    -1         -1          0      )
                  (     0          0          1      )

 cart.    s( 7) = ( -0.5000000 -0.8660254  0.0000000 )
                  (  0.8660254 -0.5000000  0.0000000 )
                  (  0.0000000  0.0000000  1.0000000 )


      isym =  8     120 deg rotation - cryst. axis [0,0,-1]      

 cryst.   s( 8) = (    -1         -1          0      )
                  (     1          0          0      )
                  (     0          0          1      )

 cart.    s( 8) = ( -0.5000000  0.8660254  0.0000000 )
                  ( -0.8660254 -0.5000000  0.0000000 )
                  (  0.0000000  0.0000000  1.0000000 )


      isym =  9     180 deg rotation - cryst. axis [1,-1,0]      

 cryst.   s( 9) = (     0         -1          0      )    f =(  0.0000000 )
                  (    -1          0          0      )       (  0.0000000 )
                  (     0          0         -1      )       (  0.5000000 )

 cart.    s( 9) = (  0.5000000 -0.8660254  0.0000000 )    f =(  0.0000000 )
                  ( -0.8660254 -0.5000000  0.0000000 )       (  0.0000000 )
                  (  0.0000000  0.0000000 -1.0000000 )       (  0.8323108 )


      isym = 10     180 deg rotation - cryst. axis [2,1,0]       

 cryst.   s(10) = (     1          1          0      )    f =(  0.0000000 )
                  (     0         -1          0      )       ( -0.0000000 )
                  (     0          0         -1      )       (  0.5000000 )

 cart.    s(10) = (  0.5000000  0.8660254  0.0000000 )    f =(  0.0000000 )
                  (  0.8660254 -0.5000000  0.0000000 )       ( -0.0000000 )
                  (  0.0000000  0.0000000 -1.0000000 )       (  0.8323108 )


      isym = 11     180 deg rotation - cryst. axis [0,1,0]       

 cryst.   s(11) = (    -1         -1          0      )
                  (     0          1          0      )
                  (     0          0         -1      )

 cart.    s(11) = ( -0.5000000 -0.8660254  0.0000000 )
                  ( -0.8660254  0.5000000  0.0000000 )
                  (  0.0000000  0.0000000 -1.0000000 )


      isym = 12     180 deg rotation - cryst. axis [1,1,0]       

 cryst.   s(12) = (     0          1          0      )
                  (     1          0          0      )
                  (     0          0         -1      )

 cart.    s(12) = ( -0.5000000  0.8660254  0.0000000 )
                  (  0.8660254  0.5000000  0.0000000 )
                  (  0.0000000  0.0000000 -1.0000000 )


      isym = 13     inversion                                    

 cryst.   s(13) = (    -1          0          0      )
                  (     0         -1          0      )
                  (     0          0         -1      )

 cart.    s(13) = ( -1.0000000  0.0000000  0.0000000 )
                  (  0.0000000 -1.0000000  0.0000000 )
                  (  0.0000000  0.0000000 -1.0000000 )


      isym = 14     inv. 180 deg rotation - cart. axis [0,0,1]   

 cryst.   s(14) = (     1          0          0      )    f =(  0.0000000 )
                  (     0          1          0      )       (  0.0000000 )
                  (     0          0         -1      )       (  0.5000000 )

 cart.    s(14) = (  1.0000000  0.0000000  0.0000000 )    f =(  0.0000000 )
                  (  0.0000000  1.0000000  0.0000000 )       (  0.0000000 )
                  (  0.0000000  0.0000000 -1.0000000 )       (  0.8323108 )


      isym = 15     inv. 180 deg rotation - cart. axis [0,1,0]   

 cryst.   s(15) = (     1          0          0      )    f =(  0.0000000 )
                  (    -1         -1          0      )       (  0.0000000 )
                  (     0          0          1      )       (  0.5000000 )

 cart.    s(15) = (  1.0000000  0.0000000  0.0000000 )    f =(  0.0000000 )
                  (  0.0000000 -1.0000000  0.0000000 )       (  0.0000000 )
                  (  0.0000000  0.0000000  1.0000000 )       (  0.8323108 )


      isym = 16     inv. 180 deg rotation - cart. axis [1,0,0]   

 cryst.   s(16) = (    -1          0          0      )
                  (     1          1          0      )
                  (     0          0          1      )

 cart.    s(16) = ( -1.0000000  0.0000000  0.0000000 )
                  (  0.0000000  1.0000000  0.0000000 )
                  (  0.0000000  0.0000000  1.0000000 )


      isym = 17     inv.  60 deg rotation - cryst. axis [0,0,1]  

 cryst.   s(17) = (    -1         -1          0      )    f =(  0.0000000 )
                  (     1          0          0      )       (  0.0000000 )
                  (     0          0         -1      )       (  0.5000000 )

 cart.    s(17) = ( -0.5000000  0.8660254  0.0000000 )    f =(  0.0000000 )
                  ( -0.8660254 -0.5000000  0.0000000 )       (  0.0000000 )
                  (  0.0000000  0.0000000 -1.0000000 )       (  0.8323108 )


      isym = 18     inv.  60 deg rotation - cryst. axis [0,0,-1] 

 cryst.   s(18) = (     0          1          0      )    f =(  0.0000000 )
                  (    -1         -1          0      )       ( -0.0000000 )
                  (     0          0         -1      )       (  0.5000000 )

 cart.    s(18) = ( -0.5000000 -0.8660254  0.0000000 )    f =(  0.0000000 )
                  (  0.8660254 -0.5000000  0.0000000 )       ( -0.0000000 )
                  (  0.0000000  0.0000000 -1.0000000 )       (  0.8323108 )


      isym = 19     inv. 120 deg rotation - cryst. axis [0,0,1]  

 cryst.   s(19) = (     0         -1          0      )
                  (     1          1          0      )
                  (     0          0         -1      )

 cart.    s(19) = (  0.5000000  0.8660254  0.0000000 )
                  ( -0.8660254  0.5000000  0.0000000 )
                  (  0.0000000  0.0000000 -1.0000000 )


      isym = 20     inv. 120 deg rotation - cryst. axis [0,0,-1] 

 cryst.   s(20) = (     1          1          0      )
                  (    -1          0          0      )
                  (     0          0         -1      )

 cart.    s(20) = (  0.5000000 -0.8660254  0.0000000 )
                  (  0.8660254  0.5000000  0.0000000 )
                  (  0.0000000  0.0000000 -1.0000000 )


      isym = 21     inv. 180 deg rotation - cryst. axis [1,-1,0] 

 cryst.   s(21) = (     0          1          0      )    f =(  0.0000000 )
                  (     1          0          0      )       ( -0.0000000 )
                  (     0          0          1      )       (  0.5000000 )

 cart.    s(21) = ( -0.5000000  0.8660254  0.0000000 )    f =(  0.0000000 )
                  (  0.8660254  0.5000000  0.0000000 )       ( -0.0000000 )
                  (  0.0000000  0.0000000  1.0000000 )       (  0.8323108 )


      isym = 22     inv. 180 deg rotation - cryst. axis [2,1,0]  

 cryst.   s(22) = (    -1         -1          0      )    f =(  0.0000000 )
                  (     0          1          0      )       ( -0.0000000 )
                  (     0          0          1      )       (  0.5000000 )

 cart.    s(22) = ( -0.5000000 -0.8660254  0.0000000 )    f =(  0.0000000 )
                  ( -0.8660254  0.5000000  0.0000000 )       ( -0.0000000 )
                  (  0.0000000  0.0000000  1.0000000 )       (  0.8323108 )


      isym = 23     inv. 180 deg rotation - cryst. axis [0,1,0]  

 cryst.   s(23) = (     1          1          0      )
                  (     0         -1          0      )
                  (     0          0          1      )

 cart.    s(23) = (  0.5000000  0.8660254  0.0000000 )
                  (  0.8660254 -0.5000000  0.0000000 )
                  (  0.0000000  0.0000000  1.0000000 )


      isym = 24     inv. 180 deg rotation - cryst. axis [1,1,0]  

 cryst.   s(24) = (     0         -1          0      )
                  (    -1          0          0      )
                  (     0          0          1      )

 cart.    s(24) = (  0.5000000 -0.8660254  0.0000000 )
                  ( -0.8660254 -0.5000000  0.0000000 )
                  (  0.0000000  0.0000000  1.0000000 )


     point group D_6h(6/mmm)
     there are 12 classes
     the character table:

       E     2C6   2C3   C2    3C2'  3C2'' i     2S3   2S6   s_h   3s_d  3s_v 
A_1g   1.00  1.00  1.00  1.00  1.00  1.00  1.00  1.00  1.00  1.00  1.00  1.00
A_2g   1.00  1.00  1.00  1.00 -1.00 -1.00  1.00  1.00  1.00  1.00 -1.00 -1.00
B_1g   1.00 -1.00  1.00 -1.00  1.00 -1.00  1.00 -1.00  1.00 -1.00  1.00 -1.00
B_2g   1.00 -1.00  1.00 -1.00 -1.00  1.00  1.00 -1.00  1.00 -1.00 -1.00  1.00
E_1g   2.00  1.00 -1.00 -2.00  0.00  0.00  2.00  1.00 -1.00 -2.00  0.00  0.00
E_2g   2.00 -1.00 -1.00  2.00  0.00  0.00  2.00 -1.00 -1.00  2.00  0.00  0.00
A_1u   1.00  1.00  1.00  1.00  1.00  1.00 -1.00 -1.00 -1.00 -1.00 -1.00 -1.00
A_2u   1.00  1.00  1.00  1.00 -1.00 -1.00 -1.00 -1.00 -1.00 -1.00  1.00  1.00
B_1u   1.00 -1.00  1.00 -1.00  1.00 -1.00 -1.00  1.00 -1.00  1.00 -1.00  1.00
B_2u   1.00 -1.00  1.00 -1.00 -1.00  1.00 -1.00  1.00 -1.00  1.00  1.00 -1.00
E_1u   2.00  1.00 -1.00 -2.00  0.00  0.00 -2.00 -1.00  1.00  2.00  0.00  0.00
E_2u   2.00 -1.00 -1.00  2.00  0.00  0.00 -2.00  1.00  1.00 -2.00  0.00  0.00

     the symmetry operations in each class and the name of the first element:

     E        1
          identity                                               
     2C6      5    6
           60 deg rotation - cryst. axis [0,0,1]                 
     2C3      7    8
          120 deg rotation - cryst. axis [0,0,1]                 
     C2       2
          180 deg rotation - cart. axis [0,0,1]                  
     3C2'     4   12   11
          180 deg rotation - cart. axis [1,0,0]                  
     3C2''    3    9   10
          180 deg rotation - cart. axis [0,1,0]                  
     i       13
          inversion                                              
     2S3     17   18
          inv.  60 deg rotation - cryst. axis [0,0,1]            
     2S6     19   20
          inv. 120 deg rotation - cryst. axis [0,0,1]            
     s_h     14
          inv. 180 deg rotation - cart. axis [0,0,1]             
     3s_d    16   24   23
          inv. 180 deg rotation - cart. axis [1,0,0]             
     3s_v    15   21   22
          inv. 180 deg rotation - cart. axis [0,1,0]             

   Cartesian axes

     site n.     atom                  positions (alat units)
         1           Co  tau(   1) = (  -0.0000000   0.5773503   0.4161554  )
         2           Co  tau(   2) = (   0.5000000   0.2886751   1.2484663  )

   Crystallographic axes

     site n.     atom                  positions (cryst. coord.)
         1           Co  tau(   1) = (  0.3333333  0.6666667  0.2500000  )
         2           Co  tau(   2) = (  0.6666667  0.3333333  0.7500000  )

     number of k points=    76  Gaussian smearing, width (Ry)=  0.0010
                       cart. coord. in units 2pi/alat
        k(    1) = (   0.0000000   0.0000000   0.0000000), wk =   0.0011574
        k(    2) = (   0.0000000   0.0000000   0.1001229), wk =   0.0023148
        k(    3) = (   0.0000000   0.0000000   0.2002457), wk =   0.0023148
        k(    4) = (   0.0000000   0.0000000  -0.3003686), wk =   0.0011574
        k(    5) = (   0.0000000   0.0962250   0.0000000), wk =   0.0069444
        k(    6) = (   0.0000000   0.0962250   0.1001229), wk =   0.0138889
        k(    7) = (   0.0000000   0.0962250   0.2002457), wk =   0.0138889
        k(    8) = (   0.0000000   0.0962250  -0.3003686), wk =   0.0069444
        k(    9) = (   0.0000000   0.1924501   0.0000000), wk =   0.0069444
        k(   10) = (   0.0000000   0.1924501   0.1001229), wk =   0.0138889
        k(   11) = (   0.0000000   0.1924501   0.2002457), wk =   0.0138889
        k(   12) = (   0.0000000   0.1924501  -0.3003686), wk =   0.0069444
        k(   13) = (   0.0000000   0.2886751   0.0000000), wk =   0.0069444
        k(   14) = (   0.0000000   0.2886751   0.1001229), wk =   0.0138889
        k(   15) = (   0.0000000   0.2886751   0.2002457), wk =   0.0138889
        k(   16) = (   0.0000000   0.2886751  -0.3003686), wk =   0.0069444
        k(   17) = (   0.0000000   0.3849002   0.0000000), wk =   0.0069444
        k(   18) = (   0.0000000   0.3849002   0.1001229), wk =   0.0138889
        k(   19) = (   0.0000000   0.3849002   0.2002457), wk =   0.0138889
        k(   20) = (   0.0000000   0.3849002  -0.3003686), wk =   0.0069444
        k(   21) = (   0.0000000   0.4811252   0.0000000), wk =   0.0069444
        k(   22) = (   0.0000000   0.4811252   0.1001229), wk =   0.0138889
        k(   23) = (   0.0000000   0.4811252   0.2002457), wk =   0.0138889
        k(   24) = (   0.0000000   0.4811252  -0.3003686), wk =   0.0069444
        k(   25) = (   0.0000000  -0.5773503   0.0000000), wk =   0.0034722
        k(   26) = (   0.0000000  -0.5773503   0.1001229), wk =   0.0069444
        k(   27) = (   0.0000000  -0.5773503   0.2002457), wk =   0.0069444
        k(   28) = (   0.0000000  -0.5773503  -0.3003686), wk =   0.0034722
        k(   29) = (   0.0833333   0.1443376   0.0000000), wk =   0.0069444
        k(   30) = (   0.0833333   0.1443376   0.1001229), wk =   0.0138889
        k(   31) = (   0.0833333   0.1443376   0.2002457), wk =   0.0138889
        k(   32) = (   0.0833333   0.1443376  -0.3003686), wk =   0.0069444
        k(   33) = (   0.0833333   0.2405626   0.0000000), wk =   0.0138889
        k(   34) = (   0.0833333   0.2405626   0.1001229), wk =   0.0277778
        k(   35) = (   0.0833333   0.2405626   0.2002457), wk =   0.0277778
        k(   36) = (   0.0833333   0.2405626  -0.3003686), wk =   0.0138889
        k(   37) = (   0.0833333   0.3367877   0.0000000), wk =   0.0138889
        k(   38) = (   0.0833333   0.3367877   0.1001229), wk =   0.0277778
        k(   39) = (   0.0833333   0.3367877   0.2002457), wk =   0.0277778
        k(   40) = (   0.0833333   0.3367877  -0.3003686), wk =   0.0138889
        k(   41) = (   0.0833333   0.4330127   0.0000000), wk =   0.0138889
        k(   42) = (   0.0833333   0.4330127   0.1001229), wk =   0.0277778
        k(   43) = (   0.0833333   0.4330127   0.2002457), wk =   0.0277778
        k(   44) = (   0.0833333   0.4330127  -0.3003686), wk =   0.0138889
        k(   45) = (   0.0833333   0.5292377   0.0000000), wk =   0.0138889
        k(   46) = (   0.0833333   0.5292377   0.1001229), wk =   0.0277778
        k(   47) = (   0.0833333   0.5292377   0.2002457), wk =   0.0277778
        k(   48) = (   0.0833333   0.5292377  -0.3003686), wk =   0.0138889
        k(   49) = (   0.1666667   0.2886751   0.0000000), wk =   0.0069444
        k(   50) = (   0.1666667   0.2886751   0.1001229), wk =   0.0138889
        k(   51) = (   0.1666667   0.2886751   0.2002457), wk =   0.0138889
        k(   52) = (   0.1666667   0.2886751  -0.3003686), wk =   0.0069444
        k(   53) = (   0.1666667   0.3849002   0.0000000), wk =   0.0138889
        k(   54) = (   0.1666667   0.3849002   0.1001229), wk =   0.0277778
        k(   55) = (   0.1666667   0.3849002   0.2002457), wk =   0.0277778
        k(   56) = (   0.1666667   0.3849002  -0.3003686), wk =   0.0138889
        k(   57) = (   0.1666667   0.4811252   0.0000000), wk =   0.0138889
        k(   58) = (   0.1666667   0.4811252   0.1001229), wk =   0.0277778
        k(   59) = (   0.1666667   0.4811252   0.2002457), wk =   0.0277778
        k(   60) = (   0.1666667   0.4811252  -0.3003686), wk =   0.0138889
        k(   61) = (   0.1666667   0.5773503   0.0000000), wk =   0.0069444
        k(   62) = (   0.1666667   0.5773503   0.1001229), wk =   0.0138889
        k(   63) = (   0.1666667   0.5773503   0.2002457), wk =   0.0138889
        k(   64) = (   0.1666667   0.5773503  -0.3003686), wk =   0.0069444
        k(   65) = (   0.2500000   0.4330127   0.0000000), wk =   0.0069444
        k(   66) = (   0.2500000   0.4330127   0.1001229), wk =   0.0138889
        k(   67) = (   0.2500000   0.4330127   0.2002457), wk =   0.0138889
        k(   68) = (   0.2500000   0.4330127  -0.3003686), wk =   0.0069444
        k(   69) = (   0.2500000   0.5292377   0.0000000), wk =   0.0138889
        k(   70) = (   0.2500000   0.5292377   0.1001229), wk =   0.0277778
        k(   71) = (   0.2500000   0.5292377   0.2002457), wk =   0.0277778
        k(   72) = (   0.2500000   0.5292377  -0.3003686), wk =   0.0138889
        k(   73) = (   0.3333333   0.5773503   0.0000000), wk =   0.0023148
        k(   74) = (   0.3333333   0.5773503   0.1001229), wk =   0.0046296
        k(   75) = (   0.3333333   0.5773503   0.2002457), wk =   0.0046296
        k(   76) = (   0.3333333   0.5773503  -0.3003686), wk =   0.0023148

                       cryst. coord.
        k(    1) = (   0.0000000   0.0000000   0.0000000), wk =   0.0011574
        k(    2) = (   0.0000000   0.0000000   0.1666667), wk =   0.0023148
        k(    3) = (   0.0000000   0.0000000   0.3333333), wk =   0.0023148
        k(    4) = (   0.0000000   0.0000000  -0.5000000), wk =   0.0011574
        k(    5) = (   0.0000000   0.0833333   0.0000000), wk =   0.0069444
        k(    6) = (   0.0000000   0.0833333   0.1666667), wk =   0.0138889
        k(    7) = (   0.0000000   0.0833333   0.3333333), wk =   0.0138889
        k(    8) = (   0.0000000   0.0833333  -0.5000000), wk =   0.0069444
        k(    9) = (   0.0000000   0.1666667   0.0000000), wk =   0.0069444
        k(   10) = (   0.0000000   0.1666667   0.1666667), wk =   0.0138889
        k(   11) = (   0.0000000   0.1666667   0.3333333), wk =   0.0138889
        k(   12) = (   0.0000000   0.1666667  -0.5000000), wk =   0.0069444
        k(   13) = (   0.0000000   0.2500000   0.0000000), wk =   0.0069444
        k(   14) = (   0.0000000   0.2500000   0.1666667), wk =   0.0138889
        k(   15) = (   0.0000000   0.2500000   0.3333333), wk =   0.0138889
        k(   16) = (   0.0000000   0.2500000  -0.5000000), wk =   0.0069444
        k(   17) = (   0.0000000   0.3333333   0.0000000), wk =   0.0069444
        k(   18) = (   0.0000000   0.3333333   0.1666667), wk =   0.0138889
        k(   19) = (   0.0000000   0.3333333   0.3333333), wk =   0.0138889
        k(   20) = (   0.0000000   0.3333333  -0.5000000), wk =   0.0069444
        k(   21) = (   0.0000000   0.4166667   0.0000000), wk =   0.0069444
        k(   22) = (   0.0000000   0.4166667   0.1666667), wk =   0.0138889
        k(   23) = (   0.0000000   0.4166667   0.3333333), wk =   0.0138889
        k(   24) = (   0.0000000   0.4166667  -0.5000000), wk =   0.0069444
        k(   25) = (   0.0000000  -0.5000000   0.0000000), wk =   0.0034722
        k(   26) = (   0.0000000  -0.5000000   0.1666667), wk =   0.0069444
        k(   27) = (   0.0000000  -0.5000000   0.3333333), wk =   0.0069444
        k(   28) = (   0.0000000  -0.5000000  -0.5000000), wk =   0.0034722
        k(   29) = (   0.0833333   0.0833333   0.0000000), wk =   0.0069444
        k(   30) = (   0.0833333   0.0833333   0.1666667), wk =   0.0138889
        k(   31) = (   0.0833333   0.0833333   0.3333333), wk =   0.0138889
        k(   32) = (   0.0833333   0.0833333  -0.5000000), wk =   0.0069444
        k(   33) = (   0.0833333   0.1666667   0.0000000), wk =   0.0138889
        k(   34) = (   0.0833333   0.1666667   0.1666667), wk =   0.0277778
        k(   35) = (   0.0833333   0.1666667   0.3333333), wk =   0.0277778
        k(   36) = (   0.0833333   0.1666667  -0.5000000), wk =   0.0138889
        k(   37) = (   0.0833333   0.2500000   0.0000000), wk =   0.0138889
        k(   38) = (   0.0833333   0.2500000   0.1666667), wk =   0.0277778
        k(   39) = (   0.0833333   0.2500000   0.3333333), wk =   0.0277778
        k(   40) = (   0.0833333   0.2500000  -0.5000000), wk =   0.0138889
        k(   41) = (   0.0833333   0.3333333   0.0000000), wk =   0.0138889
        k(   42) = (   0.0833333   0.3333333   0.1666667), wk =   0.0277778
        k(   43) = (   0.0833333   0.3333333   0.3333333), wk =   0.0277778
        k(   44) = (   0.0833333   0.3333333  -0.5000000), wk =   0.0138889
        k(   45) = (   0.0833333   0.4166667   0.0000000), wk =   0.0138889
        k(   46) = (   0.0833333   0.4166667   0.1666667), wk =   0.0277778
        k(   47) = (   0.0833333   0.4166667   0.3333333), wk =   0.0277778
        k(   48) = (   0.0833333   0.4166667  -0.5000000), wk =   0.0138889
        k(   49) = (   0.1666667   0.1666667   0.0000000), wk =   0.0069444
        k(   50) = (   0.1666667   0.1666667   0.1666667), wk =   0.0138889
        k(   51) = (   0.1666667   0.1666667   0.3333333), wk =   0.0138889
        k(   52) = (   0.1666667   0.1666667  -0.5000000), wk =   0.0069444
        k(   53) = (   0.1666667   0.2500000   0.0000000), wk =   0.0138889
        k(   54) = (   0.1666667   0.2500000   0.1666667), wk =   0.0277778
        k(   55) = (   0.1666667   0.2500000   0.3333333), wk =   0.0277778
        k(   56) = (   0.1666667   0.2500000  -0.5000000), wk =   0.0138889
        k(   57) = (   0.1666667   0.3333333   0.0000000), wk =   0.0138889
        k(   58) = (   0.1666667   0.3333333   0.1666667), wk =   0.0277778
        k(   59) = (   0.1666667   0.3333333   0.3333333), wk =   0.0277778
        k(   60) = (   0.1666667   0.3333333  -0.5000000), wk =   0.0138889
        k(   61) = (   0.1666667   0.4166667   0.0000000), wk =   0.0069444
        k(   62) = (   0.1666667   0.4166667   0.1666667), wk =   0.0138889
        k(   63) = (   0.1666667   0.4166667   0.3333333), wk =   0.0138889
        k(   64) = (   0.1666667   0.4166667  -0.5000000), wk =   0.0069444
        k(   65) = (   0.2500000   0.2500000   0.0000000), wk =   0.0069444
        k(   66) = (   0.2500000   0.2500000   0.1666667), wk =   0.0138889
        k(   67) = (   0.2500000   0.2500000   0.3333333), wk =   0.0138889
        k(   68) = (   0.2500000   0.2500000  -0.5000000), wk =   0.0069444
        k(   69) = (   0.2500000   0.3333333   0.0000000), wk =   0.0138889
        k(   70) = (   0.2500000   0.3333333   0.1666667), wk =   0.0277778
        k(   71) = (   0.2500000   0.3333333   0.3333333), wk =   0.0277778
        k(   72) = (   0.2500000   0.3333333  -0.5000000), wk =   0.0138889
        k(   73) = (   0.3333333   0.3333333   0.0000000), wk =   0.0023148
        k(   74) = (   0.3333333   0.3333333   0.1666667), wk =   0.0046296
        k(   75) = (   0.3333333   0.3333333   0.3333333), wk =   0.0046296
        k(   76) = (   0.3333333   0.3333333  -0.5000000), wk =   0.0023148

     Dense  grid:    23007 G-vectors     FFT dimensions: (  32,  32,  54)

     Smooth grid:    22131 G-vectors     FFT dimensions: (  32,  32,  54)

     Dynamical RAM for                 wfc:       0.04 MB

     Dynamical RAM for     wfc (w. buffer):       6.77 MB

     Dynamical RAM for           str. fact:       0.02 MB

     Dynamical RAM for           local pot:       0.00 MB

     Dynamical RAM for          nlocal pot:       0.08 MB

     Dynamical RAM for                qrad:       1.70 MB

     Dynamical RAM for          rho,v,vnew:       0.25 MB

     Dynamical RAM for               rhoin:       0.08 MB

     Dynamical RAM for            rho*nmix:       0.57 MB

     Dynamical RAM for           G-vectors:       0.07 MB

     Dynamical RAM for          h,s,v(r/c):       0.08 MB

     Dynamical RAM for          <psi|beta>:       0.01 MB

     Dynamical RAM for                 psi:       0.09 MB

     Dynamical RAM for                hpsi:       0.09 MB

     Dynamical RAM for                spsi:       0.09 MB

     Dynamical RAM for      wfcinit/wfcrot:       0.10 MB

     Dynamical RAM for           addusdens:       3.34 MB

     Estimated static dynamical RAM per process >       9.14 MB

     Estimated max dynamical RAM per process >      13.05 MB

     Estimated total dynamical RAM >     260.99 MB

     Check: negative core charge=   -0.000043
     Generating pointlists ...
     new r_m :   0.4125 (alat units)  1.9059 (a.u.) for type    1

     The initial density is read from file :
     ./out2/Co.save/charge-density


     starting charge      34.0418, renormalised to      34.0000

     negative rho (up, down):  4.417E-01 4.201E-01
     Starting wfcs from file
     Checking if some PAW data can be deallocated... 

     total cpu time spent up to now is        0.6 secs

     Self-consistent Calculation

     iteration #  1     ecut=   110.00 Ry     beta= 0.70
     Davidson diagonalization with overlap

---- Real-time Memory Report at c_bands before calling an iterative solver
            56 MiB given to the printing process from OS
             0 MiB allocation reported by mallinfo(arena+hblkhd)
        336307 MiB available memory on the node where the printing process lives
------------------
     c_bands:  3 eigenvalues not converged
     c_bands:  1 eigenvalues not converged
     c_bands:  2 eigenvalues not converged
     c_bands:  1 eigenvalues not converged
     c_bands:  4 eigenvalues not converged
     c_bands:  1 eigenvalues not converged
     c_bands:  1 eigenvalues not converged
     c_bands:  1 eigenvalues not converged
     c_bands:  2 eigenvalues not converged
     c_bands:  2 eigenvalues not converged
     c_bands:  1 eigenvalues not converged
     c_bands:  1 eigenvalues not converged
     c_bands:  1 eigenvalues not converged
     c_bands:  1 eigenvalues not converged
     c_bands:  1 eigenvalues not converged
     c_bands:  1 eigenvalues not converged
     c_bands:  1 eigenvalues not converged
     c_bands:  1 eigenvalues not converged
     c_bands:  1 eigenvalues not converged
     c_bands:  1 eigenvalues not converged
     c_bands:  1 eigenvalues not converged
     c_bands:  1 eigenvalues not converged
     ethr =  1.00E-05,  avg # of iterations = 19.5

     negative rho (up, down):  1.333E-02 1.010E-02

     total cpu time spent up to now is       10.1 secs

     total energy              =    -753.19553204 Ry
     estimated scf accuracy    <       0.19563376 Ry

     total magnetization       =     3.33 Bohr mag/cell
     absolute magnetization    =     3.58 Bohr mag/cell

     iteration #  2     ecut=   110.00 Ry     beta= 0.70
     Davidson diagonalization with overlap

---- Real-time Memory Report at c_bands before calling an iterative solver
            74 MiB given to the printing process from OS
             0 MiB allocation reported by mallinfo(arena+hblkhd)
        336081 MiB available memory on the node where the printing process lives
------------------
     ethr =  5.75E-04,  avg # of iterations =  4.3

     negative rho (up, down):  6.215E-03 4.252E-03

     total cpu time spent up to now is       12.1 secs

     total energy              =    -753.21052243 Ry
     estimated scf accuracy    <       0.39058636 Ry

     total magnetization       =     3.04 Bohr mag/cell
     absolute magnetization    =     3.29 Bohr mag/cell

     iteration #  3     ecut=   110.00 Ry     beta= 0.70
     Davidson diagonalization with overlap

---- Real-time Memory Report at c_bands before calling an iterative solver
            75 MiB given to the printing process from OS
             0 MiB allocation reported by mallinfo(arena+hblkhd)
        336071 MiB available memory on the node where the printing process lives
------------------
     ethr =  5.75E-04,  avg # of iterations =  3.2

     total cpu time spent up to now is       13.7 secs

     total energy              =    -753.42747429 Ry
     estimated scf accuracy    <       0.01684600 Ry

     total magnetization       =     3.20 Bohr mag/cell
     absolute magnetization    =     3.47 Bohr mag/cell

     iteration #  4     ecut=   110.00 Ry     beta= 0.70
     Davidson diagonalization with overlap

---- Real-time Memory Report at c_bands before calling an iterative solver
            76 MiB given to the printing process from OS
             0 MiB allocation reported by mallinfo(arena+hblkhd)
        336061 MiB available memory on the node where the printing process lives
------------------
     ethr =  4.95E-05,  avg # of iterations =  6.1

     total cpu time spent up to now is       16.4 secs

     total energy              =    -753.43775332 Ry
     estimated scf accuracy    <       0.10077754 Ry

     total magnetization       =     3.29 Bohr mag/cell
     absolute magnetization    =     3.57 Bohr mag/cell

     iteration #  5     ecut=   110.00 Ry     beta= 0.70
     Davidson diagonalization with overlap

---- Real-time Memory Report at c_bands before calling an iterative solver
            78 MiB given to the printing process from OS
             0 MiB allocation reported by mallinfo(arena+hblkhd)
        336050 MiB available memory on the node where the printing process lives
------------------
     ethr =  4.95E-05,  avg # of iterations =  4.6

     total cpu time spent up to now is       18.7 secs

     total energy              =    -753.45317097 Ry
     estimated scf accuracy    <       0.00023709 Ry

     total magnetization       =     3.22 Bohr mag/cell
     absolute magnetization    =     3.51 Bohr mag/cell

     iteration #  6     ecut=   110.00 Ry     beta= 0.70
     Davidson diagonalization with overlap

---- Real-time Memory Report at c_bands before calling an iterative solver
            79 MiB given to the printing process from OS
             0 MiB allocation reported by mallinfo(arena+hblkhd)
        336037 MiB available memory on the node where the printing process lives
------------------
     ethr =  6.97E-07,  avg # of iterations =  5.8

     total cpu time spent up to now is       21.1 secs

     total energy              =    -753.45342354 Ry
     estimated scf accuracy    <       0.00024003 Ry

     total magnetization       =     3.22 Bohr mag/cell
     absolute magnetization    =     3.52 Bohr mag/cell

     iteration #  7     ecut=   110.00 Ry     beta= 0.70
     Davidson diagonalization with overlap

---- Real-time Memory Report at c_bands before calling an iterative solver
            79 MiB given to the printing process from OS
             0 MiB allocation reported by mallinfo(arena+hblkhd)
        336029 MiB available memory on the node where the printing process lives
------------------
     ethr =  6.97E-07,  avg # of iterations =  1.3

     total cpu time spent up to now is       22.4 secs

     total energy              =    -753.45340123 Ry
     estimated scf accuracy    <       0.00008999 Ry

     total magnetization       =     3.23 Bohr mag/cell
     absolute magnetization    =     3.53 Bohr mag/cell

     iteration #  8     ecut=   110.00 Ry     beta= 0.70
     Davidson diagonalization with overlap

---- Real-time Memory Report at c_bands before calling an iterative solver
            80 MiB given to the printing process from OS
             0 MiB allocation reported by mallinfo(arena+hblkhd)
        336024 MiB available memory on the node where the printing process lives
------------------
     ethr =  2.65E-07,  avg # of iterations =  3.8

     total cpu time spent up to now is       24.4 secs

     total energy              =    -753.45345980 Ry
     estimated scf accuracy    <       0.00001759 Ry

     total magnetization       =     3.24 Bohr mag/cell
     absolute magnetization    =     3.54 Bohr mag/cell

     iteration #  9     ecut=   110.00 Ry     beta= 0.70
     Davidson diagonalization with overlap

---- Real-time Memory Report at c_bands before calling an iterative solver
            80 MiB given to the printing process from OS
             0 MiB allocation reported by mallinfo(arena+hblkhd)
        336019 MiB available memory on the node where the printing process lives
------------------
     ethr =  5.17E-08,  avg # of iterations =  6.6

     total cpu time spent up to now is       27.1 secs

     total energy              =    -753.45341889 Ry
     estimated scf accuracy    <       0.00013999 Ry

     total magnetization       =     3.24 Bohr mag/cell
     absolute magnetization    =     3.55 Bohr mag/cell

     iteration # 10     ecut=   110.00 Ry     beta= 0.70
     Davidson diagonalization with overlap

---- Real-time Memory Report at c_bands before calling an iterative solver
            80 MiB given to the printing process from OS
             0 MiB allocation reported by mallinfo(arena+hblkhd)
        336014 MiB available memory on the node where the printing process lives
------------------
     ethr =  5.17E-08,  avg # of iterations =  5.2

     total cpu time spent up to now is       29.5 secs

     total energy              =    -753.45344964 Ry
     estimated scf accuracy    <       0.00000465 Ry

     total magnetization       =     3.26 Bohr mag/cell
     absolute magnetization    =     3.56 Bohr mag/cell

     iteration # 11     ecut=   110.00 Ry     beta= 0.70
     Davidson diagonalization with overlap

---- Real-time Memory Report at c_bands before calling an iterative solver
            81 MiB given to the printing process from OS
             0 MiB allocation reported by mallinfo(arena+hblkhd)
        336011 MiB available memory on the node where the printing process lives
------------------
     ethr =  1.37E-08,  avg # of iterations =  2.2

     total cpu time spent up to now is       31.0 secs

     total energy              =    -753.45345043 Ry
     estimated scf accuracy    <       0.00000174 Ry

     total magnetization       =     3.27 Bohr mag/cell
     absolute magnetization    =     3.57 Bohr mag/cell

     iteration # 12     ecut=   110.00 Ry     beta= 0.70
     Davidson diagonalization with overlap

---- Real-time Memory Report at c_bands before calling an iterative solver
            82 MiB given to the printing process from OS
             0 MiB allocation reported by mallinfo(arena+hblkhd)
        336009 MiB available memory on the node where the printing process lives
------------------
     ethr =  5.13E-09,  avg # of iterations =  4.9

     total cpu time spent up to now is       33.3 secs

     total energy              =    -753.45345171 Ry
     estimated scf accuracy    <       0.00000358 Ry

     total magnetization       =     3.26 Bohr mag/cell
     absolute magnetization    =     3.56 Bohr mag/cell

     iteration # 13     ecut=   110.00 Ry     beta= 0.70
     Davidson diagonalization with overlap

---- Real-time Memory Report at c_bands before calling an iterative solver
            83 MiB given to the printing process from OS
             0 MiB allocation reported by mallinfo(arena+hblkhd)
        336008 MiB available memory on the node where the printing process lives
------------------
     ethr =  5.13E-09,  avg # of iterations =  1.9
 
     Magnetic moment per site  (integrated on atomic sphere of radius R)
     atom   1 (R=0.413)  charge= 15.5464  magn=  1.7022
     atom   2 (R=0.413)  charge= 15.5464  magn=  1.7022

     total cpu time spent up to now is       34.7 secs

     End of self-consistent calculation

 ------ SPIN UP ------------


          k = 0.0000 0.0000 0.0000 (  2779 PWs)   bands (ev):

   -76.7872 -76.7305 -40.1984 -39.8641 -39.8641 -39.8618 -39.8196 -39.8196
    10.1785  13.9917  16.5195  16.7108  16.7108  17.0072  17.0072  17.4732
    17.4732  18.5189  18.5189  18.7743  25.4957

     occupation numbers 
     1.0000   1.0000   1.0000   1.0000   1.0000   1.0000   1.0000   1.0000
     1.0000   1.0000   1.0000   1.0000   1.0000   1.0000   1.0000   1.0000
     1.0000   1.0000   1.0000   1.0000   0.0000

          k = 0.0000 0.0000 0.1001 (  2780 PWs)   bands (ev):

   -76.7835 -76.7343 -40.1762 -39.8846 -39.8611 -39.8611 -39.8226 -39.8226
    10.4505  13.9070  16.4533  16.6622  16.6622  16.9429  16.9429  17.6149
    17.6149  17.8871  18.4975  18.4975  26.9499

     occupation numbers 
     1.0000   1.0000   1.0000   1.0000   1.0000   1.0000   1.0000   1.0000
     1.0000   1.0000   1.0000   1.0000   1.0000   1.0000   1.0000   1.0000
     1.0000   1.0000   1.0000   1.0000   0.0000

          k = 0.0000 0.0000 0.2002 (  2798 PWs)   bands (ev):

   -76.7731 -76.7447 -40.1152 -39.9469 -39.8530 -39.8530 -39.8307 -39.8307
    11.2300  13.4334  16.3017  16.6198  16.6198  16.6575  16.7990  16.7990
    17.9098  17.9098  18.4034  18.4034  30.0712

     occupation numbers 
     1.0000   1.0000   1.0000   1.0000   1.0000   1.0000   1.0000   1.0000
     1.0000   1.0000   1.0000   1.0000   1.0000   1.0000   1.0000   1.0000
     1.0000   1.0000   1.0000   1.0000   0.0000

          k = 0.0000 0.0000-0.3004 (  2786 PWs)   bands (ev):

   -76.7589 -76.7589 -40.0313 -40.0313 -39.8419 -39.8419 -39.8419 -39.8419
    12.3671  12.3671  16.2336  16.2336  16.6688  16.6688  16.6688  16.6688
    18.2008  18.2008  18.2008  18.2008  33.8231

     occupation numbers 
     1.0000   1.0000   1.0000   1.0000   1.0000   1.0000   1.0000   1.0000
     1.0000   1.0000   1.0000   1.0000   1.0000   1.0000   1.0000   1.0000
     1.0000   1.0000   1.0000   1.0000   0.0000

          k = 0.0000 0.0962 0.0000 (  2767 PWs)   bands (ev):

   -76.7834 -76.7283 -40.1906 -39.8833 -39.8700 -39.8644 -39.8393 -39.8230
    10.4309  14.1518  16.4065  16.7904  16.8333  16.9478  17.1177  17.2521
    17.3994  17.5958  18.5469  20.0760  25.5338

     occupation numbers 
     1.0000   1.0000   1.0000   1.0000   1.0000   1.0000   1.0000   1.0000
     1.0000   1.0000   1.0000   1.0000   1.0000   1.0000   1.0000   1.0000
     1.0000   1.0000   1.0000   0.0000   0.0000

          k = 0.0000 0.0962 0.1001 (  2790 PWs)   bands (ev):

   -76.7797 -76.7320 -40.1696 -39.8897 -39.8797 -39.8669 -39.8392 -39.8262
    10.6985  14.0812  16.4012  16.6461  16.7576  16.7716  17.0481  17.2397
    17.5637  17.6013  18.5184  19.3921  27.0600

     occupation numbers 
     1.0000   1.0000   1.0000   1.0000   1.0000   1.0000   1.0000   1.0000
     1.0000   1.0000   1.0000   1.0000   1.0000   1.0000   1.0000   1.0000
     1.0000   1.0000   1.0000   0.0000   0.0000

          k = 0.0000 0.0962 0.2002 (  2793 PWs)   bands (ev):

   -76.7697 -76.7421 -40.1117 -39.9511 -39.8705 -39.8583 -39.8460 -39.8348
    11.4653  13.6334  16.2754  16.2981  16.5281  16.7212  16.8905  16.9021
    17.8796  17.9177  18.4078  18.6947  30.2313

     occupation numbers 
     1.0000   1.0000   1.0000   1.0000   1.0000   1.0000   1.0000   1.0000
     1.0000   1.0000   1.0000   1.0000   1.0000   1.0000   1.0000   1.0000
     1.0000   1.0000   1.0000   1.0000   0.0000

          k = 0.0000 0.0962-0.3004 (  2784 PWs)   bands (ev):

   -76.7559 -76.7559 -40.0320 -40.0320 -39.8579 -39.8579 -39.8466 -39.8466
    12.5841  12.5841  16.1187  16.1187  16.6467  16.6467  16.7704  16.7704
    18.1872  18.1872  18.2883  18.2883  34.0021

     occupation numbers 
     1.0000   1.0000   1.0000   1.0000   1.0000   1.0000   1.0000   1.0000
     1.0000   1.0000   1.0000   1.0000   1.0000   1.0000   1.0000   1.0000
     1.0000   1.0000   1.0000   1.0000   0.0000

          k = 0.0000 0.1925 0.0000 (  2757 PWs)   bands (ev):

   -76.7728 -76.7227 -40.1686 -39.9359 -39.8927 -39.8859 -39.8723 -39.8327
    11.1592  14.5488  16.1602  16.3772  16.7281  17.0986  17.1797  17.2175
    17.3205  17.4275  18.6044  21.7126  25.6708

     occupation numbers 
     1.0000   1.0000   1.0000   1.0000   1.0000   1.0000   1.0000   1.0000
     1.0000   1.0000   1.0000   1.0000   1.0000   1.0000   1.0000   1.0000
     1.0000   1.0000   1.0000   0.0000   0.0000

          k = 0.0000 0.1925 0.1001 (  2771 PWs)   bands (ev):

   -76.7694 -76.7261 -40.1513 -39.9316 -39.9159 -39.8824 -39.8711 -39.8363
    11.4104  14.5217  16.1059  16.2042  16.6054  16.9911  17.0236  17.3232
    17.5181  17.5656  18.5606  20.6331  27.4210

     occupation numbers 
     1.0000   1.0000   1.0000   1.0000   1.0000   1.0000   1.0000   1.0000
     1.0000   1.0000   1.0000   1.0000   1.0000   1.0000   1.0000   1.0000
     1.0000   1.0000   1.0000   0.0000   0.0000

          k = 0.0000 0.1925 0.2002 (  2778 PWs)   bands (ev):

   -76.7603 -76.7353 -40.1039 -39.9710 -39.9158 -39.8801 -39.8726 -39.8460
    12.1270  14.1491  15.7838  16.2560  16.3306  16.8230  16.9729  17.1865
    17.8426  17.9812  18.4165  19.3321  30.7116

     occupation numbers 
     1.0000   1.0000   1.0000   1.0000   1.0000   1.0000   1.0000   1.0000
     1.0000   1.0000   1.0000   1.0000   1.0000   1.0000   1.0000   1.0000
     1.0000   1.0000   1.0000   0.9160   0.0000

          k = 0.0000 0.1925-0.3004 (  2782 PWs)   bands (ev):

   -76.7478 -76.7478 -40.0383 -40.0383 -39.8973 -39.8973 -39.8593 -39.8593
    13.1670  13.1670  15.9103  15.9103  16.5570  16.5570  17.0414  17.0414
    18.1660  18.1660  18.5262  18.5262  34.5045

     occupation numbers 
     1.0000   1.0000   1.0000   1.0000   1.0000   1.0000   1.0000   1.0000
     1.0000   1.0000   1.0000   1.0000   1.0000   1.0000   1.0000   1.0000
     1.0000   1.0000   1.0000   1.0000   0.0000

          k = 0.0000 0.2887 0.0000 (  2781 PWs)   bands (ev):

   -76.7578 -76.7156 -40.1357 -40.0083 -39.9645 -39.9071 -39.8860 -39.8464
    12.2557  14.8617  15.6287  16.0161  16.5991  16.9987  17.0877  17.5633
    17.6828  17.8729  18.6551  23.5427  25.9474

     occupation numbers 
     1.0000   1.0000   1.0000   1.0000   1.0000   1.0000   1.0000   1.0000
     1.0000   1.0000   1.0000   1.0000   1.0000   1.0000   1.0000   1.0000
     1.0000   1.0000   1.0000   0.0000   0.0000

          k = 0.0000 0.2887 0.1001 (  2767 PWs)   bands (ev):

   -76.7549 -76.7184 -40.1273 -39.9995 -39.9781 -39.9031 -39.8898 -39.8505
    12.4621  14.8866  15.4930  16.0710  16.4547  17.0392  17.0720  17.7072
    17.7194  17.8355  18.5996  21.9261  28.0820

     occupation numbers 
     1.0000   1.0000   1.0000   1.0000   1.0000   1.0000   1.0000   1.0000
     1.0000   1.0000   1.0000   1.0000   1.0000   1.0000   1.0000   1.0000
     1.0000   1.0000   1.0000   0.0000   0.0000

          k = 0.0000 0.2887 0.2002 (  2759 PWs)   bands (ev):

   -76.7472 -76.7261 -40.1025 -40.0207 -39.9665 -39.9052 -39.8920 -39.8616
    13.0374  14.5983  15.4539  16.0598  16.3667  16.9102  17.1629  17.5828
    17.9744  18.1252  18.4417  20.1018  31.4278

     occupation numbers 
     1.0000   1.0000   1.0000   1.0000   1.0000   1.0000   1.0000   1.0000
     1.0000   1.0000   1.0000   1.0000   1.0000   1.0000   1.0000   1.0000
     1.0000   1.0000   1.0000   0.0000   0.0000

          k = 0.0000 0.2887-0.3004 (  2768 PWs)   bands (ev):

   -76.7367 -76.7367 -40.0643 -40.0643 -39.9333 -39.9333 -39.8768 -39.8768
    13.8377  13.8377  15.7488  15.7488  16.6247  16.6247  17.3592  17.3592
    18.2138  18.2138  18.8653  18.8653  34.1482

     occupation numbers 
     1.0000   1.0000   1.0000   1.0000   1.0000   1.0000   1.0000   1.0000
     1.0000   1.0000   1.0000   1.0000   1.0000   1.0000   1.0000   1.0000
     1.0000   1.0000   1.0000   1.0000   0.0000

          k = 0.0000 0.3849 0.0000 (  2762 PWs)   bands (ev):

   -76.7418 -76.7092 -40.0974 -40.0811 -40.0350 -39.9278 -39.9050 -39.8605
    13.4359  14.7778  15.0980  16.1434  16.7341  16.8014  16.8667  18.2221
    18.3197  18.3542  18.6866  25.5340  26.1141

     occupation numbers 
     1.0000   1.0000   1.0000   1.0000   1.0000   1.0000   1.0000   1.0000
     1.0000   1.0000   1.0000   1.0000   1.0000   1.0000   1.0000   1.0000
     1.0000   1.0000   1.0000   0.0000   0.0000

          k = 0.0000 0.3849 0.1001 (  2761 PWs)   bands (ev):

   -76.7397 -76.7114 -40.1193 -40.0570 -40.0356 -39.9233 -39.9065 -39.8650
    13.5233  14.7846  15.1515  15.9564  16.6945  16.8937  17.2356  18.2245
    18.2551  18.2682  18.6470  23.1858  28.5081

     occupation numbers 
     1.0000   1.0000   1.0000   1.0000   1.0000   1.0000   1.0000   1.0000
     1.0000   1.0000   1.0000   1.0000   1.0000   1.0000   1.0000   1.0000
     1.0000   1.0000   1.0000   0.0000   0.0000

          k = 0.0000 0.3849 0.2002 (  2766 PWs)   bands (ev):

   -76.7337 -76.7174 -40.1267 -40.0834 -39.9902 -39.9181 -39.9110 -39.8774
    13.7768  14.5812  15.3140  15.8133  16.8461  17.1538  17.5875  17.9302
    18.3337  18.3629  18.5552  20.9965  29.8681

     occupation numbers 
     1.0000   1.0000   1.0000   1.0000   1.0000   1.0000   1.0000   1.0000
     1.0000   1.0000   1.0000   1.0000   1.0000   1.0000   1.0000   1.0000
     1.0000   1.0000   1.0000   0.0000   0.0000

          k = 0.0000 0.3849-0.3004 (  2768 PWs)   bands (ev):

   -76.7256 -76.7256 -40.1125 -40.1125 -39.9467 -39.9467 -39.8942 -39.8942
    14.1625  14.1625  15.5915  15.5915  17.2764  17.2764  17.5294  17.5294
    18.4421  18.4421  19.3502  19.3502  30.9600

     occupation numbers 
     1.0000   1.0000   1.0000   1.0000   1.0000   1.0000   1.0000   1.0000
     1.0000   1.0000   1.0000   1.0000   1.0000   1.0000   1.0000   1.0000
     1.0000   1.0000   0.3098   0.3098   0.0000

          k = 0.0000 0.4811 0.0000 (  2776 PWs)   bands (ev):

   -76.7290 -76.7058 -40.1347 -40.0859 -40.0623 -39.9428 -39.9259 -39.8709
    14.1833  14.5751  14.7837  16.5225  16.6665  16.7085  16.9670  18.6292
    18.7013  18.7499  19.5187  24.5513  27.5907

     occupation numbers 
     1.0000   1.0000   1.0000   1.0000   1.0000   1.0000   1.0000   1.0000
     1.0000   1.0000   1.0000   1.0000   1.0000   1.0000   1.0000   1.0000
     1.0000   1.0000   0.0000   0.0000   0.0000

          k = 0.0000 0.4811 0.1001 (  2767 PWs)   bands (ev):

   -76.7274 -76.7074 -40.1499 -40.1014 -40.0334 -39.9380 -39.9239 -39.8758
    14.0608  14.5496  15.1122  15.8349  16.7779  16.9876  17.6240  18.4855
    18.6499  18.7897  19.3505  23.6475  27.1753

     occupation numbers 
     1.0000   1.0000   1.0000   1.0000   1.0000   1.0000   1.0000   1.0000
     1.0000   1.0000   1.0000   1.0000   1.0000   1.0000   1.0000   1.0000
     1.0000   1.0000   0.2973   0.0000   0.0000

          k = 0.0000 0.4811 0.2002 (  2768 PWs)   bands (ev):

   -76.7232 -76.7116 -40.1630 -40.1313 -39.9867 -39.9274 -39.9249 -39.8890
    14.0125  14.4702  15.2939  15.5902  17.0938  17.2911  18.0651  18.6390
    18.6843  18.7742  18.9942  21.8743  27.4144

     occupation numbers 
     1.0000   1.0000   1.0000   1.0000   1.0000   1.0000   1.0000   1.0000
     1.0000   1.0000   1.0000   1.0000   1.0000   1.0000   1.0000   1.0000
     1.0000   1.0000   1.0000   0.0000   0.0000

          k = 0.0000 0.4811-0.3004 (  2778 PWs)   bands (ev):

   -76.7174 -76.7174 -40.1560 -40.1560 -39.9481 -39.9481 -39.9069 -39.9069
    14.1871  14.1871  15.4523  15.4523  17.5563  17.5563  18.0318  18.0318
    18.7314  18.7314  20.2115  20.2115  28.1797

     occupation numbers 
     1.0000   1.0000   1.0000   1.0000   1.0000   1.0000   1.0000   1.0000
     1.0000   1.0000   1.0000   1.0000   1.0000   1.0000   1.0000   1.0000
     1.0000   1.0000   0.0000   0.0000   0.0000

          k = 0.0000-0.5774 0.0000 (  2754 PWs)   bands (ev):

   -76.7237 -76.7051 -40.1543 -40.1043 -40.0460 -39.9482 -39.9370 -39.8748
    14.4080  14.4502  14.6799  16.6187  16.6513  16.7984  17.0372  18.7054
    18.7770  18.9097  20.7275  22.8383  28.9286

     occupation numbers 
     1.0000   1.0000   1.0000   1.0000   1.0000   1.0000   1.0000   1.0000
     1.0000   1.0000   1.0000   1.0000   1.0000   1.0000   1.0000   1.0000
     1.0000   1.0000   0.0000   0.0000   0.0000

          k = 0.0000-0.5774 0.1001 (  2768 PWs)   bands (ev):

   -76.7224 -76.7064 -40.1664 -40.1190 -40.0232 -39.9433 -39.9329 -39.8797
    14.1494  14.4516  15.1390  15.8054  16.7357  17.0733  17.8445  18.5218
    18.8016  18.9026  20.4937  22.6311  28.1763

     occupation numbers 
     1.0000   1.0000   1.0000   1.0000   1.0000   1.0000   1.0000   1.0000
     1.0000   1.0000   1.0000   1.0000   1.0000   1.0000   1.0000   1.0000
     1.0000   1.0000   0.0000   0.0000   0.0000

          k = 0.0000-0.5774 0.2002 (  2786 PWs)   bands (ev):

   -76.7190 -76.7098 -40.1787 -40.1490 -39.9816 -39.9319 -39.9299 -39.8932
    14.0263  14.4252  15.3280  15.4820  17.0674  17.4339  18.0883  18.7671
    18.8270  18.8829  20.1093  21.9590  27.3003

     occupation numbers 
     1.0000   1.0000   1.0000   1.0000   1.0000   1.0000   1.0000   1.0000
     1.0000   1.0000   1.0000   1.0000   1.0000   1.0000   1.0000   1.0000
     1.0000   1.0000   0.0000   0.0000   0.0000

          k = 0.0000-0.5774-0.3004 (  2768 PWs)   bands (ev):

   -76.7144 -76.7144 -40.1728 -40.1728 -39.9477 -39.9477 -39.9116 -39.9116
    14.1687  14.1687  15.3995  15.3995  17.5538  17.5538  18.2755  18.2755
    18.8556  18.8556  20.8925  20.8925  26.8904

     occupation numbers 
     1.0000   1.0000   1.0000   1.0000   1.0000   1.0000   1.0000   1.0000
     1.0000   1.0000   1.0000   1.0000   1.0000   1.0000   1.0000   1.0000
     1.0000   1.0000   0.0000   0.0000   0.0000

          k = 0.0833 0.1443 0.0000 (  2769 PWs)   bands (ev):

   -76.7762 -76.7245 -40.1757 -39.9161 -39.8915 -39.8697 -39.8660 -39.8320
    10.9222  14.4372  16.2134  16.6339  16.8275  16.9260  17.0836  17.1646
    17.3574  17.4748  18.5769  21.2568  25.6234

     occupation numbers 
     1.0000   1.0000   1.0000   1.0000   1.0000   1.0000   1.0000   1.0000
     1.0000   1.0000   1.0000   1.0000   1.0000   1.0000   1.0000   1.0000
     1.0000   1.0000   1.0000   0.0000   0.0000

          k = 0.0833 0.1443 0.1001 (  2769 PWs)   bands (ev):

   -76.7727 -76.7280 -40.1571 -39.9117 -39.9072 -39.8814 -39.8587 -39.8354
    11.1796  14.3959  16.2452  16.3013  16.6576  16.9256  16.9994  17.2329
    17.5143  17.5969  18.5407  20.2962  27.2976

     occupation numbers 
     1.0000   1.0000   1.0000   1.0000   1.0000   1.0000   1.0000   1.0000
     1.0000   1.0000   1.0000   1.0000   1.0000   1.0000   1.0000   1.0000
     1.0000   1.0000   1.0000   0.0000   0.0000

          k = 0.0833 0.1443 0.2002 (  2780 PWs)   bands (ev):

   -76.7633 -76.7374 -40.1060 -39.9629 -39.8999 -39.8777 -39.8614 -39.8445
    11.9158  13.9984  15.9072  16.2836  16.3617  16.8167  16.9166  17.1012
    17.8738  17.9351  18.4145  19.1477  30.5541

     occupation numbers 
     1.0000   1.0000   1.0000   1.0000   1.0000   1.0000   1.0000   1.0000
     1.0000   1.0000   1.0000   1.0000   1.0000   1.0000   1.0000   1.0000
     1.0000   1.0000   1.0000   1.0000   0.0000

          k = 0.0833 0.1443-0.3004 (  2786 PWs)   bands (ev):

   -76.7504 -76.7504 -40.0353 -40.0353 -39.8851 -39.8851 -39.8560 -39.8560
    12.9879  12.9879  15.9662  15.9662  16.5623  16.5623  16.9694  16.9694
    18.1717  18.1717  18.4524  18.4524  34.3495

     occupation numbers 
     1.0000   1.0000   1.0000   1.0000   1.0000   1.0000   1.0000   1.0000
     1.0000   1.0000   1.0000   1.0000   1.0000   1.0000   1.0000   1.0000
     1.0000   1.0000   1.0000   1.0000   0.0000

          k = 0.0833 0.2406 0.0000 (  2765 PWs)   bands (ev):

   -76.7633 -76.7181 -40.1482 -39.9743 -39.9453 -39.8940 -39.8805 -39.8473
    11.8443  14.8456  15.8999  15.9462  16.6678  16.9125  17.2047  17.3213
    17.5404  17.8096  18.6106  22.8846  25.8515

     occupation numbers 
     1.0000   1.0000   1.0000   1.0000   1.0000   1.0000   1.0000   1.0000
     1.0000   1.0000   1.0000   1.0000   1.0000   1.0000   1.0000   1.0000
     1.0000   1.0000   1.0000   0.0000   0.0000

          k = 0.0833 0.2406 0.1001 (  2768 PWs)   bands (ev):

   -76.7603 -76.7211 -40.1355 -39.9685 -39.9564 -39.9004 -39.8783 -39.8509
    12.0734  14.8628  15.6936  15.9998  16.5617  16.8494  17.1538  17.4152
    17.7214  17.7813  18.5710  21.4832  27.8297

     occupation numbers 
     1.0000   1.0000   1.0000   1.0000   1.0000   1.0000   1.0000   1.0000
     1.0000   1.0000   1.0000   1.0000   1.0000   1.0000   1.0000   1.0000
     1.0000   1.0000   1.0000   0.0000   0.0000

          k = 0.0833 0.2406 0.2002 (  2770 PWs)   bands (ev):

   -76.7521 -76.7294 -40.1003 -39.9985 -39.9459 -39.9056 -39.8796 -39.8606
    12.7207  14.5399  15.5414  16.1159  16.2726  16.7136  17.1328  17.4474
    17.9622  18.0509  18.4481  19.8367  31.1917

     occupation numbers 
     1.0000   1.0000   1.0000   1.0000   1.0000   1.0000   1.0000   1.0000
     1.0000   1.0000   1.0000   1.0000   1.0000   1.0000   1.0000   1.0000
     1.0000   1.0000   1.0000   0.0000   0.0000

          k = 0.0833 0.2406-0.3004 (  2782 PWs)   bands (ev):

   -76.7408 -76.7408 -40.0505 -40.0505 -39.9220 -39.9220 -39.8728 -39.8728
    13.6460  13.6460  15.8191  15.8191  16.4396  16.4396  17.2754  17.2754
    18.2168  18.2168  18.7450  18.7450  34.9029

     occupation numbers 
     1.0000   1.0000   1.0000   1.0000   1.0000   1.0000   1.0000   1.0000
     1.0000   1.0000   1.0000   1.0000   1.0000   1.0000   1.0000   1.0000
     1.0000   1.0000   1.0000   1.0000   0.0000

          k = 0.0833 0.3368 0.0000 (  2763 PWs)   bands (ev):

   -76.7478 -76.7114 -40.1123 -40.0450 -40.0086 -39.9219 -39.8971 -39.8639
    13.0244  14.9672  15.3191  15.8996  16.6543  16.7038  17.0930  17.6637
    18.0819  18.4209  18.6370  24.7569  26.2254

     occupation numbers 
     1.0000   1.0000   1.0000   1.0000   1.0000   1.0000   1.0000   1.0000
     1.0000   1.0000   1.0000   1.0000   1.0000   1.0000   1.0000   1.0000
     1.0000   1.0000   1.0000   0.0000   0.0000

          k = 0.0833 0.3368 0.1001 (  2763 PWs)   bands (ev):

   -76.7454 -76.7138 -40.1152 -40.0332 -40.0135 -39.9227 -39.8970 -39.8674
    13.1792  15.0094  15.2420  15.9412  16.4679  16.9313  17.0542  17.7119
    18.1609  18.2641  18.6654  22.7629  28.6331

     occupation numbers 
     1.0000   1.0000   1.0000   1.0000   1.0000   1.0000   1.0000   1.0000
     1.0000   1.0000   1.0000   1.0000   1.0000   1.0000   1.0000   1.0000
     1.0000   1.0000   1.0000   0.0000   0.0000

          k = 0.0833 0.3368 0.2002 (  2769 PWs)   bands (ev):

   -76.7387 -76.7205 -40.1098 -40.0557 -39.9823 -39.9241 -39.8997 -39.8776
    13.6000  14.7240  15.3860  15.9686  16.4082  16.9048  17.1801  17.7794
    18.1844  18.3704  18.6455  20.6978  31.4437

     occupation numbers 
     1.0000   1.0000   1.0000   1.0000   1.0000   1.0000   1.0000   1.0000
     1.0000   1.0000   1.0000   1.0000   1.0000   1.0000   1.0000   1.0000
     1.0000   1.0000   1.0000   0.0000   0.0000

          k = 0.0833 0.3368-0.3004 (  2772 PWs)   bands (ev):

   -76.7296 -76.7296 -40.0880 -40.0880 -39.9451 -39.9451 -39.8915 -39.8915
    14.1681  14.1681  15.7167  15.7167  16.6452  16.6452  17.4643  17.4643
    18.4494  18.4494  19.2104  19.2104  32.7050

     occupation numbers 
     1.0000   1.0000   1.0000   1.0000   1.0000   1.0000   1.0000   1.0000
     1.0000   1.0000   1.0000   1.0000   1.0000   1.0000   1.0000   1.0000
     1.0000   1.0000   1.0000   1.0000   0.0000

          k = 0.0833 0.4330 0.0000 (  2767 PWs)   bands (ev):

   -76.7333 -76.7067 -40.1074 -40.0746 -40.0631 -39.9448 -39.9181 -39.8782
    14.0400  14.7709  14.9310  16.1508  16.5775  16.8556  16.8677  18.2496
    18.5402  18.6508  19.2630  25.8148  26.7902

     occupation numbers 
     1.0000   1.0000   1.0000   1.0000   1.0000   1.0000   1.0000   1.0000
     1.0000   1.0000   1.0000   1.0000   1.0000   1.0000   1.0000   1.0000
     1.0000   1.0000   1.0000   0.0000   0.0000

          k = 0.0833 0.4330 0.1001 (  2769 PWs)   bands (ev):

   -76.7315 -76.7085 -40.1285 -40.0807 -40.0366 -39.9423 -39.9164 -39.8816
    14.0168  14.7681  15.1083  15.8555  16.6561  16.9690  17.1973  18.2024
    18.4754  18.5966  19.2565  23.8946  27.7948

     occupation numbers 
     1.0000   1.0000   1.0000   1.0000   1.0000   1.0000   1.0000   1.0000
     1.0000   1.0000   1.0000   1.0000   1.0000   1.0000   1.0000   1.0000
     1.0000   1.0000   1.0000   0.0000   0.0000

          k = 0.0833 0.4330 0.2002 (  2767 PWs)   bands (ev):

   -76.7266 -76.7133 -40.1417 -40.1088 -39.9902 -39.9367 -39.9175 -39.8911
    14.0756  14.6270  15.3064  15.7621  16.7653  17.2177  17.6332  17.9550
    18.3690  18.7338  19.3093  21.7509  28.5684

     occupation numbers 
     1.0000   1.0000   1.0000   1.0000   1.0000   1.0000   1.0000   1.0000
     1.0000   1.0000   1.0000   1.0000   1.0000   1.0000   1.0000   1.0000
     1.0000   1.0000   0.9999   0.0000   0.0000

          k = 0.0833 0.4330-0.3004 (  2780 PWs)   bands (ev):

   -76.7200 -76.7200 -40.1336 -40.1336 -39.9532 -39.9532 -39.9062 -39.9062
    14.3044  14.3044  15.5744  15.5744  17.2094  17.2094  17.6251  17.6251
    18.6750  18.6750  20.0988  20.0988  29.5822

     occupation numbers 
     1.0000   1.0000   1.0000   1.0000   1.0000   1.0000   1.0000   1.0000
     1.0000   1.0000   1.0000   1.0000   1.0000   1.0000   1.0000   1.0000
     1.0000   1.0000   0.0000   0.0000   0.0000

          k = 0.0833 0.5292 0.0000 (  2764 PWs)   bands (ev):

   -76.7237 -76.7051 -40.1436 -40.0944 -40.0462 -39.9576 -39.9368 -39.8865
    14.4661  14.6032  14.7384  16.5456  16.5554  16.6728  17.0365  18.6556
    18.6819  18.7731  20.5841  23.6314  28.7349

     occupation numbers 
     1.0000   1.0000   1.0000   1.0000   1.0000   1.0000   1.0000   1.0000
     1.0000   1.0000   1.0000   1.0000   1.0000   1.0000   1.0000   1.0000
     1.0000   1.0000   0.0000   0.0000   0.0000

          k = 0.0833 0.5292 0.1001 (  2770 PWs)   bands (ev):

   -76.7225 -76.7064 -40.1559 -40.1095 -40.0242 -39.9520 -39.9335 -39.8899
    14.2392  14.5924  15.1877  15.7936  16.5998  17.1367  17.5014  18.4585
    18.6846  18.7986  20.5045  23.3180  27.6272

     occupation numbers 
     1.0000   1.0000   1.0000   1.0000   1.0000   1.0000   1.0000   1.0000
     1.0000   1.0000   1.0000   1.0000   1.0000   1.0000   1.0000   1.0000
     1.0000   1.0000   0.0000   0.0000   0.0000

          k = 0.0833 0.5292 0.2002 (  2771 PWs)   bands (ev):

   -76.7191 -76.7098 -40.1684 -40.1394 -39.9865 -39.9403 -39.9316 -39.8985
    14.1375  14.5603  15.3387  15.6027  16.7709  17.5182  17.9114  18.2237
    18.6409  18.8446  20.5155  22.3797  27.0258

     occupation numbers 
     1.0000   1.0000   1.0000   1.0000   1.0000   1.0000   1.0000   1.0000
     1.0000   1.0000   1.0000   1.0000   1.0000   1.0000   1.0000   1.0000
     1.0000   1.0000   0.0000   0.0000   0.0000

          k = 0.0833 0.5292-0.3004 (  2772 PWs)   bands (ev):

   -76.7144 -76.7144 -40.1628 -40.1628 -39.9560 -39.9560 -39.9134 -39.9134
    14.2891  14.2891  15.4805  15.4805  17.3170  17.3170  18.0756  18.0756
    18.7182  18.7182  21.2315  21.2315  27.3175

     occupation numbers 
     1.0000   1.0000   1.0000   1.0000   1.0000   1.0000   1.0000   1.0000
     1.0000   1.0000   1.0000   1.0000   1.0000   1.0000   1.0000   1.0000
     1.0000   1.0000   0.0000   0.0000   0.0000

          k = 0.1667 0.2887 0.0000 (  2762 PWs)   bands (ev):

   -76.7500 -76.7122 -40.1175 -40.0177 -40.0089 -39.9160 -39.8945 -39.8731
    12.8798  15.1808  15.4374  15.6379  16.6187  16.6688  17.2109  17.3791
    18.0662  18.4509  18.5899  24.4959  26.2554

     occupation numbers 
     1.0000   1.0000   1.0000   1.0000   1.0000   1.0000   1.0000   1.0000
     1.0000   1.0000   1.0000   1.0000   1.0000   1.0000   1.0000   1.0000
     1.0000   1.0000   1.0000   0.0000   0.0000

          k = 0.1667 0.2887 0.1001 (  2768 PWs)   bands (ev):

   -76.7475 -76.7148 -40.1152 -40.0173 -40.0037 -39.9257 -39.8890 -39.8768
    13.0577  15.2714  15.2879  15.6923  16.5507  16.6766  17.1120  17.5117
    18.1770  18.2476  18.6818  22.6266  28.5920

     occupation numbers 
     1.0000   1.0000   1.0000   1.0000   1.0000   1.0000   1.0000   1.0000
     1.0000   1.0000   1.0000   1.0000   1.0000   1.0000   1.0000   1.0000
     1.0000   1.0000   1.0000   0.0000   0.0000

          k = 0.1667 0.2887 0.2002 (  2777 PWs)   bands (ev):

   -76.7406 -76.7217 -40.1029 -40.0434 -39.9725 -39.9334 -39.8900 -39.8859
    13.5459  14.8478  15.5204  15.8457  16.3321  16.5447  17.1282  17.7120
    18.1766  18.3701  18.7239  20.6253  31.9494

     occupation numbers 
     1.0000   1.0000   1.0000   1.0000   1.0000   1.0000   1.0000   1.0000
     1.0000   1.0000   1.0000   1.0000   1.0000   1.0000   1.0000   1.0000
     1.0000   1.0000   1.0000   0.0000   0.0000

          k = 0.1667 0.2887-0.3004 (  2774 PWs)   bands (ev):

   -76.7311 -76.7311 -40.0768 -40.0768 -39.9442 -39.9442 -39.8931 -39.8931
    14.2080  14.2080  15.8343  15.8343  16.2737  16.2737  17.4072  17.4072
    18.4990  18.4990  19.1959  19.1959  34.4328

     occupation numbers 
     1.0000   1.0000   1.0000   1.0000   1.0000   1.0000   1.0000   1.0000
     1.0000   1.0000   1.0000   1.0000   1.0000   1.0000   1.0000   1.0000
     1.0000   1.0000   1.0000   1.0000   0.0000

          k = 0.1667 0.3849 0.0000 (  2775 PWs)   bands (ev):

   -76.7356 -76.7073 -40.0813 -40.0728 -40.0508 -39.9481 -39.9140 -39.8984
    14.0065  15.0849  15.1441  15.6368  16.4393  16.8139  16.9877  17.7291
    18.5286  18.5681  19.3178  26.3928  26.7530

     occupation numbers 
     1.0000   1.0000   1.0000   1.0000   1.0000   1.0000   1.0000   1.0000
     1.0000   1.0000   1.0000   1.0000   1.0000   1.0000   1.0000   1.0000
     1.0000   1.0000   0.9980   0.0000   0.0000

          k = 0.1667 0.3849 0.1001 (  2769 PWs)   bands (ev):

   -76.7337 -76.7092 -40.1070 -40.0687 -40.0259 -39.9552 -39.9101 -39.8986
    14.0705  15.0201  15.2342  15.7137  16.4651  16.8251  16.9522  17.7864
    18.3692  18.6134  19.3885  23.9564  29.1727

     occupation numbers 
     1.0000   1.0000   1.0000   1.0000   1.0000   1.0000   1.0000   1.0000
     1.0000   1.0000   1.0000   1.0000   1.0000   1.0000   1.0000   1.0000
     1.0000   1.0000   0.0000   0.0000   0.0000

          k = 0.1667 0.3849 0.2002 (  2774 PWs)   bands (ev):

   -76.7286 -76.7144 -40.1194 -40.0893 -39.9861 -39.9578 -39.9136 -39.8991
    14.2535  14.8146  15.4743  15.9206  16.3692  16.6878  17.1029  17.8084
    18.2854  18.7564  19.5559  21.7775  30.3215

     occupation numbers 
     1.0000   1.0000   1.0000   1.0000   1.0000   1.0000   1.0000   1.0000
     1.0000   1.0000   1.0000   1.0000   1.0000   1.0000   1.0000   1.0000
     1.0000   1.0000   0.0000   0.0000   0.0000

          k = 0.1667 0.3849-0.3004 (  2770 PWs)   bands (ev):

   -76.7215 -76.7215 -40.1113 -40.1113 -39.9622 -39.9622 -39.9091 -39.9091
    14.5244  14.5244  15.8039  15.8039  16.4705  16.4705  17.3940  17.3940
    18.7193  18.7193  20.2130  20.2130  31.4381

     occupation numbers 
     1.0000   1.0000   1.0000   1.0000   1.0000   1.0000   1.0000   1.0000
     1.0000   1.0000   1.0000   1.0000   1.0000   1.0000   1.0000   1.0000
     1.0000   1.0000   0.0000   0.0000   0.0000

          k = 0.1667 0.4811 0.0000 (  2770 PWs)   bands (ev):

   -76.7238 -76.7050 -40.1157 -40.0742 -40.0467 -39.9771 -39.9364 -39.9158
    14.6945  14.8719  14.9241  15.9799  16.3969  16.7354  17.0305  18.1990
    18.5524  18.7399  20.5535  25.3376  28.4499

     occupation numbers 
     1.0000   1.0000   1.0000   1.0000   1.0000   1.0000   1.0000   1.0000
     1.0000   1.0000   1.0000   1.0000   1.0000   1.0000   1.0000   1.0000
     1.0000   1.0000   0.0000   0.0000   0.0000

          k = 0.1667 0.4811 0.1001 (  2769 PWs)   bands (ev):

   -76.7225 -76.7063 -40.1285 -40.0917 -40.0238 -39.9743 -39.9354 -39.9120
    14.5028  14.9660  15.1761  15.7526  16.4484  16.8869  17.1438  18.1916
    18.3671  18.7976  20.6263  24.6560  27.5192

     occupation numbers 
     1.0000   1.0000   1.0000   1.0000   1.0000   1.0000   1.0000   1.0000
     1.0000   1.0000   1.0000   1.0000   1.0000   1.0000   1.0000   1.0000
     1.0000   1.0000   0.0000   0.0000   0.0000

          k = 0.1667 0.4811 0.2002 (  2769 PWs)   bands (ev):

   -76.7191 -76.7097 -40.1427 -40.1187 -39.9983 -39.9651 -39.9337 -39.9070
    14.4445  14.8768  15.3668  15.8892  16.3478  17.0384  17.4092  17.8823
    18.3912  18.8658  20.9144  23.0706  27.6982

     occupation numbers 
     1.0000   1.0000   1.0000   1.0000   1.0000   1.0000   1.0000   1.0000
     1.0000   1.0000   1.0000   1.0000   1.0000   1.0000   1.0000   1.0000
     1.0000   1.0000   0.0000   0.0000   0.0000

          k = 0.1667 0.4811-0.3004 (  2772 PWs)   bands (ev):

   -76.7144 -76.7144 -40.1393 -40.1393 -39.9777 -39.9777 -39.9157 -39.9157
    14.5936  14.5936  15.6883  15.6883  16.7572  16.7572  17.5805  17.5805
    18.7215  18.7215  21.6876  21.6876  28.5609

     occupation numbers 
     1.0000   1.0000   1.0000   1.0000   1.0000   1.0000   1.0000   1.0000
     1.0000   1.0000   1.0000   1.0000   1.0000   1.0000   1.0000   1.0000
     1.0000   1.0000   0.0000   0.0000   0.0000

          k = 0.1667 0.5774 0.0000 (  2778 PWs)   bands (ev):

   -76.7186 -76.7050 -40.1313 -40.0820 -40.0292 -39.9887 -39.9493 -39.9220
    14.8013  14.8134  14.8631  16.2196  16.4472  16.5772  17.1233  18.5219
    18.5465  18.6926  21.8465  23.5012  29.9090

     occupation numbers 
     1.0000   1.0000   1.0000   1.0000   1.0000   1.0000   1.0000   1.0000
     1.0000   1.0000   1.0000   1.0000   1.0000   1.0000   1.0000   1.0000
     1.0000   1.0000   0.0000   0.0000   0.0000

          k = 0.1667 0.5774 0.1001 (  2767 PWs)   bands (ev):

   -76.7177 -76.7059 -40.1413 -40.0979 -40.0221 -39.9726 -39.9509 -39.9176
    14.5140  14.8807  15.3428  15.7316  16.3660  17.0184  17.2436  18.3411
    18.5195  18.7366  21.9257  23.4289  28.7430

     occupation numbers 
     1.0000   1.0000   1.0000   1.0000   1.0000   1.0000   1.0000   1.0000
     1.0000   1.0000   1.0000   1.0000   1.0000   1.0000   1.0000   1.0000
     1.0000   1.0000   0.0000   0.0000   0.0000

          k = 0.1667 0.5774 0.2002 (  2769 PWs)   bands (ev):

   -76.7152 -76.7084 -40.1536 -40.1280 -40.0054 -39.9635 -39.9410 -39.9105
    14.4366  14.8864  15.4096  15.8352  16.2650  17.2403  17.5488  17.9524
    18.5388  18.7726  22.1928  23.1660  27.5412

     occupation numbers 
     1.0000   1.0000   1.0000   1.0000   1.0000   1.0000   1.0000   1.0000
     1.0000   1.0000   1.0000   1.0000   1.0000   1.0000   1.0000   1.0000
     1.0000   1.0000   0.0000   0.0000   0.0000

          k = 0.1667 0.5774-0.3004 (  2766 PWs)   bands (ev):

   -76.7118 -76.7118 -40.1499 -40.1499 -39.9840 -39.9840 -39.9170 -39.9170
    14.5957  14.5957  15.6459  15.6459  16.7944  16.7944  17.7999  17.7999
    18.6551  18.6551  22.6795  22.6795  27.0946

     occupation numbers 
     1.0000   1.0000   1.0000   1.0000   1.0000   1.0000   1.0000   1.0000
     1.0000   1.0000   1.0000   1.0000   1.0000   1.0000   1.0000   1.0000
     1.0000   1.0000   0.0000   0.0000   0.0000

          k = 0.2500 0.4330 0.0000 (  2760 PWs)   bands (ev):

   -76.7238 -76.7050 -40.0918 -40.0711 -40.0469 -39.9826 -39.9376 -39.9361
    14.8610  14.9503  15.3782  15.3814  16.3053  16.7696  17.0391  17.9224
    18.4986  18.7377  20.5771  27.0433  28.0241

     occupation numbers 
     1.0000   1.0000   1.0000   1.0000   1.0000   1.0000   1.0000   1.0000
     1.0000   1.0000   1.0000   1.0000   1.0000   1.0000   1.0000   1.0000
     1.0000   1.0000   0.0000   0.0000   0.0000

          k = 0.2500 0.4330 0.1001 (  2770 PWs)   bands (ev):

   -76.7225 -76.7063 -40.1005 -40.0963 -40.0124 -39.9951 -39.9397 -39.9221
    14.8486  14.9017  15.3887  15.5516  16.4575  16.6107  17.0571  17.9803
    18.3032  18.8020  20.6912  25.3593  28.2951

     occupation numbers 
     1.0000   1.0000   1.0000   1.0000   1.0000   1.0000   1.0000   1.0000
     1.0000   1.0000   1.0000   1.0000   1.0000   1.0000   1.0000   1.0000
     1.0000   1.0000   0.0000   0.0000   0.0000

          k = 0.2500 0.4330 0.2002 (  2773 PWs)   bands (ev):

   -76.7191 -76.7097 -40.1227 -40.1107 -40.0009 -39.9865 -39.9350 -39.9100
    14.8110  14.8422  15.5529  15.9232  16.2759  16.5631  17.1251  17.7779
    18.3538  18.8748  21.0455  23.3450  29.0460

     occupation numbers 
     1.0000   1.0000   1.0000   1.0000   1.0000   1.0000   1.0000   1.0000
     1.0000   1.0000   1.0000   1.0000   1.0000   1.0000   1.0000   1.0000
     1.0000   1.0000   0.0000   0.0000   0.0000

          k = 0.2500 0.4330-0.3004 (  2768 PWs)   bands (ev):

   -76.7144 -76.7144 -40.1245 -40.1245 -39.9920 -39.9920 -39.9164 -39.9164
    14.8064  14.8064  15.8686  15.8686  16.3538  16.3538  17.3523  17.3523
    18.7420  18.7420  21.8573  21.8573  30.0353

     occupation numbers 
     1.0000   1.0000   1.0000   1.0000   1.0000   1.0000   1.0000   1.0000
     1.0000   1.0000   1.0000   1.0000   1.0000   1.0000   1.0000   1.0000
     1.0000   1.0000   0.0000   0.0000   0.0000

          k = 0.2500 0.5292 0.0000 (  2781 PWs)   bands (ev):

   -76.7152 -76.7055 -40.1050 -40.0629 -40.0173 -40.0165 -39.9633 -39.9595
    14.8954  15.1409  15.2198  15.7455  16.3207  16.5374  17.2157  18.2355
    18.4581  18.6420  22.2966  24.9510  27.3506

     occupation numbers 
     1.0000   1.0000   1.0000   1.0000   1.0000   1.0000   1.0000   1.0000
     1.0000   1.0000   1.0000   1.0000   1.0000   1.0000   1.0000   1.0000
     1.0000   1.0000   0.0000   0.0000   0.0000

          k = 0.2500 0.5292 0.1001 (  2778 PWs)   bands (ev):

   -76.7145 -76.7061 -40.1111 -40.0832 -40.0352 -39.9891 -39.9672 -39.9383
    14.8417  15.2498  15.3399  15.6231  16.3402  16.5520  17.2422  18.2280
    18.2951  18.6902  22.4721  24.9343  27.3250

     occupation numbers 
     1.0000   1.0000   1.0000   1.0000   1.0000   1.0000   1.0000   1.0000
     1.0000   1.0000   1.0000   1.0000   1.0000   1.0000   1.0000   1.0000
     1.0000   1.0000   0.0000   0.0000   0.0000

          k = 0.2500 0.5292 0.2002 (  2760 PWs)   bands (ev):

   -76.7127 -76.7079 -40.1249 -40.1103 -40.0347 -39.9973 -39.9384 -39.9183
    14.8510  15.2174  15.4817  15.8155  16.1778  16.5862  17.3191  17.7886
    18.4425  18.7405  22.9441  24.5468  27.2001

     occupation numbers 
     1.0000   1.0000   1.0000   1.0000   1.0000   1.0000   1.0000   1.0000
     1.0000   1.0000   1.0000   1.0000   1.0000   1.0000   1.0000   1.0000
     1.0000   1.0000   0.0000   0.0000   0.0000

          k = 0.2500 0.5292-0.3004 (  2752 PWs)   bands (ev):

   -76.7103 -76.7103 -40.1268 -40.1268 -40.0175 -40.0175 -39.9174 -39.9174
    14.9862  14.9862  15.7716  15.7716  16.3544  16.3544  17.4594  17.4594
    18.6506  18.6506  23.6873  23.6873  27.7424

     occupation numbers 
     1.0000   1.0000   1.0000   1.0000   1.0000   1.0000   1.0000   1.0000
     1.0000   1.0000   1.0000   1.0000   1.0000   1.0000   1.0000   1.0000
     1.0000   1.0000   0.0000   0.0000   0.0000

          k = 0.3333 0.5774 0.0000 (  2802 PWs)   bands (ev):

   -76.7088 -76.7088 -40.0901 -40.0438 -40.0438 -39.9949 -39.9867 -39.9867
    14.9210  15.3530  15.3530  15.5948  16.3712  16.3712  17.3185  18.3976
    18.3976  18.4205  24.0761  24.9758  24.9758

     occupation numbers 
     1.0000   1.0000   1.0000   1.0000   1.0000   1.0000   1.0000   1.0000
     1.0000   1.0000   1.0000   1.0000   1.0000   1.0000   1.0000   1.0000
     1.0000   1.0000   0.0000   0.0000   0.0000

          k = 0.3333 0.5774 0.1001 (  2790 PWs)   bands (ev):

   -76.7088 -76.7088 -40.0838 -40.0699 -40.0699 -40.0013 -39.9605 -39.9605
    15.0143  15.3614  15.3614  15.6090  16.3498  16.3498  17.2965  18.2006
    18.4508  18.4508  24.4604  25.0321  25.0321

     occupation numbers 
     1.0000   1.0000   1.0000   1.0000   1.0000   1.0000   1.0000   1.0000
     1.0000   1.0000   1.0000   1.0000   1.0000   1.0000   1.0000   1.0000
     1.0000   1.0000   0.0000   0.0000   0.0000

          k = 0.3333 0.5774 0.2002 (  2751 PWs)   bands (ev):

   -76.7088 -76.7088 -40.1007 -40.1007 -40.0664 -40.0188 -39.9293 -39.9293
    15.2520  15.3757  15.3757  15.6115  16.3140  16.3140  17.2750  17.7426
    18.5541  18.5541  25.1703  25.1703  25.4568

     occupation numbers 
     1.0000   1.0000   1.0000   1.0000   1.0000   1.0000   1.0000   1.0000
     1.0000   1.0000   1.0000   1.0000   1.0000   1.0000   1.0000   1.0000
     1.0000   1.0000   0.0000   0.0000   0.0000

          k = 0.3333 0.5774-0.3004 (  2742 PWs)   bands (ev):

   -76.7088 -76.7088 -40.1125 -40.1125 -40.0426 -40.0426 -39.9174 -39.9174
    15.3815  15.3815  15.5002  15.5002  16.2995  16.2995  17.3864  17.3864
    18.6045  18.6045  25.2577  25.2577  26.8400

     occupation numbers 
     1.0000   1.0000   1.0000   1.0000   1.0000   1.0000   1.0000   1.0000
     1.0000   1.0000   1.0000   1.0000   1.0000   1.0000   1.0000   1.0000
     1.0000   1.0000   0.0000   0.0000   0.0000

 ------ SPIN DOWN ----------


          k = 0.0000 0.0000 0.0000 (  2779 PWs)   bands (ev):

   -74.7027 -74.6416 -38.1692 -37.8400 -37.8400 -37.8021 -37.7922 -37.7922
    10.1898  14.9133  18.1418  18.3654  18.3654  18.7124  18.7124  18.7308
    19.3176  19.3176  20.4792  20.4792  26.5689

     occupation numbers 
     1.0000   1.0000   1.0000   1.0000   1.0000   1.0000   1.0000   1.0000
     1.0000   1.0000   1.0000   1.0000   1.0000   1.0000   1.0000   1.0000
     0.9981   0.9981   0.0000   0.0000   0.0000

          k = 0.0000 0.0000 0.1001 (  2780 PWs)   bands (ev):

   -74.6986 -74.6457 -38.1450 -37.8368 -37.8368 -37.8271 -37.7954 -37.7954
    10.4633  14.6664  18.0540  18.2018  18.3181  18.3181  18.6404  18.6404
    19.4704  19.4704  20.4561  20.4561  27.8269

     occupation numbers 
     1.0000   1.0000   1.0000   1.0000   1.0000   1.0000   1.0000   1.0000
     1.0000   1.0000   1.0000   1.0000   1.0000   1.0000   1.0000   1.0000
     0.0000   0.0000   0.0000   0.0000   0.0000

          k = 0.0000 0.0000 0.2002 (  2798 PWs)   bands (ev):

   -74.6875 -74.6569 -38.0785 -37.8950 -37.8280 -37.8280 -37.8042 -37.8042
[...]
    20.6399  20.6717  21.9123  24.5284  29.2616

     occupation numbers 
     1.0000   1.0000   1.0000   1.0000   1.0000   1.0000   1.0000   1.0000
     1.0000   1.0000   1.0000   1.0000   1.0000   1.0000   1.0000   0.0000
     0.0000   0.0000   0.0000   0.0000   0.0000

          k = 0.0833 0.5292 0.1001 (  2770 PWs)   bands (ev):

   -74.6330 -74.6157 -38.1544 -38.1049 -37.9831 -37.9338 -37.8851 -37.8647
    15.1953  15.7645  16.3439  16.9554  18.2366  18.6988  18.7170  20.3983
    20.5652  20.7050  21.7700  24.1462  28.3666

     occupation numbers 
     1.0000   1.0000   1.0000   1.0000   1.0000   1.0000   1.0000   1.0000
     1.0000   1.0000   1.0000   1.0000   1.0000   1.0000   1.0000   0.0000
     0.0000   0.0000   0.0000   0.0000   0.0000

          k = 0.0833 0.5292 0.2002 (  2771 PWs)   bands (ev):

   -74.6294 -74.6194 -38.1652 -38.1346 -37.9493 -37.9120 -37.8970 -37.8675
    15.1489  15.6139  16.6475  16.9364  18.2745  19.0713  19.2552  19.9478
    20.5205  20.7678  21.5546  23.1513  27.9306

     occupation numbers 
     1.0000   1.0000   1.0000   1.0000   1.0000   1.0000   1.0000   1.0000
     1.0000   1.0000   1.0000   1.0000   1.0000   1.0000   1.0000   0.0000
     0.0000   0.0000   0.0000   0.0000   0.0000

          k = 0.0833 0.5292-0.3004 (  2772 PWs)   bands (ev):

   -74.6244 -74.6244 -38.1588 -38.1588 -37.9211 -37.9211 -37.8827 -37.8827
    15.3172  15.3172  16.8744  16.8744  18.8004  18.8004  19.6057  19.6057
    20.6143  20.6143  22.0776  22.0776  28.2022

     occupation numbers 
     1.0000   1.0000   1.0000   1.0000   1.0000   1.0000   1.0000   1.0000
     1.0000   1.0000   1.0000   1.0000   1.0000   1.0000   0.0000   0.0000
     0.0000   0.0000   0.0000   0.0000   0.0000

          k = 0.1667 0.2887 0.0000 (  2762 PWs)   bands (ev):

   -74.6626 -74.6220 -38.0805 -38.0069 -37.9982 -37.8962 -37.8500 -37.8374
    12.9634  16.3495  16.5774  17.0231  18.2132  18.2937  18.9008  19.1055
    19.8516  20.2137  20.5641  25.3192  27.0273

     occupation numbers 
     1.0000   1.0000   1.0000   1.0000   1.0000   1.0000   1.0000   1.0000
     1.0000   1.0000   1.0000   1.0000   1.0000   1.0000   1.0000   1.0000
     0.0000   0.0000   0.0000   0.0000   0.0000

          k = 0.1667 0.2887 0.1001 (  2768 PWs)   bands (ev):

   -74.6599 -74.6248 -38.0833 -38.0051 -37.9864 -37.9009 -37.8539 -37.8396
    13.1685  16.2084  16.5472  17.0901  18.1538  18.2349  18.8077  19.2611
    19.9766  20.0739  20.5819  23.6731  29.2097

     occupation numbers 
     1.0000   1.0000   1.0000   1.0000   1.0000   1.0000   1.0000   1.0000
     1.0000   1.0000   1.0000   1.0000   1.0000   1.0000   1.0000   1.0000
     0.0000   0.0000   0.0000   0.0000   0.0000

          k = 0.1667 0.2887 0.2002 (  2777 PWs)   bands (ev):

   -74.6525 -74.6322 -38.0778 -38.0272 -37.9451 -37.9046 -37.8634 -37.8517
    13.7499  15.5115  16.8164  17.2614  17.8367  18.0828  18.8651  19.4582
    20.0231  20.1989  20.5453  21.9647  32.4463

     occupation numbers 
     1.0000   1.0000   1.0000   1.0000   1.0000   1.0000   1.0000   1.0000
     1.0000   1.0000   1.0000   1.0000   1.0000   1.0000   1.0000   0.0000
     0.0000   0.0000   0.0000   0.0000   0.0000

          k = 0.1667 0.2887-0.3004 (  2774 PWs)   bands (ev):

   -74.6423 -74.6423 -38.0564 -38.0564 -37.9112 -37.9112 -37.8673 -37.8673
    14.5977  14.5977  17.1937  17.1937  17.7796  17.7796  19.1721  19.1721
    20.3819  20.3819  20.7695  20.7695  34.8627

     occupation numbers 
     1.0000   1.0000   1.0000   1.0000   1.0000   1.0000   1.0000   1.0000
     1.0000   1.0000   1.0000   1.0000   1.0000   1.0000   1.0000   1.0000
     0.0000   0.0000   0.0000   0.0000   0.0000

          k = 0.1667 0.3849 0.0000 (  2775 PWs)   bands (ev):

   -74.6472 -74.6167 -38.0673 -38.0432 -38.0408 -37.9312 -37.8773 -37.8585
    14.2481  16.2962  16.4081  16.8614  18.0646  18.3465  18.6316  19.4885
    20.3775  20.5391  21.0023  27.1208  27.3788

     occupation numbers 
     1.0000   1.0000   1.0000   1.0000   1.0000   1.0000   1.0000   1.0000
     1.0000   1.0000   1.0000   1.0000   1.0000   1.0000   1.0000   0.0000
     0.0000   0.0000   0.0000   0.0000   0.0000

          k = 0.1667 0.3849 0.1001 (  2769 PWs)   bands (ev):

   -74.6452 -74.6188 -38.0895 -38.0595 -37.9972 -37.9344 -37.8825 -37.8550
    14.3843  16.1580  16.5068  16.9626  17.9990  18.3474  18.5916  19.5634
    20.2887  20.4793  21.0902  24.7988  29.7826

     occupation numbers 
     1.0000   1.0000   1.0000   1.0000   1.0000   1.0000   1.0000   1.0000
     1.0000   1.0000   1.0000   1.0000   1.0000   1.0000   1.0000   0.0000
     0.0000   0.0000   0.0000   0.0000   0.0000

          k = 0.1667 0.3849 0.2002 (  2774 PWs)   bands (ev):

   -74.6396 -74.6244 -38.1049 -38.0792 -37.9538 -37.9323 -37.8897 -37.8583
    14.7583  15.7864  16.7800  17.1659  17.8278  18.1003  18.7827  19.6175
    20.1246  20.6604  21.1704  22.8225  30.9239

     occupation numbers 
     1.0000   1.0000   1.0000   1.0000   1.0000   1.0000   1.0000   1.0000
     1.0000   1.0000   1.0000   1.0000   1.0000   1.0000   1.0000   0.0000
     0.0000   0.0000   0.0000   0.0000   0.0000

          k = 0.1667 0.3849-0.3004 (  2770 PWs)   bands (ev):

   -74.6320 -74.6320 -38.0992 -38.0992 -37.9333 -37.9333 -37.8766 -37.8766
    15.2725  15.2725  17.1192  17.1192  17.8221  17.8221  19.1632  19.1632
    20.6313  20.6313  21.5101  21.5101  32.0001

     occupation numbers 
     1.0000   1.0000   1.0000   1.0000   1.0000   1.0000   1.0000   1.0000
     1.0000   1.0000   1.0000   1.0000   1.0000   1.0000   1.0000   1.0000
     0.0000   0.0000   0.0000   0.0000   0.0000

          k = 0.1667 0.4811 0.0000 (  2770 PWs)   bands (ev):

   -74.6345 -74.6143 -38.1140 -38.0685 -38.0029 -37.9626 -37.8961 -37.8828
    15.3469  16.1389  16.1607  16.9572  17.9940  18.3293  18.5953  20.0030
    20.5208  20.6272  21.9800  26.0685  29.0643

     occupation numbers 
     1.0000   1.0000   1.0000   1.0000   1.0000   1.0000   1.0000   1.0000
     1.0000   1.0000   1.0000   1.0000   1.0000   1.0000   1.0000   0.0000
     0.0000   0.0000   0.0000   0.0000   0.0000

          k = 0.1667 0.4811 0.1001 (  2769 PWs)   bands (ev):

   -74.6331 -74.6157 -38.1237 -38.0841 -37.9887 -37.9526 -37.9056 -37.8722
    15.3374  16.0954  16.3408  16.9625  18.0012  18.2868  18.7213  20.0114
    20.2910  20.7007  22.0233  25.3471  28.2912

     occupation numbers 
     1.0000   1.0000   1.0000   1.0000   1.0000   1.0000   1.0000   1.0000
     1.0000   1.0000   1.0000   1.0000   1.0000   1.0000   1.0000   0.0000
     0.0000   0.0000   0.0000   0.0000   0.0000

          k = 0.1667 0.4811 0.2002 (  2769 PWs)   bands (ev):

   -74.6294 -74.6194 -38.1358 -38.1112 -37.9727 -37.9369 -37.9042 -37.8657
    15.4033  15.8990  16.6650  17.1869  17.8186  18.2848  18.9935  19.7190
    20.2463  20.7943  22.1653  23.8542  28.5001

     occupation numbers 
     1.0000   1.0000   1.0000   1.0000   1.0000   1.0000   1.0000   1.0000
     1.0000   1.0000   1.0000   1.0000   1.0000   1.0000   1.0000   0.0000
     0.0000   0.0000   0.0000   0.0000   0.0000

          k = 0.1667 0.4811-0.3004 (  2772 PWs)   bands (ev):

   -74.6244 -74.6244 -38.1320 -38.1320 -37.9536 -37.9536 -37.8776 -37.8776
    15.6091  15.6091  17.0569  17.0569  18.0284  18.0284  19.2859  19.2859
    20.6210  20.6210  22.6835  22.6835  29.2975

     occupation numbers 
     1.0000   1.0000   1.0000   1.0000   1.0000   1.0000   1.0000   1.0000
     1.0000   1.0000   1.0000   1.0000   1.0000   1.0000   1.0000   1.0000
     0.0000   0.0000   0.0000   0.0000   0.0000

          k = 0.1667 0.5774 0.0000 (  2778 PWs)   bands (ev):

   -74.6289 -74.6143 -38.1310 -38.0769 -37.9839 -37.9752 -37.9028 -37.8969
    15.7887  16.0126  16.0897  17.0570  18.0870  18.0983  18.7055  20.3687
    20.5139  20.5800  22.9298  24.4972  30.4034

     occupation numbers 
     1.0000   1.0000   1.0000   1.0000   1.0000   1.0000   1.0000   1.0000
     1.0000   1.0000   1.0000   1.0000   1.0000   1.0000   1.0000   0.0000
     0.0000   0.0000   0.0000   0.0000   0.0000

          k = 0.1667 0.5774 0.1001 (  2767 PWs)   bands (ev):

   -74.6279 -74.6153 -38.1388 -38.0918 -37.9918 -37.9450 -37.9179 -37.8811
    15.5952  16.0551  16.5007  16.8292  17.9631  18.3208  18.8378  20.2681
    20.3707  20.6365  22.9470  24.3802  29.3600

     occupation numbers 
     1.0000   1.0000   1.0000   1.0000   1.0000   1.0000   1.0000   1.0000
     1.0000   1.0000   1.0000   1.0000   1.0000   1.0000   1.0000   0.0000
     0.0000   0.0000   0.0000   0.0000   0.0000

          k = 0.1667 0.5774 0.2002 (  2769 PWs)   bands (ev):

   -74.6253 -74.6179 -38.1489 -38.1215 -37.9822 -37.9383 -37.9052 -37.8698
    15.5327  15.9614  16.7446  17.0946  17.7316  18.4703  19.1495  19.7830
    20.4085  20.6880  23.0557  24.0059  28.3357

     occupation numbers 
     1.0000   1.0000   1.0000   1.0000   1.0000   1.0000   1.0000   1.0000
     1.0000   1.0000   1.0000   1.0000   1.0000   1.0000   1.0000   0.0000
     0.0000   0.0000   0.0000   0.0000   0.0000

          k = 0.1667 0.5774-0.3004 (  2766 PWs)   bands (ev):

   -74.6216 -74.6216 -38.1441 -38.1441 -37.9616 -37.9616 -37.8772 -37.8772
    15.6854  15.6854  17.0432  17.0432  18.0906  18.0906  19.4556  19.4556
    20.5542  20.5542  23.4541  23.4541  27.9895

     occupation numbers 
     1.0000   1.0000   1.0000   1.0000   1.0000   1.0000   1.0000   1.0000
     1.0000   1.0000   1.0000   1.0000   1.0000   1.0000   0.0000   0.0000
     0.0000   0.0000   0.0000   0.0000   0.0000

          k = 0.2500 0.4330 0.0000 (  2760 PWs)   bands (ev):

   -74.6345 -74.6143 -38.0880 -38.0650 -38.0032 -37.9687 -37.9198 -37.8825
    15.3818  16.2249  16.5281  16.5984  17.8895  18.3610  18.6007  19.7150
    20.4596  20.6215  22.0341  27.6057  28.6347

     occupation numbers 
     1.0000   1.0000   1.0000   1.0000   1.0000   1.0000   1.0000   1.0000
     1.0000   1.0000   1.0000   1.0000   1.0000   1.0000   1.0000   0.0000
     0.0000   0.0000   0.0000   0.0000   0.0000

          k = 0.2500 0.4330 0.1001 (  2770 PWs)   bands (ev):

   -74.6331 -74.6156 -38.0915 -38.0879 -37.9777 -37.9761 -37.9207 -37.8733
    15.4459  16.1416  16.5937  16.7782  17.9252  18.1603  18.6382  19.7865
    20.2221  20.7052  22.1281  26.0313  28.9110

     occupation numbers 
     1.0000   1.0000   1.0000   1.0000   1.0000   1.0000   1.0000   1.0000
     1.0000   1.0000   1.0000   1.0000   1.0000   1.0000   1.0000   0.0000
     0.0000   0.0000   0.0000   0.0000   0.0000

          k = 0.2500 0.4330 0.2002 (  2773 PWs)   bands (ev):

   -74.6294 -74.6193 -38.1110 -38.1033 -37.9827 -37.9603 -37.9043 -37.8654
    15.6106  15.9988  16.8105  17.1232  17.7577  17.8844  18.7654  19.6063
    20.2006  20.8050  22.3553  24.1707  29.6631

     occupation numbers 
     1.0000   1.0000   1.0000   1.0000   1.0000   1.0000   1.0000   1.0000
     1.0000   1.0000   1.0000   1.0000   1.0000   1.0000   1.0000   0.0000
     0.0000   0.0000   0.0000   0.0000   0.0000

          k = 0.2500 0.4330-0.3004 (  2768 PWs)   bands (ev):

   -74.6244 -74.6244 -38.1147 -38.1147 -37.9724 -37.9724 -37.8762 -37.8762
    15.8148  15.8148  17.1487  17.1487  17.6606  17.6606  19.0936  19.0936
    20.6468  20.6468  22.9094  22.9094  30.6421

     occupation numbers 
     1.0000   1.0000   1.0000   1.0000   1.0000   1.0000   1.0000   1.0000
     1.0000   1.0000   1.0000   1.0000   1.0000   1.0000   1.0000   1.0000
     0.0000   0.0000   0.0000   0.0000   0.0000

          k = 0.2500 0.5292 0.0000 (  2781 PWs)   bands (ev):

   -74.6252 -74.6148 -38.1022 -38.0561 -38.0065 -37.9699 -37.9477 -37.9079
    16.0829  16.2175  16.3751  16.7067  17.8850  18.0808  18.8089  20.0603
    20.4132  20.5187  23.3947  25.7456  27.9288

     occupation numbers 
     1.0000   1.0000   1.0000   1.0000   1.0000   1.0000   1.0000   1.0000
     1.0000   1.0000   1.0000   1.0000   1.0000   1.0000   1.0000   0.0000
     0.0000   0.0000   0.0000   0.0000   0.0000

          k = 0.2500 0.5292 0.1001 (  2778 PWs)   bands (ev):

   -74.6245 -74.6155 -38.1061 -38.0736 -38.0192 -37.9624 -37.9364 -37.8924
    15.9990  16.3714  16.4539  16.7590  17.8515  17.9759  18.8434  20.0992
    20.1749  20.5819  23.5469  25.6887  27.9382

     occupation numbers 
     1.0000   1.0000   1.0000   1.0000   1.0000   1.0000   1.0000   1.0000
     1.0000   1.0000   1.0000   1.0000   1.0000   1.0000   1.0000   0.0000
     0.0000   0.0000   0.0000   0.0000   0.0000

          k = 0.2500 0.5292 0.2002 (  2760 PWs)   bands (ev):

   -74.6226 -74.6174 -38.1163 -38.1005 -38.0203 -37.9804 -37.8982 -37.8738
    16.0091  16.3077  16.7348  17.0975  17.5648  17.8475  18.9501  19.6188
    20.3105  20.6499  23.9153  25.2489  27.9550

     occupation numbers 
     1.0000   1.0000   1.0000   1.0000   1.0000   1.0000   1.0000   1.0000
     1.0000   1.0000   1.0000   1.0000   1.0000   1.0000   1.0000   0.0000
     0.0000   0.0000   0.0000   0.0000   0.0000

          k = 0.2500 0.5292-0.3004 (  2752 PWs)   bands (ev):

   -74.6200 -74.6200 -38.1172 -38.1172 -38.0030 -38.0030 -37.8745 -37.8745
    16.1351  16.1351  17.1262  17.1262  17.5640  17.5640  19.1788  19.1788
    20.5485  20.5485  24.4971  24.4971  28.4957

     occupation numbers 
     1.0000   1.0000   1.0000   1.0000   1.0000   1.0000   1.0000   1.0000
     1.0000   1.0000   1.0000   1.0000   1.0000   1.0000   1.0000   1.0000
     0.0000   0.0000   0.0000   0.0000   0.0000

          k = 0.3333 0.5774 0.0000 (  2802 PWs)   bands (ev):

   -74.6184 -74.6184 -38.0859 -38.0355 -38.0355 -37.9819 -37.9375 -37.9375
    16.2719  16.4295  16.4295  16.5906  17.9049  17.9049  18.9207  20.2468
    20.2468  20.3705  24.8974  25.7670  25.7670

     occupation numbers 
     1.0000   1.0000   1.0000   1.0000   1.0000   1.0000   1.0000   1.0000
     1.0000   1.0000   1.0000   1.0000   1.0000   1.0000   1.0000   0.0000
     0.0000   0.0000   0.0000   0.0000   0.0000

          k = 0.3333 0.5774 0.1001 (  2790 PWs)   bands (ev):

   -74.6184 -74.6184 -38.0789 -38.0570 -38.0570 -37.9889 -37.9158 -37.9158
    16.3445  16.4931  16.4931  16.6185  17.8151  17.8151  18.9084  20.1089
    20.3135  20.3135  25.2968  25.7997  25.7997

     occupation numbers 
     1.0000   1.0000   1.0000   1.0000   1.0000   1.0000   1.0000   1.0000
     1.0000   1.0000   1.0000   1.0000   1.0000   1.0000   1.0000   0.0000
     0.0000   0.0000   0.0000   0.0000   0.0000

          k = 0.3333 0.5774 0.2002 (  2751 PWs)   bands (ev):

   -74.6184 -74.6184 -38.0871 -38.0871 -38.0600 -38.0080 -37.8854 -37.8854
    16.5136  16.6448  16.6448  16.6683  17.6204  17.6204  18.9293  19.5733
    20.4390  20.4390  25.8802  25.8802  26.2850

     occupation numbers 
     1.0000   1.0000   1.0000   1.0000   1.0000   1.0000   1.0000   1.0000
     1.0000   1.0000   1.0000   1.0000   1.0000   1.0000   1.0000   0.0000
     0.0000   0.0000   0.0000   0.0000   0.0000

          k = 0.3333 0.5774-0.3004 (  2742 PWs)   bands (ev):

   -74.6184 -74.6184 -38.0991 -38.0991 -38.0340 -38.0340 -37.8732 -37.8732
    16.6511  16.6511  16.7429  16.7429  17.5044  17.5044  19.1262  19.1262
    20.4984  20.4984  25.9306  25.9306  27.6027

     occupation numbers 
     1.0000   1.0000   1.0000   1.0000   1.0000   1.0000   1.0000   1.0000
     1.0000   1.0000   1.0000   1.0000   1.0000   1.0000   1.0000   1.0000
     0.0000   0.0000   0.0000   0.0000   0.0000

     the Fermi energy is    19.3454 ev

!    total energy              =    -753.45345133 Ry
     total all-electron energy =     -5573.810143 Ry
     estimated scf accuracy    <       0.00000089 Ry
     smearing contrib. (-TS)   =      -0.00002351 Ry
     internal energy E=F+TS    =    -753.45342783 Ry

     The total energy is F=E-TS. E is the sum of the following terms:
     one-electron contribution =    -276.66995967 Ry
     hartree contribution      =     162.78431359 Ry
     xc contribution           =     -61.44336898 Ry
     ewald contribution        =    -402.94704854 Ry
     one-center paw contrib.   =    -175.17736422 Ry
      -> PAW hartree energy AE =     222.22772960 Ry
      -> PAW hartree energy PS =    -221.17169619 Ry
      -> PAW xc energy AE      =    -117.68331799 Ry
      -> PAW xc energy PS      =      29.03860247 Ry
      -> total E_H with PAW    =     163.84034699 Ry
      -> total E_XC with PAW   =    -150.08808450 Ry

     total magnetization       =     3.26 Bohr mag/cell
     absolute magnetization    =     3.57 Bohr mag/cell

     convergence has been achieved in  13 iterations

     Writing all to output data dir ./out2/Co.save/
 
     init_run     :      0.37s CPU      0.50s WALL (       1 calls)
     electrons    :     32.24s CPU     34.07s WALL (       1 calls)

     Called by init_run:
     wfcinit      :      0.22s CPU      0.32s WALL (       1 calls)
     potinit      :      0.10s CPU      0.13s WALL (       1 calls)
     hinit0       :      0.03s CPU      0.03s WALL (       1 calls)

     Called by electrons:
     c_bands      :     28.36s CPU     29.75s WALL (      13 calls)
     sum_band     :      2.50s CPU      2.64s WALL (      13 calls)
     v_of_rho     :      0.04s CPU      0.04s WALL (      14 calls)
     v_h          :      0.00s CPU      0.00s WALL (      14 calls)
     v_xc         :      0.04s CPU      0.04s WALL (      14 calls)
     newd         :      0.06s CPU      0.07s WALL (      14 calls)
     PAW_pot      :      1.35s CPU      1.64s WALL (      14 calls)
     mix_rho      :      0.01s CPU      0.01s WALL (      13 calls)

     Called by c_bands:
     init_us_2    :      0.16s CPU      0.16s WALL (    3952 calls)
     init_us_2:cp :      0.16s CPU      0.16s WALL (    3952 calls)
     cegterg      :     27.42s CPU     28.57s WALL (    1979 calls)

     Called by sum_band:
     sum_band:wei :      0.02s CPU      0.02s WALL (      13 calls)
     sum_band:loo :      2.36s CPU      2.49s WALL (      13 calls)
     sum_band:buf :      0.01s CPU      0.02s WALL (    1976 calls)
     sum_band:ini :      0.09s CPU      0.08s WALL (    1976 calls)
     sum_band:cal :      0.18s CPU      0.18s WALL (    1976 calls)
     sum_band:bec :      0.01s CPU      0.02s WALL (    1976 calls)
     addusdens    :      0.11s CPU      0.11s WALL (      13 calls)
                                        0.00s GPU  (      13 calls)
     addusd:skk   :      0.00s CPU      0.00s WALL (      13 calls)
                                        0.00s GPU  (      13 calls)

     Called by *egterg:
     cdiaghg      :      7.12s CPU      7.29s WALL (   12354 calls)
     cegterg:over :      0.93s CPU      0.90s WALL (   10530 calls)
     cegterg:upda :      0.11s CPU      0.23s WALL (   10530 calls)
     cegterg:last :      0.41s CPU      0.43s WALL (    7701 calls)
     h_psi        :     17.57s CPU     18.45s WALL (   12509 calls)
     s_psi        :      0.37s CPU      0.32s WALL (   12509 calls)
     g_psi        :      0.07s CPU      0.07s WALL (   10530 calls)

     Called by h_psi:
     h_psi:calbec :      0.85s CPU      0.80s WALL (   12509 calls)
     vloc_psi     :     16.43s CPU     17.21s WALL (   12509 calls)
     add_vuspsi   :      0.24s CPU      0.35s WALL (   12509 calls)

     General routines
     calbec       :      1.02s CPU      0.96s WALL (   14485 calls)
     fft          :      0.02s CPU      0.02s WALL (     344 calls)
     ffts         :      0.00s CPU      0.00s WALL (      54 calls)
     fftw         :     17.39s CPU     17.91s WALL (  390832 calls)
     interpolate  :      0.00s CPU      0.00s WALL (      28 calls)
 
     Parallel routines

     PAW routines
     PAW_pot      :      1.35s CPU      1.64s WALL (      14 calls)
     PAW_symme    :      0.01s CPU      0.01s WALL (      26 calls)
 
     PWSCF        :     32.91s CPU     35.41s WALL

 
   This run was terminated on:   9:34:25  22Mar2024            

=------------------------------------------------------------------------------=
   JOB DONE.
=------------------------------------------------------------------------------=
