
     Program PWSCF v.7.2 starts on 22Mar2024 at  7:13:29 

     This program is part of the open-source Quantum ESPRESSO suite
     for quantum simulation of materials; please cite
         "P. Giannozzi et al., J. Phys.:Condens. Matter 21 395502 (2009);
         "P. Giannozzi et al., J. Phys.:Condens. Matter 29 465901 (2017);
         "P. Giannozzi et al., J. Chem. Phys. 152 154105 (2020);
          URL http://www.quantum-espresso.org", 
     in publications or presentations arising from this work. More details at
     http://www.quantum-espresso.org/quote

     Parallel version (MPI), running on    20 processors

     MPI processes distributed on     1 nodes
     352148 MiB available memory on the printing compute node when the environment starts
 
     Waiting for input...
     Reading input from standard input

     Current dimensions of program PWSCF are:
     Max number of different atomic species (ntypx) = 10
     Max number of k-points (npk) = 120000
     Max angular momentum in pseudopotentials (lmaxx) =  4
     file Co.pbe-spn-kjpaw_psl.0.3.1.UPF: wavefunction(s)  3P 3D renormalized
 
     R & G space division:  proc/nbgrp/npool/nimage =      20
     Subspace diagonalization in iterative solution of the eigenvalue problem:
     a serial algorithm will be used

 
     Parallelization info
     --------------------
     sticks:   dense  smooth     PW     G-vecs:    dense   smooth      PW
     Min          33      33      9                 1188     1155     185
     Max          35      34     10                 1202     1160     192
     Sum         685     673    199                23813    23127    3791
 
     Using Slab Decomposition
 


     bravais-lattice index     =            4
     lattice parameter (alat)  =       4.7054  a.u.
     unit-cell volume          =     147.8380 (a.u.)^3
     number of atoms/cell      =            2
     number of atomic types    =            1
     number of electrons       =        34.00
     number of Kohn-Sham states=           21
     kinetic-energy cutoff     =     110.0000  Ry
     charge density cutoff     =     450.0000  Ry
     scf convergence threshold =      1.0E-06
     mixing beta               =       0.7000
     number of iterations used =            8  plain     mixing
     Exchange-correlation= SLA  PW   PBX  PBC
                           (   1   4   3   4   0   0   0)

     celldm(1)=   4.705418  celldm(2)=   0.000000  celldm(3)=   1.638554
     celldm(4)=   0.000000  celldm(5)=   0.000000  celldm(6)=   0.000000

     crystal axes: (cart. coord. in units of alat)
               a(1) = (   1.000000   0.000000   0.000000 )  
               a(2) = (  -0.500000   0.866025   0.000000 )  
               a(3) = (   0.000000   0.000000   1.638554 )  

     reciprocal axes: (cart. coord. in units 2 pi/alat)
               b(1) = (  1.000000  0.577350  0.000000 )  
               b(2) = (  0.000000  1.154701  0.000000 )  
               b(3) = (  0.000000  0.000000  0.610294 )  


     PseudoPot. # 1 for Co read from file:
     /truba/home/amuhaymin/ZnS/pseudo/QE/Co.pbe-spn-kjpaw_psl.0.3.1.UPF
     MD5 check sum: b0a1ad65bf214e88c1f3d33b20c7d919
     Pseudo is Projector augmented-wave + core cor, Zval = 17.0
     Generated using &quot;atomic&quot; code by A. Dal Corso  v.6.2.2
     Shape of augmentation charge: PSQ
     Using radial grid of 1193 points,  6 beta functions with: 
                l(1) =   0
                l(2) =   0
                l(3) =   1
                l(4) =   1
                l(5) =   2
                l(6) =   2
     Q(r) pseudized with 0 coefficients 


     atomic species   valence    mass     pseudopotential
        Co            17.00    58.93300     Co( 1.00)

     Starting magnetic structure 
     atomic species   magnetization
        Co           0.294

     24 Sym. Ops., with inversion, found (12 have fractional translation)


                                    s                        frac. trans.

      isym =  1     identity                                     

 cryst.   s( 1) = (     1          0          0      )
                  (     0          1          0      )
                  (     0          0          1      )

 cart.    s( 1) = (  1.0000000  0.0000000  0.0000000 )
                  (  0.0000000  1.0000000  0.0000000 )
                  (  0.0000000  0.0000000  1.0000000 )


      isym =  2     180 deg rotation - cart. axis [0,0,1]        

 cryst.   s( 2) = (    -1          0          0      )    f =(  0.0000000 )
                  (     0         -1          0      )       ( -0.0000000 )
                  (     0          0          1      )       ( -0.5000000 )

 cart.    s( 2) = ( -1.0000000  0.0000000  0.0000000 )    f =(  0.0000000 )
                  (  0.0000000 -1.0000000  0.0000000 )       ( -0.0000000 )
                  (  0.0000000  0.0000000  1.0000000 )       ( -0.8192771 )


      isym =  3     180 deg rotation - cart. axis [0,1,0]        

 cryst.   s( 3) = (    -1          0          0      )    f =(  0.0000000 )
                  (     1          1          0      )       (  0.0000000 )
                  (     0          0         -1      )       (  0.5000000 )

 cart.    s( 3) = ( -1.0000000  0.0000000  0.0000000 )    f =(  0.0000000 )
                  (  0.0000000  1.0000000  0.0000000 )       (  0.0000000 )
                  (  0.0000000  0.0000000 -1.0000000 )       (  0.8192771 )


      isym =  4     180 deg rotation - cart. axis [1,0,0]        

 cryst.   s( 4) = (     1          0          0      )
                  (    -1         -1          0      )
                  (     0          0         -1      )

 cart.    s( 4) = (  1.0000000  0.0000000  0.0000000 )
                  (  0.0000000 -1.0000000  0.0000000 )
                  (  0.0000000  0.0000000 -1.0000000 )


      isym =  5      60 deg rotation - cryst. axis [0,0,1]       

 cryst.   s( 5) = (     1          1          0      )    f =(  0.0000000 )
                  (    -1          0          0      )       ( -0.0000000 )
                  (     0          0          1      )       ( -0.5000000 )

 cart.    s( 5) = (  0.5000000 -0.8660254  0.0000000 )    f =(  0.0000000 )
                  (  0.8660254  0.5000000  0.0000000 )       ( -0.0000000 )
                  (  0.0000000  0.0000000  1.0000000 )       ( -0.8192771 )


      isym =  6      60 deg rotation - cryst. axis [0,0,-1]      

 cryst.   s( 6) = (     0         -1          0      )    f =(  0.0000000 )
                  (     1          1          0      )       ( -0.0000000 )
                  (     0          0          1      )       ( -0.5000000 )

 cart.    s( 6) = (  0.5000000  0.8660254  0.0000000 )    f =(  0.0000000 )
                  ( -0.8660254  0.5000000  0.0000000 )       ( -0.0000000 )
                  (  0.0000000  0.0000000  1.0000000 )       ( -0.8192771 )


      isym =  7     120 deg rotation - cryst. axis [0,0,1]       

 cryst.   s( 7) = (     0          1          0      )
                  (    -1         -1          0      )
                  (     0          0          1      )

 cart.    s( 7) = ( -0.5000000 -0.8660254  0.0000000 )
                  (  0.8660254 -0.5000000  0.0000000 )
                  (  0.0000000  0.0000000  1.0000000 )


      isym =  8     120 deg rotation - cryst. axis [0,0,-1]      

 cryst.   s( 8) = (    -1         -1          0      )
                  (     1          0          0      )
                  (     0          0          1      )

 cart.    s( 8) = ( -0.5000000  0.8660254  0.0000000 )
                  ( -0.8660254 -0.5000000  0.0000000 )
                  (  0.0000000  0.0000000  1.0000000 )


      isym =  9     180 deg rotation - cryst. axis [1,-1,0]      

 cryst.   s( 9) = (     0         -1          0      )    f =( -0.0000000 )
                  (    -1          0          0      )       ( -0.0000000 )
                  (     0          0         -1      )       (  0.5000000 )

 cart.    s( 9) = (  0.5000000 -0.8660254  0.0000000 )    f =( -0.0000000 )
                  ( -0.8660254 -0.5000000  0.0000000 )       ( -0.0000000 )
                  (  0.0000000  0.0000000 -1.0000000 )       (  0.8192771 )


      isym = 10     180 deg rotation - cryst. axis [2,1,0]       

 cryst.   s(10) = (     1          1          0      )    f =(  0.0000000 )
                  (     0         -1          0      )       ( -0.0000000 )
                  (     0          0         -1      )       (  0.5000000 )

 cart.    s(10) = (  0.5000000  0.8660254  0.0000000 )    f =(  0.0000000 )
                  (  0.8660254 -0.5000000  0.0000000 )       ( -0.0000000 )
                  (  0.0000000  0.0000000 -1.0000000 )       (  0.8192771 )


      isym = 11     180 deg rotation - cryst. axis [0,1,0]       

 cryst.   s(11) = (    -1         -1          0      )
                  (     0          1          0      )
                  (     0          0         -1      )

 cart.    s(11) = ( -0.5000000 -0.8660254  0.0000000 )
                  ( -0.8660254  0.5000000  0.0000000 )
                  (  0.0000000  0.0000000 -1.0000000 )


      isym = 12     180 deg rotation - cryst. axis [1,1,0]       

 cryst.   s(12) = (     0          1          0      )
                  (     1          0          0      )
                  (     0          0         -1      )

 cart.    s(12) = ( -0.5000000  0.8660254  0.0000000 )
                  (  0.8660254  0.5000000  0.0000000 )
                  (  0.0000000  0.0000000 -1.0000000 )


      isym = 13     inversion                                    

 cryst.   s(13) = (    -1          0          0      )
                  (     0         -1          0      )
                  (     0          0         -1      )

 cart.    s(13) = ( -1.0000000  0.0000000  0.0000000 )
                  (  0.0000000 -1.0000000  0.0000000 )
                  (  0.0000000  0.0000000 -1.0000000 )


      isym = 14     inv. 180 deg rotation - cart. axis [0,0,1]   

 cryst.   s(14) = (     1          0          0      )    f =(  0.0000000 )
                  (     0          1          0      )       (  0.0000000 )
                  (     0          0         -1      )       (  0.5000000 )

 cart.    s(14) = (  1.0000000  0.0000000  0.0000000 )    f =(  0.0000000 )
                  (  0.0000000  1.0000000  0.0000000 )       (  0.0000000 )
                  (  0.0000000  0.0000000 -1.0000000 )       (  0.8192771 )


      isym = 15     inv. 180 deg rotation - cart. axis [0,1,0]   

 cryst.   s(15) = (     1          0          0      )    f =(  0.0000000 )
                  (    -1         -1          0      )       ( -0.0000000 )
                  (     0          0          1      )       ( -0.5000000 )

 cart.    s(15) = (  1.0000000  0.0000000  0.0000000 )    f =(  0.0000000 )
                  (  0.0000000 -1.0000000  0.0000000 )       ( -0.0000000 )
                  (  0.0000000  0.0000000  1.0000000 )       ( -0.8192771 )


      isym = 16     inv. 180 deg rotation - cart. axis [1,0,0]   

 cryst.   s(16) = (    -1          0          0      )
                  (     1          1          0      )
                  (     0          0          1      )

 cart.    s(16) = ( -1.0000000  0.0000000  0.0000000 )
                  (  0.0000000  1.0000000  0.0000000 )
                  (  0.0000000  0.0000000  1.0000000 )


      isym = 17     inv.  60 deg rotation - cryst. axis [0,0,1]  

 cryst.   s(17) = (    -1         -1          0      )    f =(  0.0000000 )
                  (     1          0          0      )       ( -0.0000000 )
                  (     0          0         -1      )       (  0.5000000 )

 cart.    s(17) = ( -0.5000000  0.8660254  0.0000000 )    f =(  0.0000000 )
                  ( -0.8660254 -0.5000000  0.0000000 )       ( -0.0000000 )
                  (  0.0000000  0.0000000 -1.0000000 )       (  0.8192771 )


      isym = 18     inv.  60 deg rotation - cryst. axis [0,0,-1] 

 cryst.   s(18) = (     0          1          0      )    f =( -0.0000000 )
                  (    -1         -1          0      )       ( -0.0000000 )
                  (     0          0         -1      )       (  0.5000000 )

 cart.    s(18) = ( -0.5000000 -0.8660254  0.0000000 )    f =(  0.0000000 )
                  (  0.8660254 -0.5000000  0.0000000 )       ( -0.0000000 )
                  (  0.0000000  0.0000000 -1.0000000 )       (  0.8192771 )


      isym = 19     inv. 120 deg rotation - cryst. axis [0,0,1]  

 cryst.   s(19) = (     0         -1          0      )
                  (     1          1          0      )
                  (     0          0         -1      )

 cart.    s(19) = (  0.5000000  0.8660254  0.0000000 )
                  ( -0.8660254  0.5000000  0.0000000 )
                  (  0.0000000  0.0000000 -1.0000000 )


      isym = 20     inv. 120 deg rotation - cryst. axis [0,0,-1] 

 cryst.   s(20) = (     1          1          0      )
                  (    -1          0          0      )
                  (     0          0         -1      )

 cart.    s(20) = (  0.5000000 -0.8660254  0.0000000 )
                  (  0.8660254  0.5000000  0.0000000 )
                  (  0.0000000  0.0000000 -1.0000000 )


      isym = 21     inv. 180 deg rotation - cryst. axis [1,-1,0] 

 cryst.   s(21) = (     0          1          0      )    f =(  0.0000000 )
                  (     1          0          0      )       ( -0.0000000 )
                  (     0          0          1      )       ( -0.5000000 )

 cart.    s(21) = ( -0.5000000  0.8660254  0.0000000 )    f =(  0.0000000 )
                  (  0.8660254  0.5000000  0.0000000 )       ( -0.0000000 )
                  (  0.0000000  0.0000000  1.0000000 )       ( -0.8192771 )


      isym = 22     inv. 180 deg rotation - cryst. axis [2,1,0]  

 cryst.   s(22) = (    -1         -1          0      )    f =(  0.0000000 )
                  (     0          1          0      )       ( -0.0000000 )
                  (     0          0          1      )       ( -0.5000000 )

 cart.    s(22) = ( -0.5000000 -0.8660254  0.0000000 )    f =(  0.0000000 )
                  ( -0.8660254  0.5000000  0.0000000 )       ( -0.0000000 )
                  (  0.0000000  0.0000000  1.0000000 )       ( -0.8192771 )


      isym = 23     inv. 180 deg rotation - cryst. axis [0,1,0]  

 cryst.   s(23) = (     1          1          0      )
                  (     0         -1          0      )
                  (     0          0          1      )

 cart.    s(23) = (  0.5000000  0.8660254  0.0000000 )
                  (  0.8660254 -0.5000000  0.0000000 )
                  (  0.0000000  0.0000000  1.0000000 )


      isym = 24     inv. 180 deg rotation - cryst. axis [1,1,0]  

 cryst.   s(24) = (     0         -1          0      )
                  (    -1          0          0      )
                  (     0          0          1      )

 cart.    s(24) = (  0.5000000 -0.8660254  0.0000000 )
                  ( -0.8660254 -0.5000000  0.0000000 )
                  (  0.0000000  0.0000000  1.0000000 )


     point group D_6h(6/mmm)
     there are 12 classes
     the character table:

       E     2C6   2C3   C2    3C2'  3C2'' i     2S3   2S6   s_h   3s_d  3s_v 
A_1g   1.00  1.00  1.00  1.00  1.00  1.00  1.00  1.00  1.00  1.00  1.00  1.00
A_2g   1.00  1.00  1.00  1.00 -1.00 -1.00  1.00  1.00  1.00  1.00 -1.00 -1.00
B_1g   1.00 -1.00  1.00 -1.00  1.00 -1.00  1.00 -1.00  1.00 -1.00  1.00 -1.00
B_2g   1.00 -1.00  1.00 -1.00 -1.00  1.00  1.00 -1.00  1.00 -1.00 -1.00  1.00
E_1g   2.00  1.00 -1.00 -2.00  0.00  0.00  2.00  1.00 -1.00 -2.00  0.00  0.00
E_2g   2.00 -1.00 -1.00  2.00  0.00  0.00  2.00 -1.00 -1.00  2.00  0.00  0.00
A_1u   1.00  1.00  1.00  1.00  1.00  1.00 -1.00 -1.00 -1.00 -1.00 -1.00 -1.00
A_2u   1.00  1.00  1.00  1.00 -1.00 -1.00 -1.00 -1.00 -1.00 -1.00  1.00  1.00
B_1u   1.00 -1.00  1.00 -1.00  1.00 -1.00 -1.00  1.00 -1.00  1.00 -1.00  1.00
B_2u   1.00 -1.00  1.00 -1.00 -1.00  1.00 -1.00  1.00 -1.00  1.00  1.00 -1.00
E_1u   2.00  1.00 -1.00 -2.00  0.00  0.00 -2.00 -1.00  1.00  2.00  0.00  0.00
E_2u   2.00 -1.00 -1.00  2.00  0.00  0.00 -2.00  1.00  1.00 -2.00  0.00  0.00

     the symmetry operations in each class and the name of the first element:

     E        1
          identity                                               
     2C6      5    6
           60 deg rotation - cryst. axis [0,0,1]                 
     2C3      7    8
          120 deg rotation - cryst. axis [0,0,1]                 
     C2       2
          180 deg rotation - cart. axis [0,0,1]                  
     3C2'     4   12   11
          180 deg rotation - cart. axis [1,0,0]                  
     3C2''    3    9   10
          180 deg rotation - cart. axis [0,1,0]                  
     i       13
          inversion                                              
     2S3     17   18
          inv.  60 deg rotation - cryst. axis [0,0,1]            
     2S6     19   20
          inv. 120 deg rotation - cryst. axis [0,0,1]            
     s_h     14
          inv. 180 deg rotation - cart. axis [0,0,1]             
     3s_d    16   24   23
          inv. 180 deg rotation - cart. axis [1,0,0]             
     3s_v    15   21   22
          inv. 180 deg rotation - cart. axis [0,1,0]             

   Cartesian axes

     site n.     atom                  positions (alat units)
         1           Co  tau(   1) = (  -0.0000000   0.5773503   0.4096386  )
         2           Co  tau(   2) = (   0.5000000   0.2886751   1.2289157  )

   Crystallographic axes

     site n.     atom                  positions (cryst. coord.)
         1           Co  tau(   1) = (  0.3333333  0.6666667  0.2500000  )
         2           Co  tau(   2) = (  0.6666667  0.3333333  0.7500000  )

     number of k points=    76  Gaussian smearing, width (Ry)=  0.0010
                       cart. coord. in units 2pi/alat
        k(    1) = (   0.0000000   0.0000000   0.0000000), wk =   0.0011574
        k(    2) = (   0.0000000   0.0000000   0.1017157), wk =   0.0023148
        k(    3) = (   0.0000000   0.0000000   0.2034314), wk =   0.0023148
        k(    4) = (   0.0000000   0.0000000  -0.3051471), wk =   0.0011574
        k(    5) = (   0.0000000   0.0962250   0.0000000), wk =   0.0069444
        k(    6) = (   0.0000000   0.0962250   0.1017157), wk =   0.0138889
        k(    7) = (   0.0000000   0.0962250   0.2034314), wk =   0.0138889
        k(    8) = (   0.0000000   0.0962250  -0.3051471), wk =   0.0069444
        k(    9) = (   0.0000000   0.1924501   0.0000000), wk =   0.0069444
        k(   10) = (   0.0000000   0.1924501   0.1017157), wk =   0.0138889
        k(   11) = (   0.0000000   0.1924501   0.2034314), wk =   0.0138889
        k(   12) = (   0.0000000   0.1924501  -0.3051471), wk =   0.0069444
        k(   13) = (   0.0000000   0.2886751   0.0000000), wk =   0.0069444
        k(   14) = (   0.0000000   0.2886751   0.1017157), wk =   0.0138889
        k(   15) = (   0.0000000   0.2886751   0.2034314), wk =   0.0138889
        k(   16) = (   0.0000000   0.2886751  -0.3051471), wk =   0.0069444
        k(   17) = (   0.0000000   0.3849002   0.0000000), wk =   0.0069444
        k(   18) = (   0.0000000   0.3849002   0.1017157), wk =   0.0138889
        k(   19) = (   0.0000000   0.3849002   0.2034314), wk =   0.0138889
        k(   20) = (   0.0000000   0.3849002  -0.3051471), wk =   0.0069444
        k(   21) = (   0.0000000   0.4811252   0.0000000), wk =   0.0069444
        k(   22) = (   0.0000000   0.4811252   0.1017157), wk =   0.0138889
        k(   23) = (   0.0000000   0.4811252   0.2034314), wk =   0.0138889
        k(   24) = (   0.0000000   0.4811252  -0.3051471), wk =   0.0069444
        k(   25) = (   0.0000000  -0.5773503   0.0000000), wk =   0.0034722
        k(   26) = (   0.0000000  -0.5773503   0.1017157), wk =   0.0069444
        k(   27) = (   0.0000000  -0.5773503   0.2034314), wk =   0.0069444
        k(   28) = (   0.0000000  -0.5773503  -0.3051471), wk =   0.0034722
        k(   29) = (   0.0833333   0.1443376   0.0000000), wk =   0.0069444
        k(   30) = (   0.0833333   0.1443376   0.1017157), wk =   0.0138889
        k(   31) = (   0.0833333   0.1443376   0.2034314), wk =   0.0138889
        k(   32) = (   0.0833333   0.1443376  -0.3051471), wk =   0.0069444
        k(   33) = (   0.0833333   0.2405626   0.0000000), wk =   0.0138889
        k(   34) = (   0.0833333   0.2405626   0.1017157), wk =   0.0277778
        k(   35) = (   0.0833333   0.2405626   0.2034314), wk =   0.0277778
        k(   36) = (   0.0833333   0.2405626  -0.3051471), wk =   0.0138889
        k(   37) = (   0.0833333   0.3367877   0.0000000), wk =   0.0138889
        k(   38) = (   0.0833333   0.3367877   0.1017157), wk =   0.0277778
        k(   39) = (   0.0833333   0.3367877   0.2034314), wk =   0.0277778
        k(   40) = (   0.0833333   0.3367877  -0.3051471), wk =   0.0138889
        k(   41) = (   0.0833333   0.4330127   0.0000000), wk =   0.0138889
        k(   42) = (   0.0833333   0.4330127   0.1017157), wk =   0.0277778
        k(   43) = (   0.0833333   0.4330127   0.2034314), wk =   0.0277778
        k(   44) = (   0.0833333   0.4330127  -0.3051471), wk =   0.0138889
        k(   45) = (   0.0833333   0.5292377   0.0000000), wk =   0.0138889
        k(   46) = (   0.0833333   0.5292377   0.1017157), wk =   0.0277778
        k(   47) = (   0.0833333   0.5292377   0.2034314), wk =   0.0277778
        k(   48) = (   0.0833333   0.5292377  -0.3051471), wk =   0.0138889
        k(   49) = (   0.1666667   0.2886751   0.0000000), wk =   0.0069444
        k(   50) = (   0.1666667   0.2886751   0.1017157), wk =   0.0138889
        k(   51) = (   0.1666667   0.2886751   0.2034314), wk =   0.0138889
        k(   52) = (   0.1666667   0.2886751  -0.3051471), wk =   0.0069444
        k(   53) = (   0.1666667   0.3849002   0.0000000), wk =   0.0138889
        k(   54) = (   0.1666667   0.3849002   0.1017157), wk =   0.0277778
        k(   55) = (   0.1666667   0.3849002   0.2034314), wk =   0.0277778
        k(   56) = (   0.1666667   0.3849002  -0.3051471), wk =   0.0138889
        k(   57) = (   0.1666667   0.4811252   0.0000000), wk =   0.0138889
        k(   58) = (   0.1666667   0.4811252   0.1017157), wk =   0.0277778
        k(   59) = (   0.1666667   0.4811252   0.2034314), wk =   0.0277778
        k(   60) = (   0.1666667   0.4811252  -0.3051471), wk =   0.0138889
        k(   61) = (   0.1666667   0.5773503   0.0000000), wk =   0.0069444
        k(   62) = (   0.1666667   0.5773503   0.1017157), wk =   0.0138889
        k(   63) = (   0.1666667   0.5773503   0.2034314), wk =   0.0138889
        k(   64) = (   0.1666667   0.5773503  -0.3051471), wk =   0.0069444
        k(   65) = (   0.2500000   0.4330127   0.0000000), wk =   0.0069444
        k(   66) = (   0.2500000   0.4330127   0.1017157), wk =   0.0138889
        k(   67) = (   0.2500000   0.4330127   0.2034314), wk =   0.0138889
        k(   68) = (   0.2500000   0.4330127  -0.3051471), wk =   0.0069444
        k(   69) = (   0.2500000   0.5292377   0.0000000), wk =   0.0138889
        k(   70) = (   0.2500000   0.5292377   0.1017157), wk =   0.0277778
        k(   71) = (   0.2500000   0.5292377   0.2034314), wk =   0.0277778
        k(   72) = (   0.2500000   0.5292377  -0.3051471), wk =   0.0138889
        k(   73) = (   0.3333333   0.5773503   0.0000000), wk =   0.0023148
        k(   74) = (   0.3333333   0.5773503   0.1017157), wk =   0.0046296
        k(   75) = (   0.3333333   0.5773503   0.2034314), wk =   0.0046296
        k(   76) = (   0.3333333   0.5773503  -0.3051471), wk =   0.0023148

                       cryst. coord.
        k(    1) = (   0.0000000   0.0000000   0.0000000), wk =   0.0011574
        k(    2) = (   0.0000000   0.0000000   0.1666667), wk =   0.0023148
        k(    3) = (   0.0000000   0.0000000   0.3333333), wk =   0.0023148
        k(    4) = (   0.0000000   0.0000000  -0.5000000), wk =   0.0011574
        k(    5) = (   0.0000000   0.0833333   0.0000000), wk =   0.0069444
        k(    6) = (   0.0000000   0.0833333   0.1666667), wk =   0.0138889
        k(    7) = (   0.0000000   0.0833333   0.3333333), wk =   0.0138889
        k(    8) = (   0.0000000   0.0833333  -0.5000000), wk =   0.0069444
        k(    9) = (   0.0000000   0.1666667   0.0000000), wk =   0.0069444
        k(   10) = (   0.0000000   0.1666667   0.1666667), wk =   0.0138889
        k(   11) = (   0.0000000   0.1666667   0.3333333), wk =   0.0138889
        k(   12) = (   0.0000000   0.1666667  -0.5000000), wk =   0.0069444
        k(   13) = (   0.0000000   0.2500000   0.0000000), wk =   0.0069444
        k(   14) = (   0.0000000   0.2500000   0.1666667), wk =   0.0138889
        k(   15) = (   0.0000000   0.2500000   0.3333333), wk =   0.0138889
        k(   16) = (   0.0000000   0.2500000  -0.5000000), wk =   0.0069444
        k(   17) = (   0.0000000   0.3333333   0.0000000), wk =   0.0069444
        k(   18) = (   0.0000000   0.3333333   0.1666667), wk =   0.0138889
        k(   19) = (   0.0000000   0.3333333   0.3333333), wk =   0.0138889
        k(   20) = (   0.0000000   0.3333333  -0.5000000), wk =   0.0069444
        k(   21) = (   0.0000000   0.4166667   0.0000000), wk =   0.0069444
        k(   22) = (   0.0000000   0.4166667   0.1666667), wk =   0.0138889
        k(   23) = (   0.0000000   0.4166667   0.3333333), wk =   0.0138889
        k(   24) = (   0.0000000   0.4166667  -0.5000000), wk =   0.0069444
        k(   25) = (   0.0000000  -0.5000000   0.0000000), wk =   0.0034722
        k(   26) = (   0.0000000  -0.5000000   0.1666667), wk =   0.0069444
        k(   27) = (   0.0000000  -0.5000000   0.3333333), wk =   0.0069444
        k(   28) = (   0.0000000  -0.5000000  -0.5000000), wk =   0.0034722
        k(   29) = (   0.0833333   0.0833333   0.0000000), wk =   0.0069444
        k(   30) = (   0.0833333   0.0833333   0.1666667), wk =   0.0138889
        k(   31) = (   0.0833333   0.0833333   0.3333333), wk =   0.0138889
        k(   32) = (   0.0833333   0.0833333  -0.5000000), wk =   0.0069444
        k(   33) = (   0.0833333   0.1666667   0.0000000), wk =   0.0138889
        k(   34) = (   0.0833333   0.1666667   0.1666667), wk =   0.0277778
        k(   35) = (   0.0833333   0.1666667   0.3333333), wk =   0.0277778
        k(   36) = (   0.0833333   0.1666667  -0.5000000), wk =   0.0138889
        k(   37) = (   0.0833333   0.2500000   0.0000000), wk =   0.0138889
        k(   38) = (   0.0833333   0.2500000   0.1666667), wk =   0.0277778
        k(   39) = (   0.0833333   0.2500000   0.3333333), wk =   0.0277778
        k(   40) = (   0.0833333   0.2500000  -0.5000000), wk =   0.0138889
        k(   41) = (   0.0833333   0.3333333   0.0000000), wk =   0.0138889
        k(   42) = (   0.0833333   0.3333333   0.1666667), wk =   0.0277778
        k(   43) = (   0.0833333   0.3333333   0.3333333), wk =   0.0277778
        k(   44) = (   0.0833333   0.3333333  -0.5000000), wk =   0.0138889
        k(   45) = (   0.0833333   0.4166667   0.0000000), wk =   0.0138889
        k(   46) = (   0.0833333   0.4166667   0.1666667), wk =   0.0277778
        k(   47) = (   0.0833333   0.4166667   0.3333333), wk =   0.0277778
        k(   48) = (   0.0833333   0.4166667  -0.5000000), wk =   0.0138889
        k(   49) = (   0.1666667   0.1666667   0.0000000), wk =   0.0069444
        k(   50) = (   0.1666667   0.1666667   0.1666667), wk =   0.0138889
        k(   51) = (   0.1666667   0.1666667   0.3333333), wk =   0.0138889
        k(   52) = (   0.1666667   0.1666667  -0.5000000), wk =   0.0069444
        k(   53) = (   0.1666667   0.2500000   0.0000000), wk =   0.0138889
        k(   54) = (   0.1666667   0.2500000   0.1666667), wk =   0.0277778
        k(   55) = (   0.1666667   0.2500000   0.3333333), wk =   0.0277778
        k(   56) = (   0.1666667   0.2500000  -0.5000000), wk =   0.0138889
        k(   57) = (   0.1666667   0.3333333   0.0000000), wk =   0.0138889
        k(   58) = (   0.1666667   0.3333333   0.1666667), wk =   0.0277778
        k(   59) = (   0.1666667   0.3333333   0.3333333), wk =   0.0277778
        k(   60) = (   0.1666667   0.3333333  -0.5000000), wk =   0.0138889
        k(   61) = (   0.1666667   0.4166667   0.0000000), wk =   0.0069444
        k(   62) = (   0.1666667   0.4166667   0.1666667), wk =   0.0138889
        k(   63) = (   0.1666667   0.4166667   0.3333333), wk =   0.0138889
        k(   64) = (   0.1666667   0.4166667  -0.5000000), wk =   0.0069444
        k(   65) = (   0.2500000   0.2500000   0.0000000), wk =   0.0069444
        k(   66) = (   0.2500000   0.2500000   0.1666667), wk =   0.0138889
        k(   67) = (   0.2500000   0.2500000   0.3333333), wk =   0.0138889
        k(   68) = (   0.2500000   0.2500000  -0.5000000), wk =   0.0069444
        k(   69) = (   0.2500000   0.3333333   0.0000000), wk =   0.0138889
        k(   70) = (   0.2500000   0.3333333   0.1666667), wk =   0.0277778
        k(   71) = (   0.2500000   0.3333333   0.3333333), wk =   0.0277778
        k(   72) = (   0.2500000   0.3333333  -0.5000000), wk =   0.0138889
        k(   73) = (   0.3333333   0.3333333   0.0000000), wk =   0.0023148
        k(   74) = (   0.3333333   0.3333333   0.1666667), wk =   0.0046296
        k(   75) = (   0.3333333   0.3333333   0.3333333), wk =   0.0046296
        k(   76) = (   0.3333333   0.3333333  -0.5000000), wk =   0.0023148

     Dense  grid:    23813 G-vectors     FFT dimensions: (  32,  32,  54)

     Smooth grid:    23127 G-vectors     FFT dimensions: (  32,  32,  54)

     Dynamical RAM for                 wfc:       0.05 MB

     Dynamical RAM for     wfc (w. buffer):       7.06 MB

     Dynamical RAM for           str. fact:       0.02 MB

     Dynamical RAM for           local pot:       0.00 MB

     Dynamical RAM for          nlocal pot:       0.08 MB

     Dynamical RAM for                qrad:       1.70 MB

     Dynamical RAM for          rho,v,vnew:       0.25 MB

     Dynamical RAM for               rhoin:       0.08 MB

     Dynamical RAM for            rho*nmix:       0.59 MB

     Dynamical RAM for           G-vectors:       0.08 MB

     Dynamical RAM for          h,s,v(r/c):       0.08 MB

     Dynamical RAM for          <psi|beta>:       0.01 MB

     Dynamical RAM for                 psi:       0.09 MB

     Dynamical RAM for                hpsi:       0.09 MB

     Dynamical RAM for                spsi:       0.09 MB

     Dynamical RAM for      wfcinit/wfcrot:       0.10 MB

     Dynamical RAM for           addusdens:       3.47 MB

     Estimated static dynamical RAM per process >       9.45 MB

     Estimated max dynamical RAM per process >      13.50 MB

     Estimated total dynamical RAM >     270.04 MB

     Check: negative core charge=   -0.000042
     Generating pointlists ...
     new r_m :   0.4125 (alat units)  1.9410 (a.u.) for type    1

     The initial density is read from file :
     ./out/Co.save/charge-density


     starting charge      34.0417, renormalised to      34.0000

     negative rho (up, down):  1.074E-01 7.334E-02
     Starting wfcs from file
     Checking if some PAW data can be deallocated... 

     total cpu time spent up to now is        0.6 secs

     Self-consistent Calculation

     iteration #  1     ecut=   110.00 Ry     beta= 0.70
     Davidson diagonalization with overlap

---- Real-time Memory Report at c_bands before calling an iterative solver
            56 MiB given to the printing process from OS
             0 MiB allocation reported by mallinfo(arena+hblkhd)
        351567 MiB available memory on the node where the printing process lives
------------------
     c_bands:  1 eigenvalues not converged
     c_bands:  1 eigenvalues not converged
     c_bands:  1 eigenvalues not converged
     c_bands:  1 eigenvalues not converged
     c_bands:  1 eigenvalues not converged
     c_bands:  1 eigenvalues not converged
     c_bands:  1 eigenvalues not converged
     c_bands:  1 eigenvalues not converged
     c_bands:  2 eigenvalues not converged
     c_bands:  2 eigenvalues not converged
     c_bands:  1 eigenvalues not converged
     c_bands:  2 eigenvalues not converged
     c_bands:  3 eigenvalues not converged
     c_bands:  4 eigenvalues not converged
     c_bands:  1 eigenvalues not converged
     c_bands:  2 eigenvalues not converged
     c_bands:  1 eigenvalues not converged
     c_bands:  1 eigenvalues not converged
     c_bands:  1 eigenvalues not converged
     c_bands:  1 eigenvalues not converged
     c_bands:  1 eigenvalues not converged
     c_bands:  3 eigenvalues not converged
     c_bands:  1 eigenvalues not converged
     c_bands:  4 eigenvalues not converged
     c_bands:  1 eigenvalues not converged
     c_bands:  2 eigenvalues not converged
     c_bands:  2 eigenvalues not converged
     c_bands:  2 eigenvalues not converged
     c_bands:  3 eigenvalues not converged
     c_bands:  1 eigenvalues not converged
     c_bands:  1 eigenvalues not converged
     c_bands:  1 eigenvalues not converged
     ethr =  1.00E-05,  avg # of iterations = 18.5

     negative rho (up, down):  3.309E-04 6.836E-05

     total cpu time spent up to now is        8.5 secs

     total energy              =    -753.33145606 Ry
     estimated scf accuracy    <       0.06472434 Ry

     total magnetization       =     3.40 Bohr mag/cell
     absolute magnetization    =     3.67 Bohr mag/cell

     iteration #  2     ecut=   110.00 Ry     beta= 0.70
     Davidson diagonalization with overlap

---- Real-time Memory Report at c_bands before calling an iterative solver
            76 MiB given to the printing process from OS
             0 MiB allocation reported by mallinfo(arena+hblkhd)
        351338 MiB available memory on the node where the printing process lives
------------------
     ethr =  1.90E-04,  avg # of iterations =  2.0

     total cpu time spent up to now is        9.8 secs

     total energy              =    -753.45041070 Ry
     estimated scf accuracy    <       0.00723810 Ry

     total magnetization       =     3.36 Bohr mag/cell
     absolute magnetization    =     3.63 Bohr mag/cell

     iteration #  3     ecut=   110.00 Ry     beta= 0.70
     Davidson diagonalization with overlap

---- Real-time Memory Report at c_bands before calling an iterative solver
            77 MiB given to the printing process from OS
             0 MiB allocation reported by mallinfo(arena+hblkhd)
        351324 MiB available memory on the node where the printing process lives
------------------
     ethr =  2.13E-05,  avg # of iterations =  5.4

     total cpu time spent up to now is       12.3 secs

     total energy              =    -753.45382832 Ry
     estimated scf accuracy    <       0.02859225 Ry

     total magnetization       =     3.39 Bohr mag/cell
     absolute magnetization    =     3.70 Bohr mag/cell

     iteration #  4     ecut=   110.00 Ry     beta= 0.70
     Davidson diagonalization with overlap

---- Real-time Memory Report at c_bands before calling an iterative solver
            79 MiB given to the printing process from OS
             0 MiB allocation reported by mallinfo(arena+hblkhd)
        351317 MiB available memory on the node where the printing process lives
------------------
     ethr =  2.13E-05,  avg # of iterations =  2.0

     total cpu time spent up to now is       13.6 secs

     total energy              =    -753.45250214 Ry
     estimated scf accuracy    <       0.00795148 Ry

     total magnetization       =     3.37 Bohr mag/cell
     absolute magnetization    =     3.68 Bohr mag/cell

     iteration #  5     ecut=   110.00 Ry     beta= 0.70
     Davidson diagonalization with overlap

---- Real-time Memory Report at c_bands before calling an iterative solver
            80 MiB given to the printing process from OS
             0 MiB allocation reported by mallinfo(arena+hblkhd)
        351307 MiB available memory on the node where the printing process lives
------------------
     ethr =  2.13E-05,  avg # of iterations =  4.1

     total cpu time spent up to now is       15.3 secs

     total energy              =    -753.45452580 Ry
     estimated scf accuracy    <       0.00005867 Ry

     total magnetization       =     3.36 Bohr mag/cell
     absolute magnetization    =     3.67 Bohr mag/cell

     iteration #  6     ecut=   110.00 Ry     beta= 0.70
     Davidson diagonalization with overlap

---- Real-time Memory Report at c_bands before calling an iterative solver
            81 MiB given to the printing process from OS
             0 MiB allocation reported by mallinfo(arena+hblkhd)
        351296 MiB available memory on the node where the printing process lives
------------------
     ethr =  1.73E-07,  avg # of iterations =  8.9

     total cpu time spent up to now is       18.5 secs

     total energy              =    -753.45487214 Ry
     estimated scf accuracy    <       0.00001842 Ry

     total magnetization       =     3.36 Bohr mag/cell
     absolute magnetization    =     3.68 Bohr mag/cell

     iteration #  7     ecut=   110.00 Ry     beta= 0.70
     Davidson diagonalization with overlap

---- Real-time Memory Report at c_bands before calling an iterative solver
            81 MiB given to the printing process from OS
             0 MiB allocation reported by mallinfo(arena+hblkhd)
        351292 MiB available memory on the node where the printing process lives
------------------
     ethr =  5.42E-08,  avg # of iterations =  3.2

     total cpu time spent up to now is       20.0 secs

     total energy              =    -753.45487766 Ry
     estimated scf accuracy    <       0.00002003 Ry

     total magnetization       =     3.36 Bohr mag/cell
     absolute magnetization    =     3.68 Bohr mag/cell

     iteration #  8     ecut=   110.00 Ry     beta= 0.70
     Davidson diagonalization with overlap

---- Real-time Memory Report at c_bands before calling an iterative solver
            83 MiB given to the printing process from OS
             0 MiB allocation reported by mallinfo(arena+hblkhd)
        351287 MiB available memory on the node where the printing process lives
------------------
     ethr =  5.42E-08,  avg # of iterations =  2.3

     total cpu time spent up to now is       21.4 secs

     total energy              =    -753.45488083 Ry
     estimated scf accuracy    <       0.00000511 Ry

     total magnetization       =     3.36 Bohr mag/cell
     absolute magnetization    =     3.68 Bohr mag/cell

     iteration #  9     ecut=   110.00 Ry     beta= 0.70
     Davidson diagonalization with overlap

---- Real-time Memory Report at c_bands before calling an iterative solver
            83 MiB given to the printing process from OS
             0 MiB allocation reported by mallinfo(arena+hblkhd)
        351281 MiB available memory on the node where the printing process lives
------------------
     ethr =  1.50E-08,  avg # of iterations =  5.2

     total cpu time spent up to now is       23.6 secs

     total energy              =    -753.45488599 Ry
     estimated scf accuracy    <       0.00001662 Ry

     total magnetization       =     3.36 Bohr mag/cell
     absolute magnetization    =     3.68 Bohr mag/cell

     iteration # 10     ecut=   110.00 Ry     beta= 0.70
     Davidson diagonalization with overlap

---- Real-time Memory Report at c_bands before calling an iterative solver
            84 MiB given to the printing process from OS
             0 MiB allocation reported by mallinfo(arena+hblkhd)
        351278 MiB available memory on the node where the printing process lives
------------------
     ethr =  1.50E-08,  avg # of iterations =  1.4

     total cpu time spent up to now is       24.8 secs

     total energy              =    -753.45487993 Ry
     estimated scf accuracy    <       0.00001324 Ry

     total magnetization       =     3.36 Bohr mag/cell
     absolute magnetization    =     3.68 Bohr mag/cell

     iteration # 11     ecut=   110.00 Ry     beta= 0.70
     Davidson diagonalization with overlap

---- Real-time Memory Report at c_bands before calling an iterative solver
            84 MiB given to the printing process from OS
             0 MiB allocation reported by mallinfo(arena+hblkhd)
        351270 MiB available memory on the node where the printing process lives
------------------
     ethr =  1.50E-08,  avg # of iterations =  4.5

     total cpu time spent up to now is       26.9 secs

     total energy              =    -753.45488333 Ry
     estimated scf accuracy    <       0.00000176 Ry

     total magnetization       =     3.36 Bohr mag/cell
     absolute magnetization    =     3.68 Bohr mag/cell

     iteration # 12     ecut=   110.00 Ry     beta= 0.70
     Davidson diagonalization with overlap

---- Real-time Memory Report at c_bands before calling an iterative solver
            85 MiB given to the printing process from OS
             0 MiB allocation reported by mallinfo(arena+hblkhd)
        351270 MiB available memory on the node where the printing process lives
------------------
     ethr =  5.18E-09,  avg # of iterations =  3.8
 
     Magnetic moment per site  (integrated on atomic sphere of radius R)
     atom   1 (R=0.413)  charge= 15.6059  magn=  1.7546
     atom   2 (R=0.413)  charge= 15.6059  magn=  1.7546

     total cpu time spent up to now is       28.6 secs

     End of self-consistent calculation

 ------ SPIN UP ------------


          k = 0.0000 0.0000 0.0000 (  2875 PWs)   bands (ev):

   -77.6661 -77.6149 -41.0617 -40.7717 -40.7717 -40.7565 -40.7289 -40.7289
     9.5249  13.3023  15.7634  15.8616  15.8616  16.1557  16.1557  16.5301
    16.5301  17.5718  17.5718  18.0940  24.4865

     occupation numbers 
     1.0000   1.0000   1.0000   1.0000   1.0000   1.0000   1.0000   1.0000
     1.0000   1.0000   1.0000   1.0000   1.0000   1.0000   1.0000   1.0000
     1.0000   1.0000   1.0000   1.0000   0.0000

          k = 0.0000 0.0000 0.1017 (  2876 PWs)   bands (ev):

   -77.6627 -77.6184 -41.0415 -40.7772 -40.7688 -40.7688 -40.7318 -40.7318
     9.7950  13.2241  15.6971  15.8052  15.8052  16.0884  16.0884  16.6791
    16.6791  17.1683  17.5537  17.5537  25.9764

     occupation numbers 
     1.0000   1.0000   1.0000   1.0000   1.0000   1.0000   1.0000   1.0000
     1.0000   1.0000   1.0000   1.0000   1.0000   1.0000   1.0000   1.0000
     1.0000   1.0000   1.0000   1.0000   0.0000

          k = 0.0000 0.0000 0.2034 (  2888 PWs)   bands (ev):

   -77.6533 -77.6278 -40.9861 -40.8335 -40.7610 -40.7610 -40.7396 -40.7396
    10.5705  12.7656  15.5447  15.7567  15.7567  15.9035  15.9392  15.9392
    16.9789  16.9789  17.4661  17.4661  29.1291

     occupation numbers 
     1.0000   1.0000   1.0000   1.0000   1.0000   1.0000   1.0000   1.0000
     1.0000   1.0000   1.0000   1.0000   1.0000   1.0000   1.0000   1.0000
     1.0000   1.0000   1.0000   1.0000   0.0000

          k = 0.0000 0.0000-0.3051 (  2870 PWs)   bands (ev):

   -77.6405 -77.6405 -40.9101 -40.9101 -40.7503 -40.7503 -40.7503 -40.7503
    11.7045  11.7045  15.4741  15.4741  15.8054  15.8054  15.8054  15.8054
    17.2686  17.2686  17.2686  17.2686  32.9006

     occupation numbers 
     1.0000   1.0000   1.0000   1.0000   1.0000   1.0000   1.0000   1.0000
     1.0000   1.0000   1.0000   1.0000   1.0000   1.0000   1.0000   1.0000
     1.0000   1.0000   1.0000   1.0000   0.0000

          k = 0.0000 0.0962 0.0000 (  2857 PWs)   bands (ev):

   -77.6630 -77.6134 -41.0549 -40.7874 -40.7767 -40.7591 -40.7452 -40.7317
     9.7670  13.4504  15.6058  15.9752  15.9857  16.1048  16.2570  16.3618
    16.4606  16.7602  17.5998  19.2359  24.5272

     occupation numbers 
     1.0000   1.0000   1.0000   1.0000   1.0000   1.0000   1.0000   1.0000
     1.0000   1.0000   1.0000   1.0000   1.0000   1.0000   1.0000   1.0000
     1.0000   1.0000   1.0000   0.0000   0.0000

          k = 0.0000 0.0962 0.1017 (  2871 PWs)   bands (ev):

   -77.6596 -77.6167 -41.0358 -40.7846 -40.7822 -40.7737 -40.7445 -40.7347
    10.0331  13.3865  15.6051  15.8264  15.9038  15.9289  16.1842  16.4391
    16.6342  16.6961  17.5748  18.4908  26.0871

     occupation numbers 
     1.0000   1.0000   1.0000   1.0000   1.0000   1.0000   1.0000   1.0000
     1.0000   1.0000   1.0000   1.0000   1.0000   1.0000   1.0000   1.0000
     1.0000   1.0000   1.0000   0.0007   0.0000

          k = 0.0000 0.0962 0.2034 (  2880 PWs)   bands (ev):

   -77.6506 -77.6258 -40.9834 -40.8382 -40.7751 -40.7655 -40.7513 -40.7429
    10.7964  12.9554  15.4919  15.5321  15.6761  15.8481  16.0334  16.0673
    16.9529  16.9942  17.4714  17.7566  29.2850

     occupation numbers 
     1.0000   1.0000   1.0000   1.0000   1.0000   1.0000   1.0000   1.0000
     1.0000   1.0000   1.0000   1.0000   1.0000   1.0000   1.0000   1.0000
     1.0000   1.0000   1.0000   1.0000   0.0000

          k = 0.0000 0.0962-0.3051 (  2870 PWs)   bands (ev):

   -77.6382 -77.6382 -40.9113 -40.9113 -40.7630 -40.7630 -40.7542 -40.7542
    11.9124  11.9124  15.3453  15.3453  15.8044  15.8044  15.8979  15.8979
    17.2572  17.2572  17.3567  17.3567  33.0718

     occupation numbers 
     1.0000   1.0000   1.0000   1.0000   1.0000   1.0000   1.0000   1.0000
     1.0000   1.0000   1.0000   1.0000   1.0000   1.0000   1.0000   1.0000
     1.0000   1.0000   1.0000   1.0000   0.0000

          k = 0.0000 0.1925 0.0000 (  2857 PWs)   bands (ev):

   -77.6543 -77.6093 -41.0356 -40.8306 -40.7902 -40.7892 -40.7670 -40.7394
    10.4676  13.8175  15.3523  15.6007  15.9185  16.2824  16.2892  16.2959
    16.4412  16.5411  17.6586  20.8129  24.6713

     occupation numbers 
     1.0000   1.0000   1.0000   1.0000   1.0000   1.0000   1.0000   1.0000
     1.0000   1.0000   1.0000   1.0000   1.0000   1.0000   1.0000   1.0000
     1.0000   1.0000   1.0000   0.0000   0.0000

          k = 0.0000 0.1925 0.1017 (  2867 PWs)   bands (ev):

   -77.6513 -77.6123 -41.0201 -40.8262 -40.8092 -40.7868 -40.7673 -40.7428
    10.7181  13.7975  15.3361  15.3924  15.8009  16.1206  16.1746  16.4331
    16.6088  16.6792  17.6185  19.7008  26.4475

     occupation numbers 
     1.0000   1.0000   1.0000   1.0000   1.0000   1.0000   1.0000   1.0000
     1.0000   1.0000   1.0000   1.0000   1.0000   1.0000   1.0000   1.0000
     1.0000   1.0000   1.0000   0.0000   0.0000

          k = 0.0000 0.1925 0.2034 (  2878 PWs)   bands (ev):

   -77.6431 -77.6206 -40.9774 -40.8580 -40.8113 -40.7775 -40.7767 -40.7521
    11.4336  13.4470  15.0119  15.4498  15.5272  16.0062  16.0722  16.2938
    16.9250  17.0718  17.4826  18.3856  29.7520

     occupation numbers 
     1.0000   1.0000   1.0000   1.0000   1.0000   1.0000   1.0000   1.0000
     1.0000   1.0000   1.0000   1.0000   1.0000   1.0000   1.0000   1.0000
     1.0000   1.0000   1.0000   1.0000   0.0000

          k = 0.0000 0.1925-0.3051 (  2884 PWs)   bands (ev):

   -77.6318 -77.6318 -40.9184 -40.9184 -40.7935 -40.7935 -40.7648 -40.7648
    12.4729  12.4729  15.1294  15.1294  15.7374  15.7374  16.1441  16.1441
    17.2408  17.2408  17.5947  17.5947  33.5455

     occupation numbers 
     1.0000   1.0000   1.0000   1.0000   1.0000   1.0000   1.0000   1.0000
     1.0000   1.0000   1.0000   1.0000   1.0000   1.0000   1.0000   1.0000
     1.0000   1.0000   1.0000   1.0000   0.0000

          k = 0.0000 0.2887 0.0000 (  2860 PWs)   bands (ev):

   -77.6421 -77.6041 -41.0067 -40.8900 -40.8485 -40.8081 -40.7802 -40.7504
    11.5281  14.1123  14.8882  15.2004  15.8119  16.0828  16.2358  16.7119
    16.7612  16.9492  17.7126  22.5886  24.9558

     occupation numbers 
     1.0000   1.0000   1.0000   1.0000   1.0000   1.0000   1.0000   1.0000
     1.0000   1.0000   1.0000   1.0000   1.0000   1.0000   1.0000   1.0000
     1.0000   1.0000   1.0000   0.0000   0.0000

          k = 0.0000 0.2887 0.1017 (  2863 PWs)   bands (ev):

   -77.6395 -77.6066 -40.9993 -40.8816 -40.8618 -40.8042 -40.7829 -40.7543
    11.7368  14.1453  14.7512  15.2510  15.6679  16.1213  16.2339  16.7998
    16.8367  16.9085  17.6600  20.9626  27.0987

     occupation numbers 
     1.0000   1.0000   1.0000   1.0000   1.0000   1.0000   1.0000   1.0000
     1.0000   1.0000   1.0000   1.0000   1.0000   1.0000   1.0000   1.0000
     1.0000   1.0000   1.0000   0.0000   0.0000

          k = 0.0000 0.2887 0.2034 (  2873 PWs)   bands (ev):

   -77.6326 -77.6136 -40.9769 -40.9016 -40.8515 -40.7960 -40.7937 -40.7648
    12.3185  13.8849  14.6903  15.2652  15.5579  16.0810  16.2411  16.6588
    17.0490  17.2227  17.5083  19.1444  30.4243

     occupation numbers 
     1.0000   1.0000   1.0000   1.0000   1.0000   1.0000   1.0000   1.0000
     1.0000   1.0000   1.0000   1.0000   1.0000   1.0000   1.0000   1.0000
     1.0000   1.0000   1.0000   0.0000   0.0000

          k = 0.0000 0.2887-0.3051 (  2884 PWs)   bands (ev):

   -77.6231 -77.6231 -40.9420 -40.9420 -40.8211 -40.8211 -40.7793 -40.7793
    13.1262  13.1262  14.9765  14.9765  15.7985  15.7985  16.4347  16.4347
    17.2860  17.2860  17.9311  17.9311  32.7723

     occupation numbers 
     1.0000   1.0000   1.0000   1.0000   1.0000   1.0000   1.0000   1.0000
     1.0000   1.0000   1.0000   1.0000   1.0000   1.0000   1.0000   1.0000
     1.0000   1.0000   1.0000   1.0000   0.0000

          k = 0.0000 0.3849 0.0000 (  2884 PWs)   bands (ev):

   -77.6290 -77.5996 -40.9731 -40.9498 -40.9067 -40.8256 -40.7984 -40.7617
    12.6867  14.0443  14.3781  15.3131  15.8966  15.9336  16.0465  17.2578
    17.3908  17.4048  17.7483  24.5270  25.0930

     occupation numbers 
     1.0000   1.0000   1.0000   1.0000   1.0000   1.0000   1.0000   1.0000
     1.0000   1.0000   1.0000   1.0000   1.0000   1.0000   1.0000   1.0000
     1.0000   1.0000   1.0000   0.0000   0.0000

          k = 0.0000 0.3849 0.1017 (  2879 PWs)   bands (ev):

   -77.6270 -77.6016 -40.9899 -40.9288 -40.9105 -40.8213 -40.7987 -40.7660
    12.7834  14.0645  14.4168  15.1566  15.8731  15.9859  16.3927  17.2691
    17.3035  17.3419  17.7037  22.1977  27.3281

     occupation numbers 
     1.0000   1.0000   1.0000   1.0000   1.0000   1.0000   1.0000   1.0000
     1.0000   1.0000   1.0000   1.0000   1.0000   1.0000   1.0000   1.0000
     1.0000   1.0000   1.0000   0.0000   0.0000

          k = 0.0000 0.3849 0.2034 (  2884 PWs)   bands (ev):

   -77.6217 -77.6070 -40.9958 -40.9539 -40.8710 -40.8097 -40.8074 -40.7777
    13.0553  13.8744  14.5632  15.0518  15.9922  16.2376  16.7115  16.9885
    17.3714  17.4491  17.6034  20.0286  28.4905

     occupation numbers 
     1.0000   1.0000   1.0000   1.0000   1.0000   1.0000   1.0000   1.0000
     1.0000   1.0000   1.0000   1.0000   1.0000   1.0000   1.0000   1.0000
     1.0000   1.0000   1.0000   0.0000   0.0000

          k = 0.0000 0.3849-0.3051 (  2882 PWs)   bands (ev):

   -77.6143 -77.6143 -40.9818 -40.9818 -40.8322 -40.8322 -40.7937 -40.7937
    13.4529  13.4529  14.8413  14.8413  16.4018  16.4018  16.6013  16.6013
    17.4841  17.4841  18.4096  18.4097  29.5863

     occupation numbers 
     1.0000   1.0000   1.0000   1.0000   1.0000   1.0000   1.0000   1.0000
     1.0000   1.0000   1.0000   1.0000   1.0000   1.0000   1.0000   1.0000
     1.0000   1.0000   1.0000   1.0000   0.0000

          k = 0.0000 0.4811 0.0000 (  2882 PWs)   bands (ev):

   -77.6184 -77.5975 -40.9939 -40.9487 -40.9420 -40.8382 -40.8180 -40.7702
    13.4482  13.8560  14.0750  15.6693  15.7693  15.9118  16.1417  17.6302
    17.7550  17.7665  18.5259  23.4015  26.5328

     occupation numbers 
     1.0000   1.0000   1.0000   1.0000   1.0000   1.0000   1.0000   1.0000
     1.0000   1.0000   1.0000   1.0000   1.0000   1.0000   1.0000   1.0000
     1.0000   1.0000   0.0000   0.0000   0.0000

          k = 0.0000 0.4811 0.1017 (  2881 PWs)   bands (ev):

   -77.6170 -77.5989 -41.0107 -40.9644 -40.9126 -40.8337 -40.8149 -40.7748
    13.3406  13.8454  14.3806  15.0465  15.8778  16.1518  16.7531  17.5366
    17.6561  17.8062  18.3698  22.5920  25.9267

     occupation numbers 
     1.0000   1.0000   1.0000   1.0000   1.0000   1.0000   1.0000   1.0000
     1.0000   1.0000   1.0000   1.0000   1.0000   1.0000   1.0000   1.0000
     1.0000   1.0000   1.0000   0.0000   0.0000

          k = 0.0000 0.4811 0.2034 (  2874 PWs)   bands (ev):

   -77.6131 -77.6027 -41.0238 -40.9935 -40.8688 -40.8213 -40.8161 -40.7873
    13.3072  13.7685  14.5467  14.8513  16.1855  16.4154  17.1324  17.6887
    17.6960  17.7837  18.0673  20.8826  26.0958

     occupation numbers 
     1.0000   1.0000   1.0000   1.0000   1.0000   1.0000   1.0000   1.0000
     1.0000   1.0000   1.0000   1.0000   1.0000   1.0000   1.0000   1.0000
     1.0000   1.0000   1.0000   0.0000   0.0000

          k = 0.0000 0.4811-0.3051 (  2876 PWs)   bands (ev):

   -77.6079 -77.6079 -41.0172 -41.0172 -40.8339 -40.8339 -40.8043 -40.8043
    13.4852  13.4852  14.7166  14.7166  16.6365  16.6365  17.1160  17.1160
    17.7375  17.7375  19.2555  19.2555  26.8652

     occupation numbers 
     1.0000   1.0000   1.0000   1.0000   1.0000   1.0000   1.0000   1.0000
     1.0000   1.0000   1.0000   1.0000   1.0000   1.0000   1.0000   1.0000
     1.0000   1.0000   0.0000   0.0000   0.0000

          k = 0.0000-0.5774 0.0000 (  2898 PWs)   bands (ev):

   -77.6140 -77.5972 -41.0101 -40.9639 -40.9275 -40.8428 -40.8284 -40.7734
    13.7072  13.7133  13.9746  15.7243  15.8630  15.9214  16.2138  17.7650
    17.7718  17.9021  19.6904  21.6920  27.8376

     occupation numbers 
     1.0000   1.0000   1.0000   1.0000   1.0000   1.0000   1.0000   1.0000
     1.0000   1.0000   1.0000   1.0000   1.0000   1.0000   1.0000   1.0000
     1.0000   1.0000   0.0000   0.0000   0.0000

          k = 0.0000-0.5774 0.1017 (  2886 PWs)   bands (ev):

   -77.6128 -77.5983 -41.0233 -40.9788 -40.9044 -40.8382 -40.8232 -40.7780
    13.4401  13.7524  14.4118  15.0179  15.8383  16.2353  16.9565  17.5831
    17.7972  17.8949  19.4853  21.5137  27.0035

     occupation numbers 
     1.0000   1.0000   1.0000   1.0000   1.0000   1.0000   1.0000   1.0000
     1.0000   1.0000   1.0000   1.0000   1.0000   1.0000   1.0000   1.0000
     1.0000   1.0000   0.0000   0.0000   0.0000

          k = 0.0000-0.5774 0.2034 (  2890 PWs)   bands (ev):

   -77.6098 -77.6014 -41.0362 -41.0081 -40.8648 -40.8255 -40.8203 -40.7908
    13.3279  13.7265  14.5744  14.7573  16.1620  16.5539  17.1604  17.8134
    17.8194  17.8750  19.1724  20.9155  26.0391

     occupation numbers 
     1.0000   1.0000   1.0000   1.0000   1.0000   1.0000   1.0000   1.0000
     1.0000   1.0000   1.0000   1.0000   1.0000   1.0000   1.0000   1.0000
     1.0000   1.0000   0.0000   0.0000   0.0000

          k = 0.0000-0.5774-0.3051 (  2896 PWs)   bands (ev):

   -77.6056 -77.6056 -41.0309 -41.0309 -40.8338 -40.8338 -40.8081 -40.8081
    13.4703  13.4703  14.6685  14.6685  16.6374  16.6374  17.3487  17.3487
    17.8475  17.8475  19.9257  19.9257  25.5988

     occupation numbers 
     1.0000   1.0000   1.0000   1.0000   1.0000   1.0000   1.0000   1.0000
     1.0000   1.0000   1.0000   1.0000   1.0000   1.0000   1.0000   1.0000
     1.0000   1.0000   0.0000   0.0000   0.0000

          k = 0.0833 0.1443 0.0000 (  2864 PWs)   bands (ev):

   -77.6571 -77.6106 -41.0419 -40.8143 -40.7932 -40.7687 -40.7643 -40.7389
    10.2393  13.7139  15.4064  15.8447  15.9974  16.1292  16.2070  16.2519
    16.4785  16.5700  17.6325  20.3716  24.6216

     occupation numbers 
     1.0000   1.0000   1.0000   1.0000   1.0000   1.0000   1.0000   1.0000
     1.0000   1.0000   1.0000   1.0000   1.0000   1.0000   1.0000   1.0000
     1.0000   1.0000   1.0000   0.0000   0.0000

          k = 0.0833 0.1443 0.1017 (  2870 PWs)   bands (ev):

   -77.6540 -77.6137 -41.0251 -40.8100 -40.8017 -40.7835 -40.7592 -40.7422
    10.4957  13.6797  15.4344  15.5204  15.8468  16.0672  16.1571  16.3490
    16.6195  16.6833  17.5999  19.3724  26.3246

     occupation numbers 
     1.0000   1.0000   1.0000   1.0000   1.0000   1.0000   1.0000   1.0000
     1.0000   1.0000   1.0000   1.0000   1.0000   1.0000   1.0000   1.0000
     1.0000   1.0000   1.0000   0.0000   0.0000

          k = 0.0833 0.1443 0.2034 (  2875 PWs)   bands (ev):

   -77.6455 -77.6222 -40.9790 -40.8503 -40.7986 -40.7793 -40.7644 -40.7509
    11.2298  13.3026  15.1319  15.4927  15.5412  15.9868  16.0382  16.2140
    16.9536  17.0218  17.4814  18.2034  29.5991

     occupation numbers 
     1.0000   1.0000   1.0000   1.0000   1.0000   1.0000   1.0000   1.0000
     1.0000   1.0000   1.0000   1.0000   1.0000   1.0000   1.0000   1.0000
     1.0000   1.0000   1.0000   1.0000   0.0000

          k = 0.0833 0.1443-0.3051 (  2872 PWs)   bands (ev):

   -77.6338 -77.6338 -40.9153 -40.9153 -40.7842 -40.7842 -40.7620 -40.7620
    12.3001  12.3001  15.1853  15.1853  15.7397  15.7397  16.0791  16.0791
    17.2459  17.2459  17.5205  17.5205  33.4028

     occupation numbers 
     1.0000   1.0000   1.0000   1.0000   1.0000   1.0000   1.0000   1.0000
     1.0000   1.0000   1.0000   1.0000   1.0000   1.0000   1.0000   1.0000
     1.0000   1.0000   1.0000   1.0000   0.0000

          k = 0.0833 0.2406 0.0000 (  2866 PWs)   bands (ev):

   -77.6466 -77.6059 -41.0177 -40.8619 -40.8350 -40.7949 -40.7750 -40.7513
    11.1283  14.0913  15.1461  15.1483  15.8640  16.0248  16.3862  16.4234
    16.6298  16.8951  17.6715  21.9481  24.8562

     occupation numbers 
     1.0000   1.0000   1.0000   1.0000   1.0000   1.0000   1.0000   1.0000
     1.0000   1.0000   1.0000   1.0000   1.0000   1.0000   1.0000   1.0000
     1.0000   1.0000   1.0000   0.0000   0.0000

          k = 0.0833 0.2406 0.1017 (  2867 PWs)   bands (ev):

   -77.6439 -77.6086 -41.0064 -40.8561 -40.8446 -40.7999 -40.7743 -40.7547
    11.3581  14.1155  14.9446  15.1954  15.7527  16.0188  16.2503  16.5392
    16.8097  16.8715  17.6347  20.5281  26.8511

     occupation numbers 
     1.0000   1.0000   1.0000   1.0000   1.0000   1.0000   1.0000   1.0000
     1.0000   1.0000   1.0000   1.0000   1.0000   1.0000   1.0000   1.0000
     1.0000   1.0000   1.0000   0.0000   0.0000

          k = 0.0833 0.2406 0.2034 (  2879 PWs)   bands (ev):

   -77.6365 -77.6161 -40.9749 -40.8827 -40.8350 -40.8006 -40.7793 -40.7641
    12.0079  13.8230  14.7726  15.3006  15.4875  15.9040  16.2171  16.5319
    17.0425  17.1429  17.5182  18.8809  30.2154

     occupation numbers 
     1.0000   1.0000   1.0000   1.0000   1.0000   1.0000   1.0000   1.0000
     1.0000   1.0000   1.0000   1.0000   1.0000   1.0000   1.0000   1.0000
     1.0000   1.0000   1.0000   0.0000   0.0000

          k = 0.0833 0.2406-0.3051 (  2892 PWs)   bands (ev):

   -77.6263 -77.6263 -40.9300 -40.9300 -40.8127 -40.8127 -40.7757 -40.7757
    12.9361  12.9361  15.0363  15.0363  15.6326  15.6326  16.3583  16.3583
    17.2909  17.2909  17.8108  17.8108  33.8593

     occupation numbers 
     1.0000   1.0000   1.0000   1.0000   1.0000   1.0000   1.0000   1.0000
     1.0000   1.0000   1.0000   1.0000   1.0000   1.0000   1.0000   1.0000
     1.0000   1.0000   1.0000   1.0000   0.0000

          k = 0.0833 0.3368 0.0000 (  2874 PWs)   bands (ev):

   -77.6339 -77.6011 -40.9862 -40.9200 -40.8860 -40.8195 -40.7909 -40.7648
    12.2751  14.2139  14.5892  15.0868  15.8362  15.8629  16.2203  16.7995
    17.1309  17.4602  17.7033  23.7679  25.2282

     occupation numbers 
     1.0000   1.0000   1.0000   1.0000   1.0000   1.0000   1.0000   1.0000
     1.0000   1.0000   1.0000   1.0000   1.0000   1.0000   1.0000   1.0000
     1.0000   1.0000   1.0000   0.0000   0.0000

          k = 0.0833 0.3368 0.1017 (  2866 PWs)   bands (ev):

   -77.6317 -77.6033 -40.9883 -40.9093 -40.8915 -40.8198 -40.7905 -40.7681
    12.4354  14.2677  14.5039  15.1303  15.6663  16.0596  16.1905  16.8322
    17.2127  17.3185  17.7208  21.7797  27.6205

     occupation numbers 
     1.0000   1.0000   1.0000   1.0000   1.0000   1.0000   1.0000   1.0000
     1.0000   1.0000   1.0000   1.0000   1.0000   1.0000   1.0000   1.0000
     1.0000   1.0000   1.0000   0.0000   0.0000

          k = 0.0833 0.3368 0.2034 (  2882 PWs)   bands (ev):

   -77.6257 -77.6093 -40.9827 -40.9310 -40.8641 -40.8171 -40.7954 -40.7775
    12.8696  14.0090  14.6236  15.1830  15.5926  16.0631  16.2745  16.8496
    17.2624  17.4268  17.6963  19.7287  30.1109

     occupation numbers 
     1.0000   1.0000   1.0000   1.0000   1.0000   1.0000   1.0000   1.0000
     1.0000   1.0000   1.0000   1.0000   1.0000   1.0000   1.0000   1.0000
     1.0000   1.0000   1.0000   0.0000   0.0000

          k = 0.0833 0.3368-0.3051 (  2884 PWs)   bands (ev):

   -77.6175 -77.6175 -40.9618 -40.9618 -40.8314 -40.8314 -40.7906 -40.7906
    13.4503  13.4503  14.9498  14.9498  15.8130  15.8130  16.5424  16.5424
    17.4985  17.4985  18.2656  18.2656  31.3002

     occupation numbers 
     1.0000   1.0000   1.0000   1.0000   1.0000   1.0000   1.0000   1.0000
     1.0000   1.0000   1.0000   1.0000   1.0000   1.0000   1.0000   1.0000
     1.0000   1.0000   1.0000   1.0000   0.0000

          k = 0.0833 0.4330 0.0000 (  2880 PWs)   bands (ev):

   -77.6219 -77.5980 -40.9715 -40.9529 -40.9303 -40.8392 -40.8107 -40.7763
    13.2852  14.0378  14.2137  15.3165  15.7190  16.0131  16.0561  17.3224
    17.5565  17.7220  18.2539  24.6953  25.7487

     occupation numbers 
     1.0000   1.0000   1.0000   1.0000   1.0000   1.0000   1.0000   1.0000
     1.0000   1.0000   1.0000   1.0000   1.0000   1.0000   1.0000   1.0000
     1.0000   1.0000   1.0000   0.0000   0.0000

          k = 0.0833 0.4330 0.1017 (  2885 PWs)   bands (ev):

   -77.6203 -77.5996 -40.9946 -40.9482 -40.9137 -40.8367 -40.8083 -40.7795
    13.2771  14.0501  14.3674  15.0614  15.7950  16.1041  16.3536  17.2736
    17.5513  17.6132  18.2509  22.8749  26.4950

     occupation numbers 
     1.0000   1.0000   1.0000   1.0000   1.0000   1.0000   1.0000   1.0000
     1.0000   1.0000   1.0000   1.0000   1.0000   1.0000   1.0000   1.0000
     1.0000   1.0000   1.0000   0.0000   0.0000

          k = 0.0833 0.4330 0.2034 (  2882 PWs)   bands (ev):

   -77.6159 -77.6040 -41.0071 -40.9750 -40.8718 -40.8286 -40.8103 -40.7880
    13.3556  13.9151  14.5544  15.0073  15.9004  16.3222  16.7494  17.0259
    17.4393  17.7570  18.3138  20.7581  27.2169

     occupation numbers 
     1.0000   1.0000   1.0000   1.0000   1.0000   1.0000   1.0000   1.0000
     1.0000   1.0000   1.0000   1.0000   1.0000   1.0000   1.0000   1.0000
     1.0000   1.0000   1.0000   0.0000   0.0000

          k = 0.0833 0.4330-0.3051 (  2874 PWs)   bands (ev):

   -77.6100 -77.6100 -40.9990 -40.9990 -40.8393 -40.8393 -40.8021 -40.8021
    13.5922  13.5922  14.8270  14.8270  16.3284  16.3284  16.7112  16.7112
    17.7061  17.7061  19.1207  19.1207  28.2389

     occupation numbers 
     1.0000   1.0000   1.0000   1.0000   1.0000   1.0000   1.0000   1.0000
     1.0000   1.0000   1.0000   1.0000   1.0000   1.0000   1.0000   1.0000
     1.0000   1.0000   0.0000   0.0000   0.0000

          k = 0.0833 0.5292 0.0000 (  2893 PWs)   bands (ev):

   -77.6140 -77.5972 -41.0013 -40.9559 -40.9277 -40.8503 -40.8282 -40.7830
    13.7343  13.8746  14.0269  15.6823  15.6837  15.8659  16.2120  17.7019
    17.7297  17.7790  19.5289  22.4625  27.6447

     occupation numbers 
     1.0000   1.0000   1.0000   1.0000   1.0000   1.0000   1.0000   1.0000
     1.0000   1.0000   1.0000   1.0000   1.0000   1.0000   1.0000   1.0000
     1.0000   1.0000   0.0000   0.0000   0.0000

          k = 0.0833 0.5292 0.1017 (  2883 PWs)   bands (ev):

   -77.6129 -77.5983 -41.0148 -40.9712 -40.9054 -40.8448 -40.8238 -40.7862
    13.5214  13.8830  14.4486  15.0032  15.7288  16.2823  16.6273  17.5275
    17.7160  17.8066  19.4635  22.1942  26.4265

     occupation numbers 
     1.0000   1.0000   1.0000   1.0000   1.0000   1.0000   1.0000   1.0000
     1.0000   1.0000   1.0000   1.0000   1.0000   1.0000   1.0000   1.0000
     1.0000   1.0000   0.0000   0.0000   0.0000

          k = 0.0833 0.5292 0.2034 (  2881 PWs)   bands (ev):

   -77.6098 -77.6014 -41.0278 -41.0003 -40.8701 -40.8307 -40.8230 -40.7939
    13.4311  13.8523  14.5831  14.8660  15.8969  16.6180  17.0062  17.2791
    17.6773  17.8659  19.5058  21.3333  25.7410

     occupation numbers 
     1.0000   1.0000   1.0000   1.0000   1.0000   1.0000   1.0000   1.0000
     1.0000   1.0000   1.0000   1.0000   1.0000   1.0000   1.0000   1.0000
     1.0000   1.0000   0.0000   0.0000   0.0000

          k = 0.0833 0.5292-0.3051 (  2890 PWs)   bands (ev):

   -77.6056 -77.6056 -41.0228 -41.0228 -40.8427 -40.8427 -40.8074 -40.8074
    13.5828  13.5828  14.7417  14.7417  16.4254  16.4254  17.1410  17.1410
    17.7468  17.7468  20.2244  20.2244  26.0210

     occupation numbers 
     1.0000   1.0000   1.0000   1.0000   1.0000   1.0000   1.0000   1.0000
     1.0000   1.0000   1.0000   1.0000   1.0000   1.0000   1.0000   1.0000
     1.0000   1.0000   0.0000   0.0000   0.0000

          k = 0.1667 0.2887 0.0000 (  2872 PWs)   bands (ev):

   -77.6357 -77.6017 -40.9908 -40.8969 -40.8883 -40.8128 -40.7884 -40.7726
    12.1299  14.3983  14.7015  14.8570  15.7604  15.8691  16.3223  16.5506
    17.1176  17.4848  17.6628  23.5118  25.2574

     occupation numbers 
     1.0000   1.0000   1.0000   1.0000   1.0000   1.0000   1.0000   1.0000
     1.0000   1.0000   1.0000   1.0000   1.0000   1.0000   1.0000   1.0000
     1.0000   1.0000   1.0000   0.0000   0.0000

          k = 0.1667 0.2887 0.1017 (  2868 PWs)   bands (ev):

   -77.6334 -77.6040 -40.9887 -40.8960 -40.8841 -40.8214 -40.7837 -40.7762
    12.3116  14.4890  14.5589  14.9085  15.7168  15.8786  16.2151  16.6502
    17.2277  17.3069  17.7350  21.6428  27.5935

     occupation numbers 
     1.0000   1.0000   1.0000   1.0000   1.0000   1.0000   1.0000   1.0000
     1.0000   1.0000   1.0000   1.0000   1.0000   1.0000   1.0000   1.0000
     1.0000   1.0000   1.0000   0.0000   0.0000

          k = 0.1667 0.2887 0.2034 (  2875 PWs)   bands (ev):

   -77.6272 -77.6102 -40.9772 -40.9209 -40.8557 -40.8260 -40.7855 -40.7849
    12.8099  14.1265  14.7361  15.0556  15.5306  15.7491  16.2212  16.7876
    17.2636  17.4171  17.7713  19.6532  30.9248

     occupation numbers 
     1.0000   1.0000   1.0000   1.0000   1.0000   1.0000   1.0000   1.0000
     1.0000   1.0000   1.0000   1.0000   1.0000   1.0000   1.0000   1.0000
     1.0000   1.0000   1.0000   0.0000   0.0000

          k = 0.1667 0.2887-0.3051 (  2892 PWs)   bands (ev):

   -77.6187 -77.6187 -40.9527 -40.9527 -40.8314 -40.8314 -40.7911 -40.7911
    13.4831  13.4831  15.0446  15.0446  15.4802  15.4802  16.4911  16.4911
    17.5464  17.5464  18.2475  18.2475  33.0268

     occupation numbers 
     1.0000   1.0000   1.0000   1.0000   1.0000   1.0000   1.0000   1.0000
     1.0000   1.0000   1.0000   1.0000   1.0000   1.0000   1.0000   1.0000
     1.0000   1.0000   1.0000   1.0000   0.0000

          k = 0.1667 0.3849 0.0000 (  2879 PWs)   bands (ev):

   -77.6239 -77.5984 -40.9588 -40.9424 -40.9224 -40.8399 -40.8069 -40.7932
    13.2289  14.3560  14.3790  14.8397  15.6003  16.0081  16.1238  16.8663
    17.5517  17.6516  18.2905  25.3563  25.7067

     occupation numbers 
     1.0000   1.0000   1.0000   1.0000   1.0000   1.0000   1.0000   1.0000
     1.0000   1.0000   1.0000   1.0000   1.0000   1.0000   1.0000   1.0000
     1.0000   1.0000   1.0000   0.0000   0.0000

          k = 0.1667 0.3849 0.1017 (  2881 PWs)   bands (ev):

   -77.6222 -77.6001 -40.9790 -40.9392 -40.9027 -40.8467 -40.8030 -40.7931
    13.3036  14.2906  14.4715  14.9163  15.6424  16.0039  16.0830  16.9079
    17.4529  17.6350  18.3669  22.9367  27.9250

     occupation numbers 
     1.0000   1.0000   1.0000   1.0000   1.0000   1.0000   1.0000   1.0000
     1.0000   1.0000   1.0000   1.0000   1.0000   1.0000   1.0000   1.0000
     1.0000   1.0000   1.0000   0.0000   0.0000

          k = 0.1667 0.3849 0.2034 (  2875 PWs)   bands (ev):

   -77.6175 -77.6047 -40.9895 -40.9593 -40.8679 -40.8472 -40.8073 -40.7925
    13.5086  14.0903  14.7069  15.1300  15.5596  15.8547  16.2235  16.8955
    17.3688  17.7763  18.5409  20.7719  28.9340

     occupation numbers 
     1.0000   1.0000   1.0000   1.0000   1.0000   1.0000   1.0000   1.0000
     1.0000   1.0000   1.0000   1.0000   1.0000   1.0000   1.0000   1.0000
     1.0000   1.0000   0.0000   0.0000   0.0000

          k = 0.1667 0.3849-0.3051 (  2874 PWs)   bands (ev):

   -77.6111 -77.6111 -40.9810 -40.9810 -40.8485 -40.8485 -40.8023 -40.8023
    13.7959  13.7959  15.0314  15.0314  15.6465  15.6465  16.4951  16.4951
    17.7538  17.7538  19.2132  19.2132  30.0603

     occupation numbers 
     1.0000   1.0000   1.0000   1.0000   1.0000   1.0000   1.0000   1.0000
     1.0000   1.0000   1.0000   1.0000   1.0000   1.0000   1.0000   1.0000
     1.0000   1.0000   0.0000   0.0000   0.0000

          k = 0.1667 0.4811 0.0000 (  2891 PWs)   bands (ev):

   -77.6140 -77.5971 -40.9785 -40.9402 -40.9280 -40.8650 -40.8278 -40.8073
    13.9219  14.1451  14.1770  15.1513  15.5602  15.9031  16.2086  17.2873
    17.6430  17.7587  19.4676  24.1248  27.3594

     occupation numbers 
     1.0000   1.0000   1.0000   1.0000   1.0000   1.0000   1.0000   1.0000
     1.0000   1.0000   1.0000   1.0000   1.0000   1.0000   1.0000   1.0000
     1.0000   1.0000   0.0000   0.0000   0.0000

          k = 0.1667 0.4811 0.1017 (  2889 PWs)   bands (ev):

   -77.6129 -77.5983 -40.9926 -40.9581 -40.9042 -40.8622 -40.8253 -40.8043
    13.7615  14.2296  14.4111  14.9557  15.6098  16.0459  16.2931  17.2747
    17.4608  17.8162  19.5458  23.5371  26.2645

     occupation numbers 
     1.0000   1.0000   1.0000   1.0000   1.0000   1.0000   1.0000   1.0000
     1.0000   1.0000   1.0000   1.0000   1.0000   1.0000   1.0000   1.0000
     1.0000   1.0000   0.0000   0.0000   0.0000

          k = 0.1667 0.4811 0.2034 (  2880 PWs)   bands (ev):

   -77.6098 -77.6014 -41.0070 -40.9839 -40.8817 -40.8512 -40.8237 -40.7989
    13.7172  14.1437  14.6039  15.1219  15.5107  16.1802  16.5245  16.9739
    17.4610  17.8859  19.8470  22.0121  26.3799

     occupation numbers 
     1.0000   1.0000   1.0000   1.0000   1.0000   1.0000   1.0000   1.0000
     1.0000   1.0000   1.0000   1.0000   1.0000   1.0000   1.0000   1.0000
     1.0000   1.0000   0.0000   0.0000   0.0000

          k = 0.1667 0.4811-0.3051 (  2880 PWs)   bands (ev):

   -77.6056 -77.6056 -41.0038 -41.0038 -40.8628 -40.8628 -40.8066 -40.8066
    13.8674  13.8674  14.9281  14.9281  15.9092  15.9092  16.6790  16.6790
    17.7580  17.7580  20.6335  20.6335  27.2469

     occupation numbers 
     1.0000   1.0000   1.0000   1.0000   1.0000   1.0000   1.0000   1.0000
     1.0000   1.0000   1.0000   1.0000   1.0000   1.0000   1.0000   1.0000
     1.0000   1.0000   0.0000   0.0000   0.0000

          k = 0.1667 0.5774 0.0000 (  2892 PWs)   bands (ev):

   -77.6097 -77.5974 -40.9915 -40.9459 -40.9125 -40.8752 -40.8397 -40.8123
    14.0747  14.0785  14.0928  15.3731  15.5900  15.7783  16.2945  17.5743
    17.6396  17.7259  20.7353  22.2917  28.7724

     occupation numbers 
     1.0000   1.0000   1.0000   1.0000   1.0000   1.0000   1.0000   1.0000
     1.0000   1.0000   1.0000   1.0000   1.0000   1.0000   1.0000   1.0000
     1.0000   1.0000   0.0000   0.0000   0.0000

          k = 0.1667 0.5774 0.1017 (  2892 PWs)   bands (ev):

   -77.6089 -77.5982 -41.0025 -40.9621 -40.9048 -40.8597 -40.8390 -40.8089
    13.7840  14.1477  14.5738  14.9346  15.5321  16.1690  16.3849  17.4340
    17.5713  17.7723  20.8275  22.2393  27.5357

     occupation numbers 
     1.0000   1.0000   1.0000   1.0000   1.0000   1.0000   1.0000   1.0000
     1.0000   1.0000   1.0000   1.0000   1.0000   1.0000   1.0000   1.0000
     1.0000   1.0000   0.0000   0.0000   0.0000

          k = 0.1667 0.5774 0.2034 (  2883 PWs)   bands (ev):

   -77.6066 -77.6005 -41.0154 -40.9916 -40.8886 -40.8495 -40.8297 -40.8019
    13.7147  14.1566  14.6414  15.0754  15.4299  16.3757  16.6498  17.0421
    17.5877  17.8087  21.1199  22.0331  26.2819

     occupation numbers 
     1.0000   1.0000   1.0000   1.0000   1.0000   1.0000   1.0000   1.0000
     1.0000   1.0000   1.0000   1.0000   1.0000   1.0000   1.0000   1.0000
     1.0000   1.0000   0.0000   0.0000   0.0000

          k = 0.1667 0.5774-0.3051 (  2886 PWs)   bands (ev):

   -77.6035 -77.6035 -41.0124 -41.0124 -40.8685 -40.8685 -40.8074 -40.8074
    13.8712  13.8712  14.8884  14.8884  15.9455  15.9455  16.8844  16.8844
    17.6967  17.6967  21.6021  21.6021  25.8094

     occupation numbers 
     1.0000   1.0000   1.0000   1.0000   1.0000   1.0000   1.0000   1.0000
     1.0000   1.0000   1.0000   1.0000   1.0000   1.0000   1.0000   1.0000
     1.0000   1.0000   0.0000   0.0000   0.0000

          k = 0.2500 0.4330 0.0000 (  2886 PWs)   bands (ev):

   -77.6140 -77.5971 -40.9586 -40.9396 -40.9282 -40.8675 -40.8276 -40.8255
    14.0601  14.2138  14.5829  14.6139  15.4842  15.9281  16.2171  17.0453
    17.5981  17.7606  19.4800  25.8470  26.6855

     occupation numbers 
     1.0000   1.0000   1.0000   1.0000   1.0000   1.0000   1.0000   1.0000
     1.0000   1.0000   1.0000   1.0000   1.0000   1.0000   1.0000   1.0000
     1.0000   1.0000   0.0000   0.0000   0.0000

          k = 0.2500 0.4330 0.1017 (  2885 PWs)   bands (ev):

   -77.6129 -77.5983 -40.9708 -40.9629 -40.8919 -40.8803 -40.8278 -40.8132
    14.0594  14.1665  14.6234  14.7546  15.6324  15.7841  16.2195  17.0881
    17.4051  17.8223  19.5979  24.2714  26.9593

     occupation numbers 
     1.0000   1.0000   1.0000   1.0000   1.0000   1.0000   1.0000   1.0000
     1.0000   1.0000   1.0000   1.0000   1.0000   1.0000   1.0000   1.0000
     1.0000   1.0000   0.0000   0.0000   0.0000

          k = 0.2500 0.4330 0.2034 (  2889 PWs)   bands (ev):

   -77.6098 -77.6014 -40.9912 -40.9776 -40.8850 -40.8681 -40.8239 -40.8009
    14.0500  14.1102  14.7812  15.1217  15.4676  15.7410  16.2648  16.8828
    17.4280  17.8938  19.9613  22.2768  27.7183

     occupation numbers 
     1.0000   1.0000   1.0000   1.0000   1.0000   1.0000   1.0000   1.0000
     1.0000   1.0000   1.0000   1.0000   1.0000   1.0000   1.0000   1.0000
     1.0000   1.0000   0.0000   0.0000   0.0000

          k = 0.2500 0.4330-0.3051 (  2890 PWs)   bands (ev):

   -77.6056 -77.6056 -40.9920 -40.9920 -40.8750 -40.8750 -40.8063 -40.8063
    14.0671  14.0671  15.0869  15.0869  15.5361  15.5361  16.4723  16.4723
    17.7771  17.7771  20.7863  20.7863  28.7162

     occupation numbers 
     1.0000   1.0000   1.0000   1.0000   1.0000   1.0000   1.0000   1.0000
     1.0000   1.0000   1.0000   1.0000   1.0000   1.0000   1.0000   1.0000
     1.0000   1.0000   0.0000   0.0000   0.0000

          k = 0.2500 0.5292 0.0000 (  2889 PWs)   bands (ev):

   -77.6067 -77.5980 -40.9706 -40.9316 -40.9009 -40.8966 -40.8492 -40.8463
    14.1508  14.3497  14.4424  14.9349  15.5006  15.7220  16.3828  17.3275
    17.5667  17.6887  21.1411  23.6985  26.0332

     occupation numbers 
     1.0000   1.0000   1.0000   1.0000   1.0000   1.0000   1.0000   1.0000
     1.0000   1.0000   1.0000   1.0000   1.0000   1.0000   1.0000   1.0000
     1.0000   1.0000   0.0000   0.0000   0.0000

          k = 0.2500 0.5292 0.1017 (  2890 PWs)   bands (ev):

   -77.6062 -77.5986 -40.9771 -40.9528 -40.9147 -40.8715 -40.8515 -40.8274
    14.0947  14.4686  14.5593  14.8260  15.5254  15.7322  16.3967  17.3276
    17.3886  17.7326  21.3204  23.7089  26.0497

     occupation numbers 
     1.0000   1.0000   1.0000   1.0000   1.0000   1.0000   1.0000   1.0000
     1.0000   1.0000   1.0000   1.0000   1.0000   1.0000   1.0000   1.0000
     1.0000   1.0000   0.0000   0.0000   0.0000

          k = 0.2500 0.5292 0.2034 (  2888 PWs)   bands (ev):

   -77.6046 -77.6002 -40.9920 -40.9785 -40.9132 -40.8771 -40.8260 -40.8080
    14.1067  14.4533  14.7094  15.0073  15.3871  15.7601  16.4535  16.9026
    17.5033  17.7757  21.8019  23.3936  25.9396

     occupation numbers 
     1.0000   1.0000   1.0000   1.0000   1.0000   1.0000   1.0000   1.0000
     1.0000   1.0000   1.0000   1.0000   1.0000   1.0000   1.0000   1.0000
     1.0000   1.0000   0.0000   0.0000   0.0000

          k = 0.2500 0.5292-0.3051 (  2896 PWs)   bands (ev):

   -77.6024 -77.6024 -40.9943 -40.9943 -40.8963 -40.8963 -40.8067 -40.8067
    14.2383  14.2383  14.9892  14.9892  15.5400  15.5400  16.5814  16.5814
    17.6900  17.6900  22.5550  22.5550  26.4725

     occupation numbers 
     1.0000   1.0000   1.0000   1.0000   1.0000   1.0000   1.0000   1.0000
     1.0000   1.0000   1.0000   1.0000   1.0000   1.0000   1.0000   1.0000
     1.0000   1.0000   0.0000   0.0000   0.0000

          k = 0.3333 0.5774 0.0000 (  2880 PWs)   bands (ev):

   -77.6012 -77.6012 -40.9601 -40.9167 -40.9167 -40.8740 -40.8740 -40.8712
    14.1661  14.5476  14.5476  14.8116  15.5613  15.5613  16.4802  17.4751
    17.4751  17.5364  22.8906  23.7008  23.7008

     occupation numbers 
     1.0000   1.0000   1.0000   1.0000   1.0000   1.0000   1.0000   1.0000
     1.0000   1.0000   1.0000   1.0000   1.0000   1.0000   1.0000   1.0000
     1.0000   1.0000   0.0000   0.0000   0.0000

          k = 0.3333 0.5774 0.1017 (  2883 PWs)   bands (ev):

   -77.6012 -77.6012 -40.9542 -40.9434 -40.9434 -40.8772 -40.8472 -40.8472
    14.2571  14.5630  14.5630  14.8281  15.5400  15.5400  16.4556  17.3179
    17.5191  17.5191  23.2745  23.7707  23.7707

     occupation numbers 
     1.0000   1.0000   1.0000   1.0000   1.0000   1.0000   1.0000   1.0000
     1.0000   1.0000   1.0000   1.0000   1.0000   1.0000   1.0000   1.0000
     1.0000   1.0000   0.0000   0.0000   0.0000

          k = 0.3333 0.5774 0.2034 (  2880 PWs)   bands (ev):

   -77.6012 -77.6012 -40.9728 -40.9728 -40.9380 -40.8935 -40.8176 -40.8176
    14.4897  14.5914  14.5914  14.8367  15.5042  15.5042  16.4257  16.8669
    17.6039  17.6039  23.9443  23.9443  24.2665

     occupation numbers 
     1.0000   1.0000   1.0000   1.0000   1.0000   1.0000   1.0000   1.0000
     1.0000   1.0000   1.0000   1.0000   1.0000   1.0000   1.0000   1.0000
     1.0000   1.0000   0.0000   0.0000   0.0000

          k = 0.3333 0.5774-0.3051 (  2910 PWs)   bands (ev):

   -77.6012 -77.6012 -40.9839 -40.9839 -40.9158 -40.9158 -40.8064 -40.8064
    14.6043  14.6043  14.7323  14.7323  15.4895  15.4895  16.5233  16.5233
    17.6448  17.6448  24.0563  24.0563  25.6425

     occupation numbers 
     1.0000   1.0000   1.0000   1.0000   1.0000   1.0000   1.0000   1.0000
     1.0000   1.0000   1.0000   1.0000   1.0000   1.0000   1.0000   1.0000
     1.0000   1.0000   0.0000   0.0000   0.0000

 ------ SPIN DOWN ----------


          k = 0.0000 0.0000 0.0000 (  2875 PWs)   bands (ev):

   -75.5210 -75.4658 -38.9798 -38.6861 -38.6861 -38.6459 -38.6400 -38.6400
     9.5290  14.2664  17.4494  17.5699  17.5699  17.9178  17.9178  18.0376
    18.4081  18.4081  19.5714  19.5714  25.5674

     occupation numbers 
     1.0000   1.0000   1.0000   1.0000   1.0000   1.0000   1.0000   1.0000
     1.0000   1.0000   1.0000   1.0000   1.0000   1.0000   1.0000   1.0000
     1.0000   1.0000   0.0000   0.0000   0.0000

          k = 0.0000 0.0000 0.1017 (  2876 PWs)   bands (ev):

   -75.5173 -75.4695 -38.9578 -38.6830 -38.6830 -38.6686 -38.6431 -38.6431
     9.8005  14.0171  17.3613  17.4927  17.5136  17.5136  17.8415  17.8415
    18.5699  18.5699  19.5526  19.5526  26.8481

     occupation numbers 
     1.0000   1.0000   1.0000   1.0000   1.0000   1.0000   1.0000   1.0000
     1.0000   1.0000   1.0000   1.0000   1.0000   1.0000   1.0000   1.0000
     0.0000   0.0000   0.0000   0.0000   0.0000

          k = 0.0000 0.0000 0.2034 (  2888 PWs)   bands (ev):

   -75.5072 -75.4796 -38.8973 -38.7303 -38.6746 -38.6746 -38.6515 -38.6515
    10.5867  13.1084  16.9159  17.1376  17.4650  17.4650  17.6726  17.6726
    18.9048  18.9048  19.4559  19.4559  29.7592

     occupation numbers 
     1.0000   1.0000   1.0000   1.0000   1.0000   1.0000   1.0000   1.0000
     1.0000   1.0000   1.0000   1.0000   1.0000   1.0000   1.0000   1.0000
     0.0000   0.0000   0.0000   0.0000   0.0000

[...]
    19.7330  19.7575  20.9016  23.3941  28.1631

     occupation numbers 
     1.0000   1.0000   1.0000   1.0000   1.0000   1.0000   1.0000   1.0000
     1.0000   1.0000   1.0000   1.0000   1.0000   1.0000   1.0000   0.0000
     0.0000   0.0000   0.0000   0.0000   0.0000

          k = 0.0833 0.5292 0.1017 (  2883 PWs)   bands (ev):

   -75.4635 -75.4479 -38.9492 -38.9024 -38.8121 -38.7647 -38.7225 -38.7003
    14.4876  15.0968  15.6386  16.1818  17.4189  17.8769  17.9123  19.5060
    19.6602  19.7686  20.7676  23.0504  27.1637

     occupation numbers 
     1.0000   1.0000   1.0000   1.0000   1.0000   1.0000   1.0000   1.0000
     1.0000   1.0000   1.0000   1.0000   1.0000   1.0000   1.0000   0.0000
     0.0000   0.0000   0.0000   0.0000   0.0000

          k = 0.0833 0.5292 0.2034 (  2881 PWs)   bands (ev):

   -75.4602 -75.4512 -38.9613 -38.9322 -38.7788 -38.7443 -38.7305 -38.7038
    14.4669  14.9356  15.9355  16.2321  17.4543  18.2076  18.3895  19.0602
    19.6148  19.8439  20.5600  22.1149  26.6596

     occupation numbers 
     1.0000   1.0000   1.0000   1.0000   1.0000   1.0000   1.0000   1.0000
     1.0000   1.0000   1.0000   1.0000   1.0000   1.0000   1.0000   0.0000
     0.0000   0.0000   0.0000   0.0000   0.0000

          k = 0.0833 0.5292-0.3051 (  2890 PWs)   bands (ev):

   -75.4557 -75.4557 -38.9557 -38.9557 -38.7523 -38.7523 -38.7174 -38.7174
    14.6407  14.6407  16.1820  16.1820  17.9471  17.9471  18.7155  18.7155
    19.6993  19.6993  21.0769  21.0769  26.9191

     occupation numbers 
     1.0000   1.0000   1.0000   1.0000   1.0000   1.0000   1.0000   1.0000
     1.0000   1.0000   1.0000   1.0000   1.0000   1.0000   0.0000   0.0000
     0.0000   0.0000   0.0000   0.0000   0.0000

          k = 0.1667 0.2887 0.0000 (  2872 PWs)   bands (ev):

   -75.4882 -75.4515 -38.9018 -38.8230 -38.8142 -38.7309 -38.6873 -38.6805
    12.2049  15.6101  15.8944  16.2906  17.4737  17.4742  18.0414  18.3406
    18.9577  19.3051  19.6798  24.3178  26.0311

     occupation numbers 
     1.0000   1.0000   1.0000   1.0000   1.0000   1.0000   1.0000   1.0000
     1.0000   1.0000   1.0000   1.0000   1.0000   1.0000   1.0000   1.0000
     0.0000   0.0000   0.0000   0.0000   0.0000

          k = 0.1667 0.2887 0.1017 (  2868 PWs)   bands (ev):

   -75.4857 -75.4540 -38.9027 -38.8209 -38.8058 -38.7364 -38.6912 -38.6809
    12.4134  15.5004  15.8300  16.3555  17.3652  17.4991  17.9419  18.4535
    19.0809  19.1804  19.6898  22.6897  28.2029

     occupation numbers 
     1.0000   1.0000   1.0000   1.0000   1.0000   1.0000   1.0000   1.0000
     1.0000   1.0000   1.0000   1.0000   1.0000   1.0000   1.0000   0.7564
     0.0000   0.0000   0.0000   0.0000   0.0000

          k = 0.1667 0.2887 0.2034 (  2875 PWs)   bands (ev):

   -75.4790 -75.4607 -38.8953 -38.8434 -38.7699 -38.7394 -38.7005 -38.6897
    13.0053  14.8038  16.0838  16.5207  17.0864  17.3436  17.9974  18.5769
    19.1606  19.2989  19.6461  21.0147  31.4146

     occupation numbers 
     1.0000   1.0000   1.0000   1.0000   1.0000   1.0000   1.0000   1.0000
     1.0000   1.0000   1.0000   1.0000   1.0000   1.0000   1.0000   0.0000
     0.0000   0.0000   0.0000   0.0000   0.0000

          k = 0.1667 0.2887-0.3051 (  2892 PWs)   bands (ev):

   -75.4699 -75.4699 -38.8732 -38.8732 -38.7419 -38.7419 -38.7041 -38.7041
    13.8707  13.8707  16.4533  16.4533  17.0410  17.0410  18.2952  18.2952
    19.4812  19.4812  19.8652  19.8652  33.4532

     occupation numbers 
     1.0000   1.0000   1.0000   1.0000   1.0000   1.0000   1.0000   1.0000
     1.0000   1.0000   1.0000   1.0000   1.0000   1.0000   1.0000   1.0000
     0.0000   0.0000   0.0000   0.0000   0.0000

          k = 0.1667 0.3849 0.0000 (  2879 PWs)   bands (ev):

   -75.4755 -75.4479 -38.8731 -38.8667 -38.8510 -38.7605 -38.7097 -38.7006
    13.4614  15.6151  15.6851  16.1087  17.2666  17.6035  17.7995  18.6893
    19.4558  19.6668  20.0307  26.0705  26.3329

     occupation numbers 
     1.0000   1.0000   1.0000   1.0000   1.0000   1.0000   1.0000   1.0000
     1.0000   1.0000   1.0000   1.0000   1.0000   1.0000   1.0000   0.0000
     0.0000   0.0000   0.0000   0.0000   0.0000

          k = 0.1667 0.3849 0.1017 (  2881 PWs)   bands (ev):

   -75.4736 -75.4498 -38.9006 -38.8673 -38.8186 -38.7648 -38.7152 -38.6951
    13.6069  15.4753  15.7843  16.2083  17.2241  17.5879  17.7544  18.7424
    19.4137  19.5549  20.1278  23.7782  28.5439

     occupation numbers 
     1.0000   1.0000   1.0000   1.0000   1.0000   1.0000   1.0000   1.0000
     1.0000   1.0000   1.0000   1.0000   1.0000   1.0000   1.0000   0.0000
     0.0000   0.0000   0.0000   0.0000   0.0000

          k = 0.1667 0.3849 0.2034 (  2875 PWs)   bands (ev):

   -75.4686 -75.4548 -38.9144 -38.8868 -38.7801 -38.7622 -38.7225 -38.6956
    14.0062  15.0928  16.0567  16.4127  17.0733  17.3242  17.9430  18.7450
    19.2631  19.7324  20.2066  21.8313  29.5401

     occupation numbers 
     1.0000   1.0000   1.0000   1.0000   1.0000   1.0000   1.0000   1.0000
     1.0000   1.0000   1.0000   1.0000   1.0000   1.0000   1.0000   0.0000
     0.0000   0.0000   0.0000   0.0000   0.0000

          k = 0.1667 0.3849-0.3051 (  2874 PWs)   bands (ev):

   -75.4617 -75.4617 -38.9075 -38.9075 -38.7621 -38.7621 -38.7111 -38.7111
    14.5528  14.5528  16.3882  16.3882  17.0532  17.0532  18.3064  18.3064
    19.7199  19.7199  20.5433  20.5433  30.6246

     occupation numbers 
     1.0000   1.0000   1.0000   1.0000   1.0000   1.0000   1.0000   1.0000
     1.0000   1.0000   1.0000   1.0000   1.0000   1.0000   1.0000   1.0000
     0.0000   0.0000   0.0000   0.0000   0.0000

          k = 0.1667 0.4811 0.0000 (  2891 PWs)   bands (ev):

   -75.4648 -75.4466 -38.9125 -38.8703 -38.8329 -38.7878 -38.7250 -38.7234
    14.5685  15.4559  15.4615  16.1629  17.2051  17.5267  17.8373  19.1550
    19.6566  19.7031  20.9401  24.8740  27.9626

     occupation numbers 
     1.0000   1.0000   1.0000   1.0000   1.0000   1.0000   1.0000   1.0000
     1.0000   1.0000   1.0000   1.0000   1.0000   1.0000   1.0000   0.0000
     0.0000   0.0000   0.0000   0.0000   0.0000

          k = 0.1667 0.4811 0.1017 (  2889 PWs)   bands (ev):

   -75.4636 -75.4478 -38.9239 -38.8870 -38.8152 -38.7801 -38.7355 -38.7101
    14.5848  15.4021  15.6275  16.1943  17.2127  17.4963  17.9225  19.1539
    19.4296  19.7752  20.9870  24.2342  27.0396

     occupation numbers 
     1.0000   1.0000   1.0000   1.0000   1.0000   1.0000   1.0000   1.0000
     1.0000   1.0000   1.0000   1.0000   1.0000   1.0000   1.0000   0.0000
     0.0000   0.0000   0.0000   0.0000   0.0000

          k = 0.1667 0.4811 0.2034 (  2880 PWs)   bands (ev):

   -75.4603 -75.4512 -38.9374 -38.9136 -38.7982 -38.7644 -38.7356 -38.7024
    14.6862  15.1999  15.9482  16.4455  17.0402  17.4741  18.1553  18.8563
    19.3716  19.8681  21.1313  22.7975  27.1940

     occupation numbers 
     1.0000   1.0000   1.0000   1.0000   1.0000   1.0000   1.0000   1.0000
     1.0000   1.0000   1.0000   1.0000   1.0000   1.0000   1.0000   0.0000
     0.0000   0.0000   0.0000   0.0000   0.0000

          k = 0.1667 0.4811-0.3051 (  2880 PWs)   bands (ev):

   -75.4557 -75.4557 -38.9340 -38.9340 -38.7795 -38.7795 -38.7122 -38.7122
    14.9092  14.9092  16.3418  16.3418  17.2195  17.2195  18.4335  18.4335
    19.7108  19.7108  21.6448  21.6448  27.9905

     occupation numbers 
     1.0000   1.0000   1.0000   1.0000   1.0000   1.0000   1.0000   1.0000
     1.0000   1.0000   1.0000   1.0000   1.0000   1.0000   0.9972   0.9972
     0.0000   0.0000   0.0000   0.0000   0.0000

          k = 0.1667 0.5774 0.0000 (  2892 PWs)   bands (ev):

   -75.4601 -75.4469 -38.9268 -38.8765 -38.8158 -38.7990 -38.7364 -38.7305
    15.0347  15.3226  15.4052  16.2281  17.2659  17.3428  17.9416  19.4845
    19.6525  19.6717  21.8457  23.3197  29.1735

     occupation numbers 
     1.0000   1.0000   1.0000   1.0000   1.0000   1.0000   1.0000   1.0000
     1.0000   1.0000   1.0000   1.0000   1.0000   1.0000   1.0000   0.0000
     0.0000   0.0000   0.0000   0.0000   0.0000

          k = 0.1667 0.5774 0.1017 (  2892 PWs)   bands (ev):

   -75.4592 -75.4478 -38.9360 -38.8921 -38.8180 -38.7742 -38.7472 -38.7172
    14.8846  15.3635  15.7711  16.0456  17.1742  17.5267  18.0351  19.4049
    19.4843  19.7295  21.8709  23.2194  28.1502

     occupation numbers 
     1.0000   1.0000   1.0000   1.0000   1.0000   1.0000   1.0000   1.0000
     1.0000   1.0000   1.0000   1.0000   1.0000   1.0000   1.0000   0.0000
     0.0000   0.0000   0.0000   0.0000   0.0000

          k = 0.1667 0.5774 0.2034 (  2883 PWs)   bands (ev):

   -75.4568 -75.4502 -38.9476 -38.9221 -38.8066 -38.7646 -38.7376 -38.7060
    14.8413  15.2610  16.0178  16.3573  16.9548  17.6478  18.3017  18.9228
    19.5142  19.7767  21.9913  22.8894  27.0847

     occupation numbers 
     1.0000   1.0000   1.0000   1.0000   1.0000   1.0000   1.0000   1.0000
     1.0000   1.0000   1.0000   1.0000   1.0000   1.0000   1.0000   0.0000
     0.0000   0.0000   0.0000   0.0000   0.0000

          k = 0.1667 0.5774-0.3051 (  2886 PWs)   bands (ev):

   -75.4535 -75.4535 -38.9439 -38.9439 -38.7863 -38.7863 -38.7120 -38.7120
    14.9937  14.9937  16.3326  16.3326  17.2749  17.2749  18.5940  18.5940
    19.6469  19.6469  22.3793  22.3793  26.7184

     occupation numbers 
     1.0000   1.0000   1.0000   1.0000   1.0000   1.0000   1.0000   1.0000
     1.0000   1.0000   1.0000   1.0000   1.0000   1.0000   0.0000   0.0000
     0.0000   0.0000   0.0000   0.0000   0.0000

          k = 0.2500 0.4330 0.0000 (  2886 PWs)   bands (ev):

   -75.4648 -75.4466 -38.8907 -38.8696 -38.8331 -38.7908 -38.7448 -38.7232
    14.5791  15.5334  15.8037  15.8420  17.1082  17.5563  17.8431  18.8999
    19.6049  19.7021  20.9842  26.4121  27.3014

     occupation numbers 
     1.0000   1.0000   1.0000   1.0000   1.0000   1.0000   1.0000   1.0000
     1.0000   1.0000   1.0000   1.0000   1.0000   1.0000   1.0000   0.0000
     0.0000   0.0000   0.0000   0.0000   0.0000

          k = 0.2500 0.4330 0.1017 (  2885 PWs)   bands (ev):

   -75.4636 -75.4478 -38.8958 -38.8943 -38.8021 -38.8011 -38.7467 -38.7121
    14.6568  15.4496  15.8697  16.0211  17.1443  17.3750  17.8591  18.9516
    19.3695  19.7818  21.0811  24.9372  27.5806

     occupation numbers 
     1.0000   1.0000   1.0000   1.0000   1.0000   1.0000   1.0000   1.0000
     1.0000   1.0000   1.0000   1.0000   1.0000   1.0000   1.0000   0.0000
     0.0000   0.0000   0.0000   0.0000   0.0000

          k = 0.2500 0.4330 0.2034 (  2889 PWs)   bands (ev):

   -75.4603 -75.4511 -38.9181 -38.9072 -38.8058 -38.7833 -38.7353 -38.7022
    14.8559  15.3037  16.0830  16.3628  16.9920  17.1080  17.9588  18.7557
    19.3298  19.8774  21.3077  23.1061  28.3393

     occupation numbers 
     1.0000   1.0000   1.0000   1.0000   1.0000   1.0000   1.0000   1.0000
     1.0000   1.0000   1.0000   1.0000   1.0000   1.0000   1.0000   0.0000
     0.0000   0.0000   0.0000   0.0000   0.0000

          k = 0.2500 0.4330-0.3051 (  2890 PWs)   bands (ev):

   -75.4557 -75.4557 -38.9203 -38.9203 -38.7949 -38.7949 -38.7107 -38.7107
    15.0976  15.0976  16.4102  16.4102  16.8872  16.8872  18.2631  18.2631
    19.7346  19.7346  21.8574  21.8574  29.3252

     occupation numbers 
     1.0000   1.0000   1.0000   1.0000   1.0000   1.0000   1.0000   1.0000
     1.0000   1.0000   1.0000   1.0000   1.0000   1.0000   1.0000   1.0000
     0.0000   0.0000   0.0000   0.0000   0.0000

          k = 0.2500 0.5292 0.0000 (  2889 PWs)   bands (ev):

   -75.4570 -75.4476 -38.9037 -38.8609 -38.8225 -38.8032 -38.7675 -38.7467
    15.3008  15.5151  15.6486  15.9233  17.1066  17.3044  18.0415  19.2143
    19.5687  19.6254  22.2684  24.5080  26.6155

     occupation numbers 
     1.0000   1.0000   1.0000   1.0000   1.0000   1.0000   1.0000   1.0000
     1.0000   1.0000   1.0000   1.0000   1.0000   1.0000   1.0000   0.0000
     0.0000   0.0000   0.0000   0.0000   0.0000

          k = 0.2500 0.5292 0.1017 (  2890 PWs)   bands (ev):

   -75.4563 -75.4482 -38.9083 -38.8801 -38.8372 -38.7843 -38.7653 -38.7291
    15.2600  15.6270  15.7286  15.9894  17.0779  17.2035  18.0605  19.2419
    19.3300  19.6819  22.4224  24.4759  26.6627

     occupation numbers 
     1.0000   1.0000   1.0000   1.0000   1.0000   1.0000   1.0000   1.0000
     1.0000   1.0000   1.0000   1.0000   1.0000   1.0000   1.0000   0.0000
     0.0000   0.0000   0.0000   0.0000   0.0000

          k = 0.2500 0.5292 0.2034 (  2888 PWs)   bands (ev):

   -75.4546 -75.4499 -38.9208 -38.9065 -38.8374 -38.7984 -38.7311 -38.7097
    15.2919  15.5779  16.0004  16.3275  16.8166  17.0659  18.1433  18.7817
    19.4242  19.7376  22.7923  24.0975  26.7016

     occupation numbers 
     1.0000   1.0000   1.0000   1.0000   1.0000   1.0000   1.0000   1.0000
     1.0000   1.0000   1.0000   1.0000   1.0000   1.0000   1.0000   0.0000
     0.0000   0.0000   0.0000   0.0000   0.0000

          k = 0.2500 0.5292-0.3051 (  2896 PWs)   bands (ev):

   -75.4522 -75.4522 -38.9227 -38.9227 -38.8199 -38.8199 -38.7093 -38.7093
    15.4203  15.4203  16.3871  16.3871  16.7865  16.7865  18.3556  18.3556
    19.6377  19.6377  23.3716  23.3716  27.2333

     occupation numbers 
     1.0000   1.0000   1.0000   1.0000   1.0000   1.0000   1.0000   1.0000
     1.0000   1.0000   1.0000   1.0000   1.0000   1.0000   1.0000   1.0000
     0.0000   0.0000   0.0000   0.0000   0.0000

          k = 0.3333 0.5774 0.0000 (  2880 PWs)   bands (ev):

   -75.4510 -75.4510 -38.8921 -38.8448 -38.8448 -38.7946 -38.7738 -38.7738
    15.5577  15.6543  15.6543  15.8402  17.1364  17.1364  18.1491  19.3852
    19.3852  19.5338  23.7238  24.5072  24.5072

     occupation numbers 
     1.0000   1.0000   1.0000   1.0000   1.0000   1.0000   1.0000   1.0000
     1.0000   1.0000   1.0000   1.0000   1.0000   1.0000   1.0000   0.0000
     0.0000   0.0000   0.0000   0.0000   0.0000

          k = 0.3333 0.5774 0.1017 (  2883 PWs)   bands (ev):

   -75.4510 -75.4510 -38.8856 -38.8682 -38.8682 -38.8012 -38.7502 -38.7502
    15.6277  15.7246  15.7246  15.8707  17.0495  17.0495  18.1325  19.2729
    19.4395  19.4395  24.1232  24.5520  24.5520

     occupation numbers 
     1.0000   1.0000   1.0000   1.0000   1.0000   1.0000   1.0000   1.0000
     1.0000   1.0000   1.0000   1.0000   1.0000   1.0000   1.0000   0.0000
     0.0000   0.0000   0.0000   0.0000   0.0000

          k = 0.3333 0.5774 0.2034 (  2880 PWs)   bands (ev):

   -75.4510 -75.4510 -38.8982 -38.8982 -38.8678 -38.8191 -38.7200 -38.7200
    15.7900  15.8927  15.8927  15.9273  16.8565  16.8565  18.1405  18.7471
    19.5402  19.5402  24.6629  24.6629  25.1038

     occupation numbers 
     1.0000   1.0000   1.0000   1.0000   1.0000   1.0000   1.0000   1.0000
     1.0000   1.0000   1.0000   1.0000   1.0000   1.0000   1.0000   0.0000
     0.0000   0.0000   0.0000   0.0000   0.0000

          k = 0.3333 0.5774-0.3051 (  2910 PWs)   bands (ev):

   -75.4510 -75.4510 -38.9098 -38.9098 -38.8435 -38.8435 -38.7082 -38.7082
    15.9191  15.9191  16.0030  16.0030  16.7372  16.7372  18.3184  18.3184
    19.5871  19.5871  24.7334  24.7334  26.4070

     occupation numbers 
     1.0000   1.0000   1.0000   1.0000   1.0000   1.0000   1.0000   1.0000
     1.0000   1.0000   1.0000   1.0000   1.0000   1.0000   1.0000   1.0000
     0.0000   0.0000   0.0000   0.0000   0.0000

     the Fermi energy is    18.4602 ev

!    total energy              =    -753.45488375 Ry
     total all-electron energy =     -5573.811575 Ry
     estimated scf accuracy    <       0.00000040 Ry
     smearing contrib. (-TS)   =      -0.00001684 Ry
     internal energy E=F+TS    =    -753.45486691 Ry

     The total energy is F=E-TS. E is the sum of the following terms:
     one-electron contribution =    -284.95227089 Ry
     hartree contribution      =     165.83063889 Ry
     xc contribution           =     -61.38861671 Ry
     ewald contribution        =    -397.76952834 Ry
     one-center paw contrib.   =    -175.17508986 Ry
      -> PAW hartree energy AE =     221.92132343 Ry
      -> PAW hartree energy PS =    -220.86628988 Ry
      -> PAW xc energy AE      =    -117.66756976 Ry
      -> PAW xc energy PS      =      29.02499128 Ry
      -> total E_H with PAW    =     166.88567244 Ry
      -> total E_XC with PAW   =    -150.03119519 Ry

     total magnetization       =     3.36 Bohr mag/cell
     absolute magnetization    =     3.68 Bohr mag/cell

     convergence has been achieved in  12 iterations

     Writing all to output data dir ./out/Co.save/
 
     init_run     :      0.41s CPU      0.52s WALL (       1 calls)
     electrons    :     26.68s CPU     28.02s WALL (       1 calls)

     Called by init_run:
     wfcinit      :      0.27s CPU      0.36s WALL (       1 calls)
     potinit      :      0.09s CPU      0.10s WALL (       1 calls)
     hinit0       :      0.03s CPU      0.03s WALL (       1 calls)

     Called by electrons:
     c_bands      :     23.37s CPU     24.43s WALL (      12 calls)
     sum_band     :      2.22s CPU      2.32s WALL (      12 calls)
     v_of_rho     :      0.04s CPU      0.04s WALL (      13 calls)
     v_h          :      0.00s CPU      0.00s WALL (      13 calls)
     v_xc         :      0.04s CPU      0.04s WALL (      13 calls)
     newd         :      0.05s CPU      0.06s WALL (      13 calls)
     PAW_pot      :      1.06s CPU      1.24s WALL (      13 calls)
     mix_rho      :      0.01s CPU      0.01s WALL (      12 calls)

     Called by c_bands:
     init_us_2    :      0.14s CPU      0.14s WALL (    3648 calls)
     init_us_2:cp :      0.13s CPU      0.13s WALL (    3648 calls)
     cegterg      :     22.53s CPU     23.46s WALL (    1825 calls)

     Called by sum_band:
     sum_band:wei :      0.02s CPU      0.02s WALL (      12 calls)
     sum_band:loo :      2.11s CPU      2.20s WALL (      12 calls)
     sum_band:buf :      0.01s CPU      0.01s WALL (    1824 calls)
     sum_band:ini :      0.08s CPU      0.07s WALL (    1824 calls)
     sum_band:cal :      0.19s CPU      0.18s WALL (    1824 calls)
     sum_band:bec :      0.00s CPU      0.02s WALL (    1824 calls)
     addusdens    :      0.08s CPU      0.08s WALL (      12 calls)
                                        0.00s GPU  (      12 calls)
     addusd:skk   :      0.00s CPU      0.00s WALL (      12 calls)
                                        0.00s GPU  (      12 calls)

     Called by *egterg:
     cdiaghg      :      5.36s CPU      5.47s WALL (   10996 calls)
     cegterg:over :      0.76s CPU      0.73s WALL (    9324 calls)
     cegterg:upda :      0.09s CPU      0.18s WALL (    9324 calls)
     cegterg:last :      0.32s CPU      0.36s WALL (    6859 calls)
     h_psi        :     15.05s CPU     15.77s WALL (   11149 calls)
     s_psi        :      0.30s CPU      0.25s WALL (   11149 calls)
     g_psi        :      0.05s CPU      0.06s WALL (    9324 calls)

     Called by h_psi:
     h_psi:calbec :      0.81s CPU      0.79s WALL (   11149 calls)
     vloc_psi     :     14.03s CPU     14.65s WALL (   11149 calls)
     add_vuspsi   :      0.17s CPU      0.27s WALL (   11149 calls)

     General routines
     calbec       :      0.99s CPU      0.95s WALL (   12973 calls)
     fft          :      0.02s CPU      0.02s WALL (     319 calls)
     ffts         :      0.00s CPU      0.00s WALL (      50 calls)
     fftw         :     15.06s CPU     15.41s WALL (  346842 calls)
     interpolate  :      0.00s CPU      0.00s WALL (      26 calls)
 
     Parallel routines

     PAW routines
     PAW_pot      :      1.06s CPU      1.24s WALL (      13 calls)
     PAW_symme    :      0.01s CPU      0.01s WALL (      24 calls)
 
     PWSCF        :     27.43s CPU     29.32s WALL

 
   This run was terminated on:   7:13:58  22Mar2024            

=------------------------------------------------------------------------------=
   JOB DONE.
=------------------------------------------------------------------------------=
