
     Program PWSCF v.7.2 starts on 22Mar2024 at  9:52:58 

     This program is part of the open-source Quantum ESPRESSO suite
     for quantum simulation of materials; please cite
         "P. Giannozzi et al., J. Phys.:Condens. Matter 21 395502 (2009);
         "P. Giannozzi et al., J. Phys.:Condens. Matter 29 465901 (2017);
         "P. Giannozzi et al., J. Chem. Phys. 152 154105 (2020);
          URL http://www.quantum-espresso.org", 
     in publications or presentations arising from this work. More details at
     http://www.quantum-espresso.org/quote

     Parallel version (MPI), running on    20 processors

     MPI processes distributed on     1 nodes
     241323 MiB available memory on the printing compute node when the environment starts
 
     Waiting for input...
     Reading input from standard input

     Current dimensions of program PWSCF are:
     Max number of different atomic species (ntypx) = 10
     Max number of k-points (npk) = 120000
     Max angular momentum in pseudopotentials (lmaxx) =  4
     file Co.pbe-spn-kjpaw_psl.0.3.1.UPF: wavefunction(s)  3P 3D renormalized
 
     R & G space division:  proc/nbgrp/npool/nimage =      20
     Subspace diagonalization in iterative solution of the eigenvalue problem:
     a serial algorithm will be used

 
     Parallelization info
     --------------------
     sticks:   dense  smooth     PW     G-vecs:    dense   smooth      PW
     Min          32      32      9                 1160     1116     181
     Max          34      33     10                 1165     1125     186
     Sum         673     649    199                23235    22419    3695
 
     Using Slab Decomposition
 


     bravais-lattice index     =            4
     lattice parameter (alat)  =       4.6487  a.u.
     unit-cell volume          =     143.9434 (a.u.)^3
     number of atoms/cell      =            2
     number of atomic types    =            1
     number of electrons       =        34.00
     number of Kohn-Sham states=           21
     kinetic-energy cutoff     =     110.0000  Ry
     charge density cutoff     =     450.0000  Ry
     scf convergence threshold =      1.0E-06
     mixing beta               =       0.7000
     number of iterations used =            8  plain     mixing
     Exchange-correlation= SLA  PW   PBX  PBC
                           (   1   4   3   4   0   0   0)

     celldm(1)=   4.648726  celldm(2)=   0.000000  celldm(3)=   1.654472
     celldm(4)=   0.000000  celldm(5)=   0.000000  celldm(6)=   0.000000

     crystal axes: (cart. coord. in units of alat)
               a(1) = (   1.000000   0.000000   0.000000 )  
               a(2) = (  -0.500000   0.866025   0.000000 )  
               a(3) = (   0.000000   0.000000   1.654472 )  

     reciprocal axes: (cart. coord. in units 2 pi/alat)
               b(1) = (  1.000000  0.577350  0.000000 )  
               b(2) = (  0.000000  1.154701  0.000000 )  
               b(3) = (  0.000000  0.000000  0.604423 )  


     PseudoPot. # 1 for Co read from file:
     /truba/home/amuhaymin/ZnS/pseudo/QE/Co.pbe-spn-kjpaw_psl.0.3.1.UPF
     MD5 check sum: b0a1ad65bf214e88c1f3d33b20c7d919
     Pseudo is Projector augmented-wave + core cor, Zval = 17.0
     Generated using &quot;atomic&quot; code by A. Dal Corso  v.6.2.2
     Shape of augmentation charge: PSQ
     Using radial grid of 1193 points,  6 beta functions with: 
                l(1) =   0
                l(2) =   0
                l(3) =   1
                l(4) =   1
                l(5) =   2
                l(6) =   2
     Q(r) pseudized with 0 coefficients 


     atomic species   valence    mass     pseudopotential
        Co            17.00    58.93300     Co( 1.00)

     Starting magnetic structure 
     atomic species   magnetization
        Co           0.294

     24 Sym. Ops., with inversion, found (12 have fractional translation)


                                    s                        frac. trans.

      isym =  1     identity                                     

 cryst.   s( 1) = (     1          0          0      )
                  (     0          1          0      )
                  (     0          0          1      )

 cart.    s( 1) = (  1.0000000  0.0000000  0.0000000 )
                  (  0.0000000  1.0000000  0.0000000 )
                  (  0.0000000  0.0000000  1.0000000 )


      isym =  2     180 deg rotation - cart. axis [0,0,1]        

 cryst.   s( 2) = (    -1          0          0      )    f =(  0.0000000 )
                  (     0         -1          0      )       ( -0.0000000 )
                  (     0          0          1      )       ( -0.5000000 )

 cart.    s( 2) = ( -1.0000000  0.0000000  0.0000000 )    f =(  0.0000000 )
                  (  0.0000000 -1.0000000  0.0000000 )       ( -0.0000000 )
                  (  0.0000000  0.0000000  1.0000000 )       ( -0.8272358 )


      isym =  3     180 deg rotation - cart. axis [0,1,0]        

 cryst.   s( 3) = (    -1          0          0      )    f =(  0.0000000 )
                  (     1          1          0      )       (  0.0000000 )
                  (     0          0         -1      )       (  0.5000000 )

 cart.    s( 3) = ( -1.0000000  0.0000000  0.0000000 )    f =(  0.0000000 )
                  (  0.0000000  1.0000000  0.0000000 )       (  0.0000000 )
                  (  0.0000000  0.0000000 -1.0000000 )       (  0.8272358 )


      isym =  4     180 deg rotation - cart. axis [1,0,0]        

 cryst.   s( 4) = (     1          0          0      )
                  (    -1         -1          0      )
                  (     0          0         -1      )

 cart.    s( 4) = (  1.0000000  0.0000000  0.0000000 )
                  (  0.0000000 -1.0000000  0.0000000 )
                  (  0.0000000  0.0000000 -1.0000000 )


      isym =  5      60 deg rotation - cryst. axis [0,0,1]       

 cryst.   s( 5) = (     1          1          0      )    f =(  0.0000000 )
                  (    -1          0          0      )       ( -0.0000000 )
                  (     0          0          1      )       ( -0.5000000 )

 cart.    s( 5) = (  0.5000000 -0.8660254  0.0000000 )    f =(  0.0000000 )
                  (  0.8660254  0.5000000  0.0000000 )       ( -0.0000000 )
                  (  0.0000000  0.0000000  1.0000000 )       ( -0.8272358 )


      isym =  6      60 deg rotation - cryst. axis [0,0,-1]      

 cryst.   s( 6) = (     0         -1          0      )    f =(  0.0000000 )
                  (     1          1          0      )       ( -0.0000000 )
                  (     0          0          1      )       ( -0.5000000 )

 cart.    s( 6) = (  0.5000000  0.8660254  0.0000000 )    f =(  0.0000000 )
                  ( -0.8660254  0.5000000  0.0000000 )       ( -0.0000000 )
                  (  0.0000000  0.0000000  1.0000000 )       ( -0.8272358 )


      isym =  7     120 deg rotation - cryst. axis [0,0,1]       

 cryst.   s( 7) = (     0          1          0      )
                  (    -1         -1          0      )
                  (     0          0          1      )

 cart.    s( 7) = ( -0.5000000 -0.8660254  0.0000000 )
                  (  0.8660254 -0.5000000  0.0000000 )
                  (  0.0000000  0.0000000  1.0000000 )


      isym =  8     120 deg rotation - cryst. axis [0,0,-1]      

 cryst.   s( 8) = (    -1         -1          0      )
                  (     1          0          0      )
                  (     0          0          1      )

 cart.    s( 8) = ( -0.5000000  0.8660254  0.0000000 )
                  ( -0.8660254 -0.5000000  0.0000000 )
                  (  0.0000000  0.0000000  1.0000000 )


      isym =  9     180 deg rotation - cryst. axis [1,-1,0]      

 cryst.   s( 9) = (     0         -1          0      )    f =( -0.0000000 )
                  (    -1          0          0      )       ( -0.0000000 )
                  (     0          0         -1      )       (  0.5000000 )

 cart.    s( 9) = (  0.5000000 -0.8660254  0.0000000 )    f =( -0.0000000 )
                  ( -0.8660254 -0.5000000  0.0000000 )       ( -0.0000000 )
                  (  0.0000000  0.0000000 -1.0000000 )       (  0.8272358 )


      isym = 10     180 deg rotation - cryst. axis [2,1,0]       

 cryst.   s(10) = (     1          1          0      )    f =(  0.0000000 )
                  (     0         -1          0      )       ( -0.0000000 )
                  (     0          0         -1      )       (  0.5000000 )

 cart.    s(10) = (  0.5000000  0.8660254  0.0000000 )    f =(  0.0000000 )
                  (  0.8660254 -0.5000000  0.0000000 )       ( -0.0000000 )
                  (  0.0000000  0.0000000 -1.0000000 )       (  0.8272358 )


      isym = 11     180 deg rotation - cryst. axis [0,1,0]       

 cryst.   s(11) = (    -1         -1          0      )
                  (     0          1          0      )
                  (     0          0         -1      )

 cart.    s(11) = ( -0.5000000 -0.8660254  0.0000000 )
                  ( -0.8660254  0.5000000  0.0000000 )
                  (  0.0000000  0.0000000 -1.0000000 )


      isym = 12     180 deg rotation - cryst. axis [1,1,0]       

 cryst.   s(12) = (     0          1          0      )
                  (     1          0          0      )
                  (     0          0         -1      )

 cart.    s(12) = ( -0.5000000  0.8660254  0.0000000 )
                  (  0.8660254  0.5000000  0.0000000 )
                  (  0.0000000  0.0000000 -1.0000000 )


      isym = 13     inversion                                    

 cryst.   s(13) = (    -1          0          0      )
                  (     0         -1          0      )
                  (     0          0         -1      )

 cart.    s(13) = ( -1.0000000  0.0000000  0.0000000 )
                  (  0.0000000 -1.0000000  0.0000000 )
                  (  0.0000000  0.0000000 -1.0000000 )


      isym = 14     inv. 180 deg rotation - cart. axis [0,0,1]   

 cryst.   s(14) = (     1          0          0      )    f =(  0.0000000 )
                  (     0          1          0      )       (  0.0000000 )
                  (     0          0         -1      )       (  0.5000000 )

 cart.    s(14) = (  1.0000000  0.0000000  0.0000000 )    f =(  0.0000000 )
                  (  0.0000000  1.0000000  0.0000000 )       (  0.0000000 )
                  (  0.0000000  0.0000000 -1.0000000 )       (  0.8272358 )


      isym = 15     inv. 180 deg rotation - cart. axis [0,1,0]   

 cryst.   s(15) = (     1          0          0      )    f =(  0.0000000 )
                  (    -1         -1          0      )       ( -0.0000000 )
                  (     0          0          1      )       ( -0.5000000 )

 cart.    s(15) = (  1.0000000  0.0000000  0.0000000 )    f =(  0.0000000 )
                  (  0.0000000 -1.0000000  0.0000000 )       ( -0.0000000 )
                  (  0.0000000  0.0000000  1.0000000 )       ( -0.8272358 )


      isym = 16     inv. 180 deg rotation - cart. axis [1,0,0]   

 cryst.   s(16) = (    -1          0          0      )
                  (     1          1          0      )
                  (     0          0          1      )

 cart.    s(16) = ( -1.0000000  0.0000000  0.0000000 )
                  (  0.0000000  1.0000000  0.0000000 )
                  (  0.0000000  0.0000000  1.0000000 )


      isym = 17     inv.  60 deg rotation - cryst. axis [0,0,1]  

 cryst.   s(17) = (    -1         -1          0      )    f =(  0.0000000 )
                  (     1          0          0      )       ( -0.0000000 )
                  (     0          0         -1      )       (  0.5000000 )

 cart.    s(17) = ( -0.5000000  0.8660254  0.0000000 )    f =(  0.0000000 )
                  ( -0.8660254 -0.5000000  0.0000000 )       ( -0.0000000 )
                  (  0.0000000  0.0000000 -1.0000000 )       (  0.8272358 )


      isym = 18     inv.  60 deg rotation - cryst. axis [0,0,-1] 

 cryst.   s(18) = (     0          1          0      )    f =( -0.0000000 )
                  (    -1         -1          0      )       ( -0.0000000 )
                  (     0          0         -1      )       (  0.5000000 )

 cart.    s(18) = ( -0.5000000 -0.8660254  0.0000000 )    f =(  0.0000000 )
                  (  0.8660254 -0.5000000  0.0000000 )       ( -0.0000000 )
                  (  0.0000000  0.0000000 -1.0000000 )       (  0.8272358 )


      isym = 19     inv. 120 deg rotation - cryst. axis [0,0,1]  

 cryst.   s(19) = (     0         -1          0      )
                  (     1          1          0      )
                  (     0          0         -1      )

 cart.    s(19) = (  0.5000000  0.8660254  0.0000000 )
                  ( -0.8660254  0.5000000  0.0000000 )
                  (  0.0000000  0.0000000 -1.0000000 )


      isym = 20     inv. 120 deg rotation - cryst. axis [0,0,-1] 

 cryst.   s(20) = (     1          1          0      )
                  (    -1          0          0      )
                  (     0          0         -1      )

 cart.    s(20) = (  0.5000000 -0.8660254  0.0000000 )
                  (  0.8660254  0.5000000  0.0000000 )
                  (  0.0000000  0.0000000 -1.0000000 )


      isym = 21     inv. 180 deg rotation - cryst. axis [1,-1,0] 

 cryst.   s(21) = (     0          1          0      )    f =(  0.0000000 )
                  (     1          0          0      )       ( -0.0000000 )
                  (     0          0          1      )       ( -0.5000000 )

 cart.    s(21) = ( -0.5000000  0.8660254  0.0000000 )    f =(  0.0000000 )
                  (  0.8660254  0.5000000  0.0000000 )       ( -0.0000000 )
                  (  0.0000000  0.0000000  1.0000000 )       ( -0.8272358 )


      isym = 22     inv. 180 deg rotation - cryst. axis [2,1,0]  

 cryst.   s(22) = (    -1         -1          0      )    f =(  0.0000000 )
                  (     0          1          0      )       ( -0.0000000 )
                  (     0          0          1      )       ( -0.5000000 )

 cart.    s(22) = ( -0.5000000 -0.8660254  0.0000000 )    f =(  0.0000000 )
                  ( -0.8660254  0.5000000  0.0000000 )       ( -0.0000000 )
                  (  0.0000000  0.0000000  1.0000000 )       ( -0.8272358 )


      isym = 23     inv. 180 deg rotation - cryst. axis [0,1,0]  

 cryst.   s(23) = (     1          1          0      )
                  (     0         -1          0      )
                  (     0          0          1      )

 cart.    s(23) = (  0.5000000  0.8660254  0.0000000 )
                  (  0.8660254 -0.5000000  0.0000000 )
                  (  0.0000000  0.0000000  1.0000000 )


      isym = 24     inv. 180 deg rotation - cryst. axis [1,1,0]  

 cryst.   s(24) = (     0         -1          0      )
                  (    -1          0          0      )
                  (     0          0          1      )

 cart.    s(24) = (  0.5000000 -0.8660254  0.0000000 )
                  ( -0.8660254 -0.5000000  0.0000000 )
                  (  0.0000000  0.0000000  1.0000000 )


     point group D_6h(6/mmm)
     there are 12 classes
     the character table:

       E     2C6   2C3   C2    3C2'  3C2'' i     2S3   2S6   s_h   3s_d  3s_v 
A_1g   1.00  1.00  1.00  1.00  1.00  1.00  1.00  1.00  1.00  1.00  1.00  1.00
A_2g   1.00  1.00  1.00  1.00 -1.00 -1.00  1.00  1.00  1.00  1.00 -1.00 -1.00
B_1g   1.00 -1.00  1.00 -1.00  1.00 -1.00  1.00 -1.00  1.00 -1.00  1.00 -1.00
B_2g   1.00 -1.00  1.00 -1.00 -1.00  1.00  1.00 -1.00  1.00 -1.00 -1.00  1.00
E_1g   2.00  1.00 -1.00 -2.00  0.00  0.00  2.00  1.00 -1.00 -2.00  0.00  0.00
E_2g   2.00 -1.00 -1.00  2.00  0.00  0.00  2.00 -1.00 -1.00  2.00  0.00  0.00
A_1u   1.00  1.00  1.00  1.00  1.00  1.00 -1.00 -1.00 -1.00 -1.00 -1.00 -1.00
A_2u   1.00  1.00  1.00  1.00 -1.00 -1.00 -1.00 -1.00 -1.00 -1.00  1.00  1.00
B_1u   1.00 -1.00  1.00 -1.00  1.00 -1.00 -1.00  1.00 -1.00  1.00 -1.00  1.00
B_2u   1.00 -1.00  1.00 -1.00 -1.00  1.00 -1.00  1.00 -1.00  1.00  1.00 -1.00
E_1u   2.00  1.00 -1.00 -2.00  0.00  0.00 -2.00 -1.00  1.00  2.00  0.00  0.00
E_2u   2.00 -1.00 -1.00  2.00  0.00  0.00 -2.00  1.00  1.00 -2.00  0.00  0.00

     the symmetry operations in each class and the name of the first element:

     E        1
          identity                                               
     2C6      5    6
           60 deg rotation - cryst. axis [0,0,1]                 
     2C3      7    8
          120 deg rotation - cryst. axis [0,0,1]                 
     C2       2
          180 deg rotation - cart. axis [0,0,1]                  
     3C2'     4   12   11
          180 deg rotation - cart. axis [1,0,0]                  
     3C2''    3    9   10
          180 deg rotation - cart. axis [0,1,0]                  
     i       13
          inversion                                              
     2S3     17   18
          inv.  60 deg rotation - cryst. axis [0,0,1]            
     2S6     19   20
          inv. 120 deg rotation - cryst. axis [0,0,1]            
     s_h     14
          inv. 180 deg rotation - cart. axis [0,0,1]             
     3s_d    16   24   23
          inv. 180 deg rotation - cart. axis [1,0,0]             
     3s_v    15   21   22
          inv. 180 deg rotation - cart. axis [0,1,0]             

   Cartesian axes

     site n.     atom                  positions (alat units)
         1           Co  tau(   1) = (  -0.0000000   0.5773503   0.4136179  )
         2           Co  tau(   2) = (   0.5000000   0.2886751   1.2408537  )

   Crystallographic axes

     site n.     atom                  positions (cryst. coord.)
         1           Co  tau(   1) = (  0.3333333  0.6666667  0.2500000  )
         2           Co  tau(   2) = (  0.6666667  0.3333333  0.7500000  )

     number of k points=    76  Gaussian smearing, width (Ry)=  0.0010
                       cart. coord. in units 2pi/alat
        k(    1) = (   0.0000000   0.0000000   0.0000000), wk =   0.0011574
        k(    2) = (   0.0000000   0.0000000   0.1007371), wk =   0.0023148
        k(    3) = (   0.0000000   0.0000000   0.2014742), wk =   0.0023148
        k(    4) = (   0.0000000   0.0000000  -0.3022113), wk =   0.0011574
        k(    5) = (   0.0000000   0.0962250   0.0000000), wk =   0.0069444
        k(    6) = (   0.0000000   0.0962250   0.1007371), wk =   0.0138889
        k(    7) = (   0.0000000   0.0962250   0.2014742), wk =   0.0138889
        k(    8) = (   0.0000000   0.0962250  -0.3022113), wk =   0.0069444
        k(    9) = (   0.0000000   0.1924501   0.0000000), wk =   0.0069444
        k(   10) = (   0.0000000   0.1924501   0.1007371), wk =   0.0138889
        k(   11) = (   0.0000000   0.1924501   0.2014742), wk =   0.0138889
        k(   12) = (   0.0000000   0.1924501  -0.3022113), wk =   0.0069444
        k(   13) = (   0.0000000   0.2886751   0.0000000), wk =   0.0069444
        k(   14) = (   0.0000000   0.2886751   0.1007371), wk =   0.0138889
        k(   15) = (   0.0000000   0.2886751   0.2014742), wk =   0.0138889
        k(   16) = (   0.0000000   0.2886751  -0.3022113), wk =   0.0069444
        k(   17) = (   0.0000000   0.3849002   0.0000000), wk =   0.0069444
        k(   18) = (   0.0000000   0.3849002   0.1007371), wk =   0.0138889
        k(   19) = (   0.0000000   0.3849002   0.2014742), wk =   0.0138889
        k(   20) = (   0.0000000   0.3849002  -0.3022113), wk =   0.0069444
        k(   21) = (   0.0000000   0.4811252   0.0000000), wk =   0.0069444
        k(   22) = (   0.0000000   0.4811252   0.1007371), wk =   0.0138889
        k(   23) = (   0.0000000   0.4811252   0.2014742), wk =   0.0138889
        k(   24) = (   0.0000000   0.4811252  -0.3022113), wk =   0.0069444
        k(   25) = (   0.0000000  -0.5773503   0.0000000), wk =   0.0034722
        k(   26) = (   0.0000000  -0.5773503   0.1007371), wk =   0.0069444
        k(   27) = (   0.0000000  -0.5773503   0.2014742), wk =   0.0069444
        k(   28) = (   0.0000000  -0.5773503  -0.3022113), wk =   0.0034722
        k(   29) = (   0.0833333   0.1443376   0.0000000), wk =   0.0069444
        k(   30) = (   0.0833333   0.1443376   0.1007371), wk =   0.0138889
        k(   31) = (   0.0833333   0.1443376   0.2014742), wk =   0.0138889
        k(   32) = (   0.0833333   0.1443376  -0.3022113), wk =   0.0069444
        k(   33) = (   0.0833333   0.2405626   0.0000000), wk =   0.0138889
        k(   34) = (   0.0833333   0.2405626   0.1007371), wk =   0.0277778
        k(   35) = (   0.0833333   0.2405626   0.2014742), wk =   0.0277778
        k(   36) = (   0.0833333   0.2405626  -0.3022113), wk =   0.0138889
        k(   37) = (   0.0833333   0.3367877   0.0000000), wk =   0.0138889
        k(   38) = (   0.0833333   0.3367877   0.1007371), wk =   0.0277778
        k(   39) = (   0.0833333   0.3367877   0.2014742), wk =   0.0277778
        k(   40) = (   0.0833333   0.3367877  -0.3022113), wk =   0.0138889
        k(   41) = (   0.0833333   0.4330127   0.0000000), wk =   0.0138889
        k(   42) = (   0.0833333   0.4330127   0.1007371), wk =   0.0277778
        k(   43) = (   0.0833333   0.4330127   0.2014742), wk =   0.0277778
        k(   44) = (   0.0833333   0.4330127  -0.3022113), wk =   0.0138889
        k(   45) = (   0.0833333   0.5292377   0.0000000), wk =   0.0138889
        k(   46) = (   0.0833333   0.5292377   0.1007371), wk =   0.0277778
        k(   47) = (   0.0833333   0.5292377   0.2014742), wk =   0.0277778
        k(   48) = (   0.0833333   0.5292377  -0.3022113), wk =   0.0138889
        k(   49) = (   0.1666667   0.2886751   0.0000000), wk =   0.0069444
        k(   50) = (   0.1666667   0.2886751   0.1007371), wk =   0.0138889
        k(   51) = (   0.1666667   0.2886751   0.2014742), wk =   0.0138889
        k(   52) = (   0.1666667   0.2886751  -0.3022113), wk =   0.0069444
        k(   53) = (   0.1666667   0.3849002   0.0000000), wk =   0.0138889
        k(   54) = (   0.1666667   0.3849002   0.1007371), wk =   0.0277778
        k(   55) = (   0.1666667   0.3849002   0.2014742), wk =   0.0277778
        k(   56) = (   0.1666667   0.3849002  -0.3022113), wk =   0.0138889
        k(   57) = (   0.1666667   0.4811252   0.0000000), wk =   0.0138889
        k(   58) = (   0.1666667   0.4811252   0.1007371), wk =   0.0277778
        k(   59) = (   0.1666667   0.4811252   0.2014742), wk =   0.0277778
        k(   60) = (   0.1666667   0.4811252  -0.3022113), wk =   0.0138889
        k(   61) = (   0.1666667   0.5773503   0.0000000), wk =   0.0069444
        k(   62) = (   0.1666667   0.5773503   0.1007371), wk =   0.0138889
        k(   63) = (   0.1666667   0.5773503   0.2014742), wk =   0.0138889
        k(   64) = (   0.1666667   0.5773503  -0.3022113), wk =   0.0069444
        k(   65) = (   0.2500000   0.4330127   0.0000000), wk =   0.0069444
        k(   66) = (   0.2500000   0.4330127   0.1007371), wk =   0.0138889
        k(   67) = (   0.2500000   0.4330127   0.2014742), wk =   0.0138889
        k(   68) = (   0.2500000   0.4330127  -0.3022113), wk =   0.0069444
        k(   69) = (   0.2500000   0.5292377   0.0000000), wk =   0.0138889
        k(   70) = (   0.2500000   0.5292377   0.1007371), wk =   0.0277778
        k(   71) = (   0.2500000   0.5292377   0.2014742), wk =   0.0277778
        k(   72) = (   0.2500000   0.5292377  -0.3022113), wk =   0.0138889
        k(   73) = (   0.3333333   0.5773503   0.0000000), wk =   0.0023148
        k(   74) = (   0.3333333   0.5773503   0.1007371), wk =   0.0046296
        k(   75) = (   0.3333333   0.5773503   0.2014742), wk =   0.0046296
        k(   76) = (   0.3333333   0.5773503  -0.3022113), wk =   0.0023148

                       cryst. coord.
        k(    1) = (   0.0000000   0.0000000   0.0000000), wk =   0.0011574
        k(    2) = (   0.0000000   0.0000000   0.1666667), wk =   0.0023148
        k(    3) = (   0.0000000   0.0000000   0.3333333), wk =   0.0023148
        k(    4) = (   0.0000000   0.0000000  -0.5000000), wk =   0.0011574
        k(    5) = (   0.0000000   0.0833333   0.0000000), wk =   0.0069444
        k(    6) = (   0.0000000   0.0833333   0.1666667), wk =   0.0138889
        k(    7) = (   0.0000000   0.0833333   0.3333333), wk =   0.0138889
        k(    8) = (   0.0000000   0.0833333  -0.5000000), wk =   0.0069444
        k(    9) = (   0.0000000   0.1666667   0.0000000), wk =   0.0069444
        k(   10) = (   0.0000000   0.1666667   0.1666667), wk =   0.0138889
        k(   11) = (   0.0000000   0.1666667   0.3333333), wk =   0.0138889
        k(   12) = (   0.0000000   0.1666667  -0.5000000), wk =   0.0069444
        k(   13) = (   0.0000000   0.2500000   0.0000000), wk =   0.0069444
        k(   14) = (   0.0000000   0.2500000   0.1666667), wk =   0.0138889
        k(   15) = (   0.0000000   0.2500000   0.3333333), wk =   0.0138889
        k(   16) = (   0.0000000   0.2500000  -0.5000000), wk =   0.0069444
        k(   17) = (   0.0000000   0.3333333   0.0000000), wk =   0.0069444
        k(   18) = (   0.0000000   0.3333333   0.1666667), wk =   0.0138889
        k(   19) = (   0.0000000   0.3333333   0.3333333), wk =   0.0138889
        k(   20) = (   0.0000000   0.3333333  -0.5000000), wk =   0.0069444
        k(   21) = (   0.0000000   0.4166667   0.0000000), wk =   0.0069444
        k(   22) = (   0.0000000   0.4166667   0.1666667), wk =   0.0138889
        k(   23) = (   0.0000000   0.4166667   0.3333333), wk =   0.0138889
        k(   24) = (   0.0000000   0.4166667  -0.5000000), wk =   0.0069444
        k(   25) = (   0.0000000  -0.5000000   0.0000000), wk =   0.0034722
        k(   26) = (   0.0000000  -0.5000000   0.1666667), wk =   0.0069444
        k(   27) = (   0.0000000  -0.5000000   0.3333333), wk =   0.0069444
        k(   28) = (   0.0000000  -0.5000000  -0.5000000), wk =   0.0034722
        k(   29) = (   0.0833333   0.0833333   0.0000000), wk =   0.0069444
        k(   30) = (   0.0833333   0.0833333   0.1666667), wk =   0.0138889
        k(   31) = (   0.0833333   0.0833333   0.3333333), wk =   0.0138889
        k(   32) = (   0.0833333   0.0833333  -0.5000000), wk =   0.0069444
        k(   33) = (   0.0833333   0.1666667   0.0000000), wk =   0.0138889
        k(   34) = (   0.0833333   0.1666667   0.1666667), wk =   0.0277778
        k(   35) = (   0.0833333   0.1666667   0.3333333), wk =   0.0277778
        k(   36) = (   0.0833333   0.1666667  -0.5000000), wk =   0.0138889
        k(   37) = (   0.0833333   0.2500000   0.0000000), wk =   0.0138889
        k(   38) = (   0.0833333   0.2500000   0.1666667), wk =   0.0277778
        k(   39) = (   0.0833333   0.2500000   0.3333333), wk =   0.0277778
        k(   40) = (   0.0833333   0.2500000  -0.5000000), wk =   0.0138889
        k(   41) = (   0.0833333   0.3333333   0.0000000), wk =   0.0138889
        k(   42) = (   0.0833333   0.3333333   0.1666667), wk =   0.0277778
        k(   43) = (   0.0833333   0.3333333   0.3333333), wk =   0.0277778
        k(   44) = (   0.0833333   0.3333333  -0.5000000), wk =   0.0138889
        k(   45) = (   0.0833333   0.4166667   0.0000000), wk =   0.0138889
        k(   46) = (   0.0833333   0.4166667   0.1666667), wk =   0.0277778
        k(   47) = (   0.0833333   0.4166667   0.3333333), wk =   0.0277778
        k(   48) = (   0.0833333   0.4166667  -0.5000000), wk =   0.0138889
        k(   49) = (   0.1666667   0.1666667   0.0000000), wk =   0.0069444
        k(   50) = (   0.1666667   0.1666667   0.1666667), wk =   0.0138889
        k(   51) = (   0.1666667   0.1666667   0.3333333), wk =   0.0138889
        k(   52) = (   0.1666667   0.1666667  -0.5000000), wk =   0.0069444
        k(   53) = (   0.1666667   0.2500000   0.0000000), wk =   0.0138889
        k(   54) = (   0.1666667   0.2500000   0.1666667), wk =   0.0277778
        k(   55) = (   0.1666667   0.2500000   0.3333333), wk =   0.0277778
        k(   56) = (   0.1666667   0.2500000  -0.5000000), wk =   0.0138889
        k(   57) = (   0.1666667   0.3333333   0.0000000), wk =   0.0138889
        k(   58) = (   0.1666667   0.3333333   0.1666667), wk =   0.0277778
        k(   59) = (   0.1666667   0.3333333   0.3333333), wk =   0.0277778
        k(   60) = (   0.1666667   0.3333333  -0.5000000), wk =   0.0138889
        k(   61) = (   0.1666667   0.4166667   0.0000000), wk =   0.0069444
        k(   62) = (   0.1666667   0.4166667   0.1666667), wk =   0.0138889
        k(   63) = (   0.1666667   0.4166667   0.3333333), wk =   0.0138889
        k(   64) = (   0.1666667   0.4166667  -0.5000000), wk =   0.0069444
        k(   65) = (   0.2500000   0.2500000   0.0000000), wk =   0.0069444
        k(   66) = (   0.2500000   0.2500000   0.1666667), wk =   0.0138889
        k(   67) = (   0.2500000   0.2500000   0.3333333), wk =   0.0138889
        k(   68) = (   0.2500000   0.2500000  -0.5000000), wk =   0.0069444
        k(   69) = (   0.2500000   0.3333333   0.0000000), wk =   0.0138889
        k(   70) = (   0.2500000   0.3333333   0.1666667), wk =   0.0277778
        k(   71) = (   0.2500000   0.3333333   0.3333333), wk =   0.0277778
        k(   72) = (   0.2500000   0.3333333  -0.5000000), wk =   0.0138889
        k(   73) = (   0.3333333   0.3333333   0.0000000), wk =   0.0023148
        k(   74) = (   0.3333333   0.3333333   0.1666667), wk =   0.0046296
        k(   75) = (   0.3333333   0.3333333   0.3333333), wk =   0.0046296
        k(   76) = (   0.3333333   0.3333333  -0.5000000), wk =   0.0023148

     Dense  grid:    23235 G-vectors     FFT dimensions: (  32,  32,  54)

     Smooth grid:    22419 G-vectors     FFT dimensions: (  32,  32,  54)

     Dynamical RAM for                 wfc:       0.04 MB

     Dynamical RAM for     wfc (w. buffer):       6.86 MB

     Dynamical RAM for           str. fact:       0.02 MB

     Dynamical RAM for           local pot:       0.00 MB

     Dynamical RAM for          nlocal pot:       0.08 MB

     Dynamical RAM for                qrad:       1.70 MB

     Dynamical RAM for          rho,v,vnew:       0.25 MB

     Dynamical RAM for               rhoin:       0.08 MB

     Dynamical RAM for            rho*nmix:       0.57 MB

     Dynamical RAM for           G-vectors:       0.07 MB

     Dynamical RAM for          h,s,v(r/c):       0.08 MB

     Dynamical RAM for          <psi|beta>:       0.01 MB

     Dynamical RAM for                 psi:       0.09 MB

     Dynamical RAM for                hpsi:       0.09 MB

     Dynamical RAM for                spsi:       0.09 MB

     Dynamical RAM for      wfcinit/wfcrot:       0.10 MB

     Dynamical RAM for           addusdens:       3.35 MB

     Estimated static dynamical RAM per process >       9.24 MB

     Estimated max dynamical RAM per process >      13.15 MB

     Estimated total dynamical RAM >     263.05 MB

     Check: negative core charge=   -0.000043
     Generating pointlists ...
     new r_m :   0.4125 (alat units)  1.9176 (a.u.) for type    1

     The initial density is read from file :
     ./out2/Co.save/charge-density


     starting charge      34.0418, renormalised to      34.0000

     negative rho (up, down):  1.247E-03 6.392E-04
     Starting wfcs from file
     Checking if some PAW data can be deallocated... 

     total cpu time spent up to now is        0.6 secs

     Self-consistent Calculation

     iteration #  1     ecut=   110.00 Ry     beta= 0.70
     Davidson diagonalization with overlap

---- Real-time Memory Report at c_bands before calling an iterative solver
            56 MiB given to the printing process from OS
             0 MiB allocation reported by mallinfo(arena+hblkhd)
        240750 MiB available memory on the node where the printing process lives
------------------
     ethr =  1.00E-05,  avg # of iterations =  7.5

     total cpu time spent up to now is        4.2 secs

     total energy              =    -753.40510024 Ry
     estimated scf accuracy    <       0.02144722 Ry

     total magnetization       =     3.32 Bohr mag/cell
     absolute magnetization    =     3.55 Bohr mag/cell

     iteration #  2     ecut=   110.00 Ry     beta= 0.70
     Davidson diagonalization with overlap

---- Real-time Memory Report at c_bands before calling an iterative solver
            75 MiB given to the printing process from OS
             0 MiB allocation reported by mallinfo(arena+hblkhd)
        240543 MiB available memory on the node where the printing process lives
------------------
     ethr =  6.31E-05,  avg # of iterations =  5.8

     total cpu time spent up to now is        6.8 secs

     total energy              =    -753.42576301 Ry
     estimated scf accuracy    <       0.10724153 Ry

     total magnetization       =     3.33 Bohr mag/cell
     absolute magnetization    =     3.63 Bohr mag/cell

     iteration #  3     ecut=   110.00 Ry     beta= 0.70
     Davidson diagonalization with overlap

---- Real-time Memory Report at c_bands before calling an iterative solver
            77 MiB given to the printing process from OS
             0 MiB allocation reported by mallinfo(arena+hblkhd)
        240532 MiB available memory on the node where the printing process lives
------------------
     ethr =  6.31E-05,  avg # of iterations =  4.1

     total cpu time spent up to now is        8.8 secs

     total energy              =    -753.45244274 Ry
     estimated scf accuracy    <       0.00492319 Ry

     total magnetization       =     3.32 Bohr mag/cell
     absolute magnetization    =     3.61 Bohr mag/cell

     iteration #  4     ecut=   110.00 Ry     beta= 0.70
     Davidson diagonalization with overlap

---- Real-time Memory Report at c_bands before calling an iterative solver
            78 MiB given to the printing process from OS
             0 MiB allocation reported by mallinfo(arena+hblkhd)
        240526 MiB available memory on the node where the printing process lives
------------------
     ethr =  1.45E-05,  avg # of iterations =  3.9

     total cpu time spent up to now is       10.8 secs

     total energy              =    -753.45417362 Ry
     estimated scf accuracy    <       0.00015322 Ry

     total magnetization       =     3.31 Bohr mag/cell
     absolute magnetization    =     3.61 Bohr mag/cell

     iteration #  5     ecut=   110.00 Ry     beta= 0.70
     Davidson diagonalization with overlap

---- Real-time Memory Report at c_bands before calling an iterative solver
            79 MiB given to the printing process from OS
             0 MiB allocation reported by mallinfo(arena+hblkhd)
        240517 MiB available memory on the node where the printing process lives
------------------
     ethr =  4.51E-07,  avg # of iterations =  5.5

     total cpu time spent up to now is       13.3 secs

     total energy              =    -753.45421092 Ry
     estimated scf accuracy    <       0.00026011 Ry

     total magnetization       =     3.31 Bohr mag/cell
     absolute magnetization    =     3.61 Bohr mag/cell

     iteration #  6     ecut=   110.00 Ry     beta= 0.70
     Davidson diagonalization with overlap

---- Real-time Memory Report at c_bands before calling an iterative solver
            82 MiB given to the printing process from OS
             0 MiB allocation reported by mallinfo(arena+hblkhd)
        240505 MiB available memory on the node where the printing process lives
------------------
     ethr =  4.51E-07,  avg # of iterations =  5.3

     total cpu time spent up to now is       15.8 secs

     total energy              =    -753.45431194 Ry
     estimated scf accuracy    <       0.00068914 Ry

     total magnetization       =     3.34 Bohr mag/cell
     absolute magnetization    =     3.64 Bohr mag/cell

     iteration #  7     ecut=   110.00 Ry     beta= 0.70
     Davidson diagonalization with overlap

---- Real-time Memory Report at c_bands before calling an iterative solver
            82 MiB given to the printing process from OS
             0 MiB allocation reported by mallinfo(arena+hblkhd)
        240496 MiB available memory on the node where the printing process lives
------------------
     ethr =  4.51E-07,  avg # of iterations =  4.0

     total cpu time spent up to now is       17.6 secs

     total energy              =    -753.45433217 Ry
     estimated scf accuracy    <       0.00007843 Ry

     total magnetization       =     3.34 Bohr mag/cell
     absolute magnetization    =     3.64 Bohr mag/cell

     iteration #  8     ecut=   110.00 Ry     beta= 0.70
     Davidson diagonalization with overlap

---- Real-time Memory Report at c_bands before calling an iterative solver
            83 MiB given to the printing process from OS
             0 MiB allocation reported by mallinfo(arena+hblkhd)
        240489 MiB available memory on the node where the printing process lives
------------------
     ethr =  2.31E-07,  avg # of iterations =  3.6

     total cpu time spent up to now is       19.4 secs

     total energy              =    -753.45436033 Ry
     estimated scf accuracy    <       0.00000952 Ry

     total magnetization       =     3.35 Bohr mag/cell
     absolute magnetization    =     3.66 Bohr mag/cell

     iteration #  9     ecut=   110.00 Ry     beta= 0.70
     Davidson diagonalization with overlap

---- Real-time Memory Report at c_bands before calling an iterative solver
            83 MiB given to the printing process from OS
             0 MiB allocation reported by mallinfo(arena+hblkhd)
        240484 MiB available memory on the node where the printing process lives
------------------
     ethr =  2.80E-08,  avg # of iterations =  3.4

     total cpu time spent up to now is       21.3 secs

     total energy              =    -753.45436351 Ry
     estimated scf accuracy    <       0.00000606 Ry

     total magnetization       =     3.36 Bohr mag/cell
     absolute magnetization    =     3.66 Bohr mag/cell

     iteration # 10     ecut=   110.00 Ry     beta= 0.70
     Davidson diagonalization with overlap

---- Real-time Memory Report at c_bands before calling an iterative solver
            84 MiB given to the printing process from OS
             0 MiB allocation reported by mallinfo(arena+hblkhd)
        240479 MiB available memory on the node where the printing process lives
------------------
     ethr =  1.78E-08,  avg # of iterations =  3.2

     total cpu time spent up to now is       23.0 secs

     total energy              =    -753.45436711 Ry
     estimated scf accuracy    <       0.00000134 Ry

     total magnetization       =     3.35 Bohr mag/cell
     absolute magnetization    =     3.65 Bohr mag/cell

     iteration # 11     ecut=   110.00 Ry     beta= 0.70
     Davidson diagonalization with overlap

---- Real-time Memory Report at c_bands before calling an iterative solver
            84 MiB given to the printing process from OS
             0 MiB allocation reported by mallinfo(arena+hblkhd)
        240478 MiB available memory on the node where the printing process lives
------------------
     ethr =  3.94E-09,  avg # of iterations =  4.5
 
     Magnetic moment per site  (integrated on atomic sphere of radius R)
     atom   1 (R=0.413)  charge= 15.5664  magn=  1.7475
     atom   2 (R=0.413)  charge= 15.5664  magn=  1.7475

     total cpu time spent up to now is       24.9 secs

     End of self-consistent calculation

 ------ SPIN UP ------------


          k = 0.0000 0.0000 0.0000 (  2791 PWs)   bands (ev):

   -77.0844 -77.0292 -40.4913 -40.1705 -40.1705 -40.1640 -40.1263 -40.1263
     9.9654  13.7650  16.2732  16.4264  16.4264  16.7232  16.7232  17.1507
    17.1507  18.1989  18.1989  18.5650  25.1813

     occupation numbers 
     1.0000   1.0000   1.0000   1.0000   1.0000   1.0000   1.0000   1.0000
     1.0000   1.0000   1.0000   1.0000   1.0000   1.0000   1.0000   1.0000
     1.0000   1.0000   1.0000   1.0000   0.0000

          k = 0.0000 0.0000 0.1007 (  2804 PWs)   bands (ev):

   -77.0807 -77.0329 -40.4697 -40.1862 -40.1676 -40.1676 -40.1293 -40.1293
    10.2372  13.6835  16.2067  16.3744  16.3744  16.6573  16.6573  17.2960
    17.2960  17.6617  18.1789  18.1789  26.6505

     occupation numbers 
     1.0000   1.0000   1.0000   1.0000   1.0000   1.0000   1.0000   1.0000
     1.0000   1.0000   1.0000   1.0000   1.0000   1.0000   1.0000   1.0000
     1.0000   1.0000   1.0000   1.0000   0.0000

          k = 0.0000 0.0000 0.2015 (  2840 PWs)   bands (ev):

   -77.0706 -77.0430 -40.4103 -40.2467 -40.1595 -40.1595 -40.1374 -40.1374
    11.0167  13.2179  16.0542  16.3292  16.3292  16.4141  16.5105  16.5105
    17.5942  17.5942  18.0872  18.0872  29.7879

     occupation numbers 
     1.0000   1.0000   1.0000   1.0000   1.0000   1.0000   1.0000   1.0000
     1.0000   1.0000   1.0000   1.0000   1.0000   1.0000   1.0000   1.0000
     1.0000   1.0000   1.0000   1.0000   0.0000

          k = 0.0000 0.0000-0.3022 (  2810 PWs)   bands (ev):

   -77.0568 -77.0568 -40.3288 -40.3288 -40.1485 -40.1485 -40.1485 -40.1485
    12.1541  12.1541  15.9852  15.9852  16.3783  16.3783  16.3783  16.3783
    17.8859  17.8859  17.8859  17.8859  33.5519

     occupation numbers 
     1.0000   1.0000   1.0000   1.0000   1.0000   1.0000   1.0000   1.0000
     1.0000   1.0000   1.0000   1.0000   1.0000   1.0000   1.0000   1.0000
     1.0000   1.0000   1.0000   1.0000   0.0000

          k = 0.0000 0.0962 0.0000 (  2805 PWs)   bands (ev):

   -77.0808 -77.0273 -40.4839 -40.1885 -40.1762 -40.1666 -40.1448 -40.1295
    10.2142  13.9207  16.1420  16.5241  16.5458  16.6669  16.8304  16.9535
    17.0783  17.3167  18.2271  19.8039  25.2204

     occupation numbers 
     1.0000   1.0000   1.0000   1.0000   1.0000   1.0000   1.0000   1.0000
     1.0000   1.0000   1.0000   1.0000   1.0000   1.0000   1.0000   1.0000
     1.0000   1.0000   1.0000   0.0000   0.0000

          k = 0.0000 0.0962 0.1007 (  2813 PWs)   bands (ev):

   -77.0772 -77.0309 -40.4634 -40.1915 -40.1849 -40.1731 -40.1446 -40.1326
    10.4818  13.8534  16.1394  16.3721  16.4798  16.4822  16.7591  16.9783
    17.2472  17.2938  18.2000  19.0949  26.7608

     occupation numbers 
     1.0000   1.0000   1.0000   1.0000   1.0000   1.0000   1.0000   1.0000
     1.0000   1.0000   1.0000   1.0000   1.0000   1.0000   1.0000   1.0000
     1.0000   1.0000   1.0000   0.0001   0.0000

          k = 0.0000 0.0962 0.2015 (  2823 PWs)   bands (ev):

   -77.0674 -77.0407 -40.4071 -40.2511 -40.1758 -40.1645 -40.1514 -40.1412
    11.2487  13.4142  16.0174  16.0468  16.2415  16.4269  16.6104  16.6174
    17.5658  17.6055  18.0921  18.3802  29.9464

     occupation numbers 
     1.0000   1.0000   1.0000   1.0000   1.0000   1.0000   1.0000   1.0000
     1.0000   1.0000   1.0000   1.0000   1.0000   1.0000   1.0000   1.0000
     1.0000   1.0000   1.0000   1.0000   0.0000

          k = 0.0000 0.0962-0.3022 (  2804 PWs)   bands (ev):

   -77.0541 -77.0541 -40.3296 -40.3296 -40.1633 -40.1633 -40.1529 -40.1529
    12.3679  12.3679  15.8638  15.8638  16.3647  16.3647  16.4765  16.4765
    17.8733  17.8733  17.9745  17.9745  33.7280

     occupation numbers 
     1.0000   1.0000   1.0000   1.0000   1.0000   1.0000   1.0000   1.0000
     1.0000   1.0000   1.0000   1.0000   1.0000   1.0000   1.0000   1.0000
     1.0000   1.0000   1.0000   1.0000   0.0000

          k = 0.0000 0.1925 0.0000 (  2791 PWs)   bands (ev):

   -77.0709 -77.0222 -40.4627 -40.2377 -40.1948 -40.1912 -40.1746 -40.1385
    10.9331  14.3066  15.8907  16.1201  16.4603  16.8298  16.8833  16.8998
    17.0228  17.1312  18.2854  21.4225  25.3599

     occupation numbers 
     1.0000   1.0000   1.0000   1.0000   1.0000   1.0000   1.0000   1.0000
     1.0000   1.0000   1.0000   1.0000   1.0000   1.0000   1.0000   1.0000
     1.0000   1.0000   1.0000   0.0000   0.0000

          k = 0.0000 0.1925 0.1007 (  2798 PWs)   bands (ev):

   -77.0676 -77.0255 -40.4460 -40.2334 -40.2174 -40.1877 -40.1735 -40.1420
    11.1844  14.2831  15.8511  15.9333  16.3386  16.7177  16.7209  17.0244
    17.2109  17.2674  18.2431  20.3290  27.1214

     occupation numbers 
     1.0000   1.0000   1.0000   1.0000   1.0000   1.0000   1.0000   1.0000
     1.0000   1.0000   1.0000   1.0000   1.0000   1.0000   1.0000   1.0000
     1.0000   1.0000   1.0000   0.0000   0.0000

          k = 0.0000 0.1925 0.2015 (  2811 PWs)   bands (ev):

   -77.0587 -77.0344 -40.4000 -40.2709 -40.2178 -40.1825 -40.1781 -40.1517
    11.9017  13.9211  15.5270  15.9897  16.0611  16.5524  16.6678  16.8861
    17.5329  17.6758  18.1020  19.0181  30.4217

     occupation numbers 
     1.0000   1.0000   1.0000   1.0000   1.0000   1.0000   1.0000   1.0000
     1.0000   1.0000   1.0000   1.0000   1.0000   1.0000   1.0000   1.0000
     1.0000   1.0000   1.0000   1.0000   0.0000

          k = 0.0000 0.1925-0.3022 (  2810 PWs)   bands (ev):

   -77.0466 -77.0466 -40.3363 -40.3363 -40.1995 -40.1995 -40.1649 -40.1649
    12.9425  12.9425  15.6505  15.6505  16.2843  16.2843  16.7383  16.7383
    17.8543  17.8543  18.2144  18.2144  34.2200

     occupation numbers 
     1.0000   1.0000   1.0000   1.0000   1.0000   1.0000   1.0000   1.0000
     1.0000   1.0000   1.0000   1.0000   1.0000   1.0000   1.0000   1.0000
     1.0000   1.0000   1.0000   1.0000   0.0000

          k = 0.0000 0.2887 0.0000 (  2791 PWs)   bands (ev):

   -77.0568 -77.0158 -40.4311 -40.3054 -40.2622 -40.2113 -40.1883 -40.1512
    12.0172  14.6123  15.3822  15.7431  16.3401  16.6851  16.8006  17.2828
    17.3733  17.5634  18.3377  23.2361  25.6389

     occupation numbers 
     1.0000   1.0000   1.0000   1.0000   1.0000   1.0000   1.0000   1.0000
     1.0000   1.0000   1.0000   1.0000   1.0000   1.0000   1.0000   1.0000
     1.0000   1.0000   1.0000   0.0000   0.0000

          k = 0.0000 0.2887 0.1007 (  2791 PWs)   bands (ev):

   -77.0541 -77.0185 -40.4230 -40.2968 -40.2759 -40.2073 -40.1915 -40.1552
    12.2245  14.6410  15.2460  15.7961  16.1949  16.7253  16.7926  17.4106
    17.4182  17.5242  18.2834  21.6143  27.7783

     occupation numbers 
     1.0000   1.0000   1.0000   1.0000   1.0000   1.0000   1.0000   1.0000
     1.0000   1.0000   1.0000   1.0000   1.0000   1.0000   1.0000   1.0000
     1.0000   1.0000   1.0000   0.0000   0.0000

          k = 0.0000 0.2887 0.2015 (  2800 PWs)   bands (ev):

   -77.0466 -77.0260 -40.3987 -40.3182 -40.2649 -40.2058 -40.1963 -40.1662
    12.8024  14.3645  15.1989  15.7950  16.0979  16.6353  16.8486  17.2710
    17.6636  17.8242  18.1281  19.7873  31.1217

     occupation numbers 
     1.0000   1.0000   1.0000   1.0000   1.0000   1.0000   1.0000   1.0000
     1.0000   1.0000   1.0000   1.0000   1.0000   1.0000   1.0000   1.0000
     1.0000   1.0000   1.0000   0.0000   0.0000

          k = 0.0000 0.2887-0.3022 (  2804 PWs)   bands (ev):

   -77.0363 -77.0363 -40.3612 -40.3612 -40.2327 -40.2327 -40.1813 -40.1813
    13.6052  13.6052  15.4917  15.4917  16.3504  16.3504  17.0455  17.0455
    17.9022  17.9022  18.5549  18.5549  33.7042

     occupation numbers 
     1.0000   1.0000   1.0000   1.0000   1.0000   1.0000   1.0000   1.0000
     1.0000   1.0000   1.0000   1.0000   1.0000   1.0000   1.0000   1.0000
     1.0000   1.0000   1.0000   1.0000   0.0000

          k = 0.0000 0.3849 0.0000 (  2808 PWs)   bands (ev):

   -77.0419 -77.0102 -40.3943 -40.3737 -40.3283 -40.2309 -40.2071 -40.1643
    13.1894  14.5334  14.8570  15.8663  16.4704  16.4915  16.5917  17.8977
    18.0173  18.0307  18.3710  25.2115  25.7923

     occupation numbers 
     1.0000   1.0000   1.0000   1.0000   1.0000   1.0000   1.0000   1.0000
     1.0000   1.0000   1.0000   1.0000   1.0000   1.0000   1.0000   1.0000
     1.0000   1.0000   1.0000   0.0000   0.0000

          k = 0.0000 0.3849 0.1007 (  2797 PWs)   bands (ev):

   -77.0398 -77.0123 -40.4138 -40.3509 -40.3306 -40.2264 -40.2081 -40.1687
    13.2795  14.5455  14.9062  15.6890  16.4223  16.5831  16.9550  17.9032
    17.9435  17.9528  18.3301  22.8678  28.1321

     occupation numbers 
     1.0000   1.0000   1.0000   1.0000   1.0000   1.0000   1.0000   1.0000
     1.0000   1.0000   1.0000   1.0000   1.0000   1.0000   1.0000   1.0000
     1.0000   1.0000   1.0000   0.0000   0.0000

          k = 0.0000 0.3849 0.2015 (  2801 PWs)   bands (ev):

   -77.0340 -77.0181 -40.4205 -40.3770 -40.2875 -40.2184 -40.2143 -40.1809
    13.5383  14.3471  15.0640  15.5602  16.5621  16.8410  17.2981  17.6116
    18.0103  18.0591  18.2357  20.6811  29.4134

     occupation numbers 
     1.0000   1.0000   1.0000   1.0000   1.0000   1.0000   1.0000   1.0000
     1.0000   1.0000   1.0000   1.0000   1.0000   1.0000   1.0000   1.0000
     1.0000   1.0000   1.0000   0.0000   0.0000

          k = 0.0000 0.3849-0.3022 (  2810 PWs)   bands (ev):

   -77.0260 -77.0260 -40.4061 -40.4061 -40.2456 -40.2456 -40.1976 -40.1976
    13.9274  13.9274  15.3425  15.3425  16.9863  16.9863  17.2138  17.2138
    18.1205  18.1205  19.0400  19.0400  30.5082

     occupation numbers 
     1.0000   1.0000   1.0000   1.0000   1.0000   1.0000   1.0000   1.0000
     1.0000   1.0000   1.0000   1.0000   1.0000   1.0000   1.0000   1.0000
     1.0000   1.0000   0.9760   0.9760   0.0000

          k = 0.0000 0.4811 0.0000 (  2800 PWs)   bands (ev):

   -77.0298 -77.0073 -40.4239 -40.3759 -40.3605 -40.2450 -40.2278 -40.1740
    13.9403  14.3356  14.5456  16.2392  16.3591  16.4426  16.6940  18.2926
    18.3872  18.4153  19.1902  24.1755  27.2527

     occupation numbers 
     1.0000   1.0000   1.0000   1.0000   1.0000   1.0000   1.0000   1.0000
     1.0000   1.0000   1.0000   1.0000   1.0000   1.0000   1.0000   1.0000
     1.0000   1.0000   0.0000   0.0000   0.0000

          k = 0.0000 0.4811 0.1007 (  2805 PWs)   bands (ev):

   -77.0283 -77.0088 -40.4401 -40.3918 -40.3309 -40.2403 -40.2252 -40.1788
    13.8212  14.3155  14.8686  15.5715  16.4699  16.7111  17.3346  18.1665
    18.3150  18.4587  19.0261  23.3049  26.7661

     occupation numbers 
     1.0000   1.0000   1.0000   1.0000   1.0000   1.0000   1.0000   1.0000
     1.0000   1.0000   1.0000   1.0000   1.0000   1.0000   1.0000   1.0000
     1.0000   1.0000   0.9997   0.0000   0.0000

          k = 0.0000 0.4811 0.2015 (  2805 PWs)   bands (ev):

   -77.0242 -77.0129 -40.4534 -40.4218 -40.2848 -40.2277 -40.2273 -40.1918
    13.7771  14.2372  15.0450  15.3451  16.7838  17.0000  17.7497  18.3253
    18.3491  18.4411  18.6895  21.5516  26.9795

     occupation numbers 
     1.0000   1.0000   1.0000   1.0000   1.0000   1.0000   1.0000   1.0000
     1.0000   1.0000   1.0000   1.0000   1.0000   1.0000   1.0000   1.0000
     1.0000   1.0000   1.0000   0.0000   0.0000

          k = 0.0000 0.4811-0.3022 (  2816 PWs)   bands (ev):

   -77.0185 -77.0185 -40.4465 -40.4465 -40.2473 -40.2473 -40.2096 -40.2096
    13.9530  13.9530  15.2083  15.2083  17.2437  17.2437  17.7274  17.7274
    18.3970  18.3970  19.8983  19.8983  27.7473

     occupation numbers 
     1.0000   1.0000   1.0000   1.0000   1.0000   1.0000   1.0000   1.0000
     1.0000   1.0000   1.0000   1.0000   1.0000   1.0000   1.0000   1.0000
     1.0000   1.0000   0.0000   0.0000   0.0000

          k = 0.0000-0.5774 0.0000 (  2798 PWs)   bands (ev):

   -77.0248 -77.0067 -40.4422 -40.3933 -40.3448 -40.2502 -40.2387 -40.1776
    14.1749  14.2060  14.4426  16.3123  16.3886  16.5062  16.7658  18.3918
    18.4358  18.5708  20.3847  22.4607  28.5806

     occupation numbers 
     1.0000   1.0000   1.0000   1.0000   1.0000   1.0000   1.0000   1.0000
     1.0000   1.0000   1.0000   1.0000   1.0000   1.0000   1.0000   1.0000
     1.0000   1.0000   0.0000   0.0000   0.0000

          k = 0.0000-0.5774 0.1007 (  2804 PWs)   bands (ev):

   -77.0236 -77.0080 -40.4550 -40.4083 -40.3215 -40.2453 -40.2340 -40.1825
    13.9123  14.2193  14.8972  15.5422  16.4285  16.7962  17.5493  18.2062
    18.4628  18.5636  20.1611  22.2637  27.7976

     occupation numbers 
     1.0000   1.0000   1.0000   1.0000   1.0000   1.0000   1.0000   1.0000
     1.0000   1.0000   1.0000   1.0000   1.0000   1.0000   1.0000   1.0000
     1.0000   1.0000   0.0000   0.0000   0.0000

          k = 0.0000-0.5774 0.2015 (  2796 PWs)   bands (ev):

   -77.0203 -77.0113 -40.4678 -40.4384 -40.2802 -40.2321 -40.2321 -40.1958
    13.7925  14.1931  15.0761  15.2425  16.7584  17.1415  17.7747  18.4496
    18.4876  18.5437  19.8026  21.6172  26.8162

     occupation numbers 
     1.0000   1.0000   1.0000   1.0000   1.0000   1.0000   1.0000   1.0000
     1.0000   1.0000   1.0000   1.0000   1.0000   1.0000   1.0000   1.0000
     1.0000   1.0000   0.0000   0.0000   0.0000

          k = 0.0000-0.5774-0.3022 (  2808 PWs)   bands (ev):

   -77.0158 -77.0158 -40.4621 -40.4621 -40.2471 -40.2471 -40.2140 -40.2140
    13.9354  13.9354  15.1570  15.1570  17.2425  17.2425  17.9673  17.9673
    18.5161  18.5161  20.5762  20.5762  26.4657

     occupation numbers 
     1.0000   1.0000   1.0000   1.0000   1.0000   1.0000   1.0000   1.0000
     1.0000   1.0000   1.0000   1.0000   1.0000   1.0000   1.0000   1.0000
     1.0000   1.0000   0.0000   0.0000   0.0000

          k = 0.0833 0.1443 0.0000 (  2795 PWs)   bands (ev):

   -77.0740 -77.0238 -40.4696 -40.2192 -40.1957 -40.1719 -40.1706 -40.1379
    10.6990  14.1980  15.9445  16.3732  16.5514  16.6644  16.7898  16.8531
    17.0638  17.1670  18.2584  20.9710  25.3117

     occupation numbers 
     1.0000   1.0000   1.0000   1.0000   1.0000   1.0000   1.0000   1.0000
     1.0000   1.0000   1.0000   1.0000   1.0000   1.0000   1.0000   1.0000
     1.0000   1.0000   1.0000   0.0000   0.0000

          k = 0.0833 0.1443 0.1007 (  2807 PWs)   bands (ev):

   -77.0707 -77.0272 -40.4515 -40.2148 -40.2092 -40.1860 -40.1626 -40.1412
    10.9566  14.1603  15.9752  16.0430  16.3885  16.6422  16.7144  16.9360
    17.2127  17.2872  18.2236  19.9941  26.9982

     occupation numbers 
     1.0000   1.0000   1.0000   1.0000   1.0000   1.0000   1.0000   1.0000
     1.0000   1.0000   1.0000   1.0000   1.0000   1.0000   1.0000   1.0000
     1.0000   1.0000   1.0000   0.0000   0.0000

          k = 0.0833 0.1443 0.2015 (  2810 PWs)   bands (ev):

   -77.0615 -77.0364 -40.4018 -40.2630 -40.2031 -40.1818 -40.1662 -40.1502
    11.6931  13.7728  15.6498  16.0243  16.0847  16.5433  16.6181  16.8027
    17.5630  17.6276  18.1003  18.8336  30.2659

     occupation numbers 
     1.0000   1.0000   1.0000   1.0000   1.0000   1.0000   1.0000   1.0000
     1.0000   1.0000   1.0000   1.0000   1.0000   1.0000   1.0000   1.0000
     1.0000   1.0000   1.0000   1.0000   0.0000

          k = 0.0833 0.1443-0.3022 (  2818 PWs)   bands (ev):

   -77.0489 -77.0489 -40.3332 -40.3332 -40.1883 -40.1883 -40.1618 -40.1618
    12.7659  12.7659  15.7068  15.7068  16.2882  16.2882  16.6690  16.6690
    17.8597  17.8597  18.1399  18.1399  34.0694

     occupation numbers 
     1.0000   1.0000   1.0000   1.0000   1.0000   1.0000   1.0000   1.0000
     1.0000   1.0000   1.0000   1.0000   1.0000   1.0000   1.0000   1.0000
     1.0000   1.0000   1.0000   1.0000   0.0000

          k = 0.0833 0.2406 0.0000 (  2793 PWs)   bands (ev):

   -77.0620 -77.0181 -40.4431 -40.2736 -40.2451 -40.1981 -40.1828 -40.1521
    11.6098  14.5947  15.6503  15.6788  16.4020  16.6102  16.9358  17.0161
    17.2348  17.5037  18.2944  22.5832  25.5420

     occupation numbers 
     1.0000   1.0000   1.0000   1.0000   1.0000   1.0000   1.0000   1.0000
     1.0000   1.0000   1.0000   1.0000   1.0000   1.0000   1.0000   1.0000
     1.0000   1.0000   1.0000   0.0000   0.0000

          k = 0.0833 0.2406 0.1007 (  2792 PWs)   bands (ev):

   -77.0591 -77.0210 -40.4308 -40.2677 -40.2559 -40.2040 -40.1809 -40.1556
    11.8394  14.6155  15.4448  15.7309  16.2928  16.5731  16.8464  17.1220
    17.4151  17.4765  18.2560  21.1731  27.5279

     occupation numbers 
     1.0000   1.0000   1.0000   1.0000   1.0000   1.0000   1.0000   1.0000
     1.0000   1.0000   1.0000   1.0000   1.0000   1.0000   1.0000   1.0000
     1.0000   1.0000   1.0000   0.0000   0.0000

          k = 0.0833 0.2406 0.2015 (  2799 PWs)   bands (ev):

   -77.0511 -77.0291 -40.3966 -40.2973 -40.2456 -40.2074 -40.1833 -40.1653
    12.4883  14.3061  15.2845  15.8427  16.0127  16.4455  16.8214  17.1385
    17.6533  17.7471  18.1359  19.5216  30.8956

     occupation numbers 
     1.0000   1.0000   1.0000   1.0000   1.0000   1.0000   1.0000   1.0000
     1.0000   1.0000   1.0000   1.0000   1.0000   1.0000   1.0000   1.0000
     1.0000   1.0000   1.0000   0.0000   0.0000

          k = 0.0833 0.2406-0.3022 (  2812 PWs)   bands (ev):

   -77.0401 -77.0401 -40.3482 -40.3482 -40.2223 -40.2223 -40.1774 -40.1774
    13.4151  13.4151  15.5580  15.5580  16.1715  16.1715  16.9646  16.9646
    17.9058  17.9058  18.4337  18.4337  34.5904

     occupation numbers 
     1.0000   1.0000   1.0000   1.0000   1.0000   1.0000   1.0000   1.0000
     1.0000   1.0000   1.0000   1.0000   1.0000   1.0000   1.0000   1.0000
     1.0000   1.0000   1.0000   1.0000   0.0000

          k = 0.0833 0.3368 0.0000 (  2797 PWs)   bands (ev):

   -77.0475 -77.0121 -40.4087 -40.3398 -40.3040 -40.2248 -40.1993 -40.1675
    12.7782  14.7159  15.0753  15.6275  16.3940  16.4093  16.7969  17.3783
    17.7624  18.0993  18.3231  24.4396  25.9141

     occupation numbers 
     1.0000   1.0000   1.0000   1.0000   1.0000   1.0000   1.0000   1.0000
     1.0000   1.0000   1.0000   1.0000   1.0000   1.0000   1.0000   1.0000
     1.0000   1.0000   1.0000   0.0000   0.0000

          k = 0.0833 0.3368 0.1007 (  2797 PWs)   bands (ev):

   -77.0451 -77.0145 -40.4110 -40.3285 -40.3094 -40.2255 -40.1988 -40.1711
    12.9348  14.7633  14.9952  15.6695  16.2022  16.6390  16.7610  17.4198
    17.8426  17.9466  18.3485  22.4458  28.3181

     occupation numbers 
     1.0000   1.0000   1.0000   1.0000   1.0000   1.0000   1.0000   1.0000
     1.0000   1.0000   1.0000   1.0000   1.0000   1.0000   1.0000   1.0000
     1.0000   1.0000   1.0000   0.0000   0.0000

          k = 0.0833 0.3368 0.2015 (  2797 PWs)   bands (ev):

   -77.0387 -77.0210 -40.4052 -40.3511 -40.2797 -40.2254 -40.2021 -40.1810
    13.3598  14.4877  15.1317  15.7070  16.1372  16.6252  16.8720  17.4652
    17.8767  18.0542  18.3277  20.3809  31.0154

     occupation numbers 
     1.0000   1.0000   1.0000   1.0000   1.0000   1.0000   1.0000   1.0000
     1.0000   1.0000   1.0000   1.0000   1.0000   1.0000   1.0000   1.0000
     1.0000   1.0000   1.0000   0.0000   0.0000

          k = 0.0833 0.3368-0.3022 (  2806 PWs)   bands (ev):

   -77.0298 -77.0298 -40.3834 -40.3834 -40.2441 -40.2441 -40.1948 -40.1948
    13.9315  13.9315  15.4618  15.4618  16.3688  16.3688  17.1513  17.1513
    18.1307  18.1307  18.8977  18.8977  32.2436

     occupation numbers 
     1.0000   1.0000   1.0000   1.0000   1.0000   1.0000   1.0000   1.0000
     1.0000   1.0000   1.0000   1.0000   1.0000   1.0000   1.0000   1.0000
     1.0000   1.0000   1.0000   1.0000   0.0000

          k = 0.0833 0.4330 0.0000 (  2808 PWs)   bands (ev):

   -77.0338 -77.0080 -40.3983 -40.3724 -40.3548 -40.2466 -40.2201 -40.1808
    13.7908  14.5264  14.6902  15.8725  16.2870  16.5701  16.6000  17.9411
    18.2095  18.3389  18.9262  25.4538  26.4569

     occupation numbers 
     1.0000   1.0000   1.0000   1.0000   1.0000   1.0000   1.0000   1.0000
     1.0000   1.0000   1.0000   1.0000   1.0000   1.0000   1.0000   1.0000
     1.0000   1.0000   1.0000   0.0000   0.0000

          k = 0.0833 0.4330 0.1007 (  2800 PWs)   bands (ev):

   -77.0321 -77.0097 -40.4207 -40.3728 -40.3330 -40.2442 -40.2179 -40.1842
    13.7716  14.5293  14.8609  15.5899  16.3659  16.6779  16.9166  17.8925
    18.1656  18.2661  18.9206  23.5657  27.3674

     occupation numbers 
     1.0000   1.0000   1.0000   1.0000   1.0000   1.0000   1.0000   1.0000
     1.0000   1.0000   1.0000   1.0000   1.0000   1.0000   1.0000   1.0000
     1.0000   1.0000   1.0000   0.0000   0.0000

          k = 0.0833 0.4330 0.2015 (  2805 PWs)   bands (ev):

   -77.0274 -77.0145 -40.4339 -40.4008 -40.2879 -40.2377 -40.2189 -40.1935
    13.8360  14.3904  15.0559  15.5115  16.4743  16.9158  17.3394  17.6412
    18.0593  18.4063  18.9772  21.4275  28.1219

     occupation numbers 
     1.0000   1.0000   1.0000   1.0000   1.0000   1.0000   1.0000   1.0000
     1.0000   1.0000   1.0000   1.0000   1.0000   1.0000   1.0000   1.0000
     1.0000   1.0000   1.0000   0.0000   0.0000

          k = 0.0833 0.4330-0.3022 (  2816 PWs)   bands (ev):

   -77.0209 -77.0209 -40.4257 -40.4257 -40.2523 -40.2523 -40.2084 -40.2084
    14.0672  14.0672  15.3264  15.3264  16.9139  16.9139  17.3174  17.3174
    18.3506  18.3506  19.7764  19.7764  29.1402

     occupation numbers 
     1.0000   1.0000   1.0000   1.0000   1.0000   1.0000   1.0000   1.0000
     1.0000   1.0000   1.0000   1.0000   1.0000   1.0000   1.0000   1.0000
     1.0000   1.0000   0.0000   0.0000   0.0000

          k = 0.0833 0.5292 0.0000 (  2806 PWs)   bands (ev):

   -77.0248 -77.0067 -40.4322 -40.3840 -40.3450 -40.2588 -40.2385 -40.1885
    14.2237  14.3602  14.4989  16.2578  16.2598  16.4008  16.7645  18.3449
    18.3536  18.4392  20.2338  23.2461  28.3867

     occupation numbers 
     1.0000   1.0000   1.0000   1.0000   1.0000   1.0000   1.0000   1.0000
     1.0000   1.0000   1.0000   1.0000   1.0000   1.0000   1.0000   1.0000
     1.0000   1.0000   0.0000   0.0000   0.0000

          k = 0.0833 0.5292 0.1007 (  2808 PWs)   bands (ev):

   -77.0236 -77.0079 -40.4452 -40.3995 -40.3225 -40.2533 -40.2346 -40.1919
    13.9993  14.3565  14.9415  15.5293  16.3037  16.8523  17.2101  18.1458
    18.3603  18.4656  20.1592  22.9489  27.2369

     occupation numbers 
     1.0000   1.0000   1.0000   1.0000   1.0000   1.0000   1.0000   1.0000
     1.0000   1.0000   1.0000   1.0000   1.0000   1.0000   1.0000   1.0000
     1.0000   1.0000   0.0000   0.0000   0.0000

          k = 0.0833 0.5292 0.2015 (  2810 PWs)   bands (ev):

   -77.0203 -77.0112 -40.4582 -40.4295 -40.2852 -40.2408 -40.2326 -40.2004
    13.9010  14.3249  15.0862  15.3589  16.4747  17.2167  17.6068  17.9073
    18.3190  18.5170  20.1815  22.0368  26.6034

     occupation numbers 
     1.0000   1.0000   1.0000   1.0000   1.0000   1.0000   1.0000   1.0000
     1.0000   1.0000   1.0000   1.0000   1.0000   1.0000   1.0000   1.0000
     1.0000   1.0000   0.0000   0.0000   0.0000

          k = 0.0833 0.5292-0.3022 (  2800 PWs)   bands (ev):

   -77.0158 -77.0158 -40.4528 -40.4528 -40.2554 -40.2554 -40.2150 -40.2150
    14.0531  14.0531  15.2353  15.2353  17.0154  17.0154  17.7630  17.7630
    18.3931  18.3931  20.9003  20.9003  26.8911

     occupation numbers 
     1.0000   1.0000   1.0000   1.0000   1.0000   1.0000   1.0000   1.0000
     1.0000   1.0000   1.0000   1.0000   1.0000   1.0000   1.0000   1.0000
     1.0000   1.0000   0.0000   0.0000   0.0000

          k = 0.1667 0.2887 0.0000 (  2800 PWs)   bands (ev):

   -77.0495 -77.0128 -40.4137 -40.3139 -40.3051 -40.2185 -40.1968 -40.1763
    12.6334  14.9191  15.1918  15.3770  16.3270  16.4048  16.9092  17.1070
    17.7476  18.1273  18.2785  24.1799  25.9444

     occupation numbers 
     1.0000   1.0000   1.0000   1.0000   1.0000   1.0000   1.0000   1.0000
     1.0000   1.0000   1.0000   1.0000   1.0000   1.0000   1.0000   1.0000
     1.0000   1.0000   1.0000   0.0000   0.0000

          k = 0.1667 0.2887 0.1007 (  2795 PWs)   bands (ev):

   -77.0471 -77.0153 -40.4113 -40.3135 -40.3004 -40.2281 -40.1912 -40.1800
    12.8127  15.0100  15.0455  15.4304  16.2702  16.4132  16.8070  17.2256
    17.8583  17.9319  18.3644  22.3088  28.2826

     occupation numbers 
     1.0000   1.0000   1.0000   1.0000   1.0000   1.0000   1.0000   1.0000
     1.0000   1.0000   1.0000   1.0000   1.0000   1.0000   1.0000   1.0000
     1.0000   1.0000   1.0000   0.0000   0.0000

          k = 0.1667 0.2887 0.2015 (  2797 PWs)   bands (ev):

   -77.0404 -77.0220 -40.3989 -40.3396 -40.2703 -40.2347 -40.1922 -40.1890
    13.3043  14.6095  15.2589  15.5818  16.0655  16.2815  16.8196  17.3995
    17.8720  18.0505  18.4053  20.3069  31.6356

     occupation numbers 
     1.0000   1.0000   1.0000   1.0000   1.0000   1.0000   1.0000   1.0000
     1.0000   1.0000   1.0000   1.0000   1.0000   1.0000   1.0000   1.0000
     1.0000   1.0000   1.0000   0.0000   0.0000

          k = 0.1667 0.2887-0.3022 (  2808 PWs)   bands (ev):

   -77.0312 -77.0312 -40.3730 -40.3730 -40.2435 -40.2435 -40.1960 -40.1960
    13.9696  13.9696  15.5712  15.5712  16.0104  16.0104  17.0963  17.0963
    18.1798  18.1798  18.8816  18.8816  33.9727

     occupation numbers 
     1.0000   1.0000   1.0000   1.0000   1.0000   1.0000   1.0000   1.0000
     1.0000   1.0000   1.0000   1.0000   1.0000   1.0000   1.0000   1.0000
     1.0000   1.0000   1.0000   1.0000   0.0000

          k = 0.1667 0.3849 0.0000 (  2799 PWs)   bands (ev):

   -77.0361 -77.0085 -40.3788 -40.3656 -40.3442 -40.2489 -40.2161 -40.1999
    13.7498  14.8403  14.8884  15.3701  16.1549  16.5483  16.6952  17.4446
    18.2008  18.2608  18.9737  26.0606  26.4222

     occupation numbers 
     1.0000   1.0000   1.0000   1.0000   1.0000   1.0000   1.0000   1.0000
     1.0000   1.0000   1.0000   1.0000   1.0000   1.0000   1.0000   1.0000
     1.0000   1.0000   1.0000   0.0000   0.0000

          k = 0.1667 0.3849 0.1007 (  2803 PWs)   bands (ev):

   -77.0342 -77.0103 -40.4018 -40.3620 -40.3218 -40.2561 -40.2115 -40.2003
    13.8170  14.7759  14.9796  15.4468  16.1894  16.5523  16.6581  17.4951
    18.0619  18.2852  19.0465  23.6277  28.7722

     occupation numbers 
     1.0000   1.0000   1.0000   1.0000   1.0000   1.0000   1.0000   1.0000
     1.0000   1.0000   1.0000   1.0000   1.0000   1.0000   1.0000   1.0000
     1.0000   1.0000   0.9039   0.0000   0.0000

          k = 0.1667 0.3849 0.2015 (  2806 PWs)   bands (ev):

   -77.0292 -77.0154 -40.4134 -40.3828 -40.2836 -40.2581 -40.2149 -40.2005
    14.0064  14.5728  15.2187  15.6576  16.0994  16.4100  16.8061  17.5003
    17.9803  18.4279  19.2170  21.4492  29.8628

     occupation numbers 
     1.0000   1.0000   1.0000   1.0000   1.0000   1.0000   1.0000   1.0000
     1.0000   1.0000   1.0000   1.0000   1.0000   1.0000   1.0000   1.0000
     1.0000   1.0000   0.0000   0.0000   0.0000

          k = 0.1667 0.3849-0.3022 (  2804 PWs)   bands (ev):

   -77.0223 -77.0223 -40.4050 -40.4050 -40.2613 -40.2613 -40.2104 -40.2104
    14.2818  14.2818  15.5475  15.5475  16.1962  16.1962  17.0900  17.0900
    18.3964  18.3964  19.8824  19.8824  30.9844

     occupation numbers 
     1.0000   1.0000   1.0000   1.0000   1.0000   1.0000   1.0000   1.0000
     1.0000   1.0000   1.0000   1.0000   1.0000   1.0000   1.0000   1.0000
     1.0000   1.0000   0.0000   0.0000   0.0000

          k = 0.1667 0.4811 0.0000 (  2812 PWs)   bands (ev):

   -77.0249 -77.0067 -40.4062 -40.3655 -40.3454 -40.2766 -40.2381 -40.2161
    14.4381  14.6267  14.6744  15.7031  16.1136  16.4544  16.7593  17.8965
    18.2479  18.4115  20.1910  24.9381  28.1008

     occupation numbers 
     1.0000   1.0000   1.0000   1.0000   1.0000   1.0000   1.0000   1.0000
     1.0000   1.0000   1.0000   1.0000   1.0000   1.0000   1.0000   1.0000
     1.0000   1.0000   0.0000   0.0000   0.0000

          k = 0.1667 0.4811 0.1007 (  2807 PWs)   bands (ev):

   -77.0237 -77.0079 -40.4198 -40.3835 -40.3215 -40.2739 -40.2359 -40.2129
    14.2549  14.7206  14.9200  15.4857  16.1653  16.6055  16.8605  17.8863
    18.0640  18.4692  20.2659  24.2905  27.1074

     occupation numbers 
     1.0000   1.0000   1.0000   1.0000   1.0000   1.0000   1.0000   1.0000
     1.0000   1.0000   1.0000   1.0000   1.0000   1.0000   1.0000   1.0000
     1.0000   1.0000   0.0000   0.0000   0.0000

          k = 0.1667 0.4811 0.2015 (  2808 PWs)   bands (ev):

   -77.0203 -77.0112 -40.4343 -40.4104 -40.2966 -40.2642 -40.2339 -40.2079
    14.2008  14.6323  15.1121  15.6347  16.0653  16.7518  17.1130  17.5767
    18.0815  18.5381  20.5596  22.7241  27.2631

     occupation numbers 
     1.0000   1.0000   1.0000   1.0000   1.0000   1.0000   1.0000   1.0000
     1.0000   1.0000   1.0000   1.0000   1.0000   1.0000   1.0000   1.0000
     1.0000   1.0000   0.0000   0.0000   0.0000

          k = 0.1667 0.4811-0.3022 (  2806 PWs)   bands (ev):

   -77.0158 -77.0158 -40.4310 -40.4310 -40.2764 -40.2764 -40.2162 -40.2162
    14.3505  14.3505  15.4357  15.4357  16.4727  16.4727  17.2778  17.2778
    18.3997  18.3997  21.3397  21.3397  28.1284

     occupation numbers 
     1.0000   1.0000   1.0000   1.0000   1.0000   1.0000   1.0000   1.0000
     1.0000   1.0000   1.0000   1.0000   1.0000   1.0000   1.0000   1.0000
     1.0000   1.0000   0.0000   0.0000   0.0000

          k = 0.1667 0.5774 0.0000 (  2812 PWs)   bands (ev):

   -77.0200 -77.0068 -40.4208 -40.3725 -40.3285 -40.2877 -40.2507 -40.2219
    14.5558  14.5682  14.6066  15.9368  16.1552  16.3099  16.8498  18.2060
    18.2431  18.3701  21.4768  23.1001  29.5471

     occupation numbers 
     1.0000   1.0000   1.0000   1.0000   1.0000   1.0000   1.0000   1.0000
     1.0000   1.0000   1.0000   1.0000   1.0000   1.0000   1.0000   1.0000
     1.0000   1.0000   0.0000   0.0000   0.0000

          k = 0.1667 0.5774 0.1007 (  2804 PWs)   bands (ev):

   -77.0191 -77.0077 -40.4315 -40.3888 -40.3207 -40.2719 -40.2510 -40.2181
    14.2689  14.6366  15.0855  15.4646  16.0839  16.7346  16.9577  18.0371
    18.2033  18.4150  21.5609  23.0350  28.3511

     occupation numbers 
     1.0000   1.0000   1.0000   1.0000   1.0000   1.0000   1.0000   1.0000
     1.0000   1.0000   1.0000   1.0000   1.0000   1.0000   1.0000   1.0000
     1.0000   1.0000   0.0000   0.0000   0.0000

          k = 0.1667 0.5774 0.2015 (  2809 PWs)   bands (ev):

   -77.0167 -77.0101 -40.4442 -40.4191 -40.3037 -40.2625 -40.2409 -40.2112
    14.1942  14.6432  15.1523  15.5835  15.9826  16.9513  17.2477  17.6466
    18.2214  18.4511  21.8378  22.7919  27.1286

     occupation numbers 
     1.0000   1.0000   1.0000   1.0000   1.0000   1.0000   1.0000   1.0000
     1.0000   1.0000   1.0000   1.0000   1.0000   1.0000   1.0000   1.0000
     1.0000   1.0000   0.0000   0.0000   0.0000

          k = 0.1667 0.5774-0.3022 (  2806 PWs)   bands (ev):

   -77.0134 -77.0134 -40.4409 -40.4409 -40.2825 -40.2825 -40.2174 -40.2174
    14.3529  14.3529  15.3940  15.3940  16.5090  16.5090  17.4930  17.4930
    18.3351  18.3351  22.3240  22.3240  26.6719

     occupation numbers 
     1.0000   1.0000   1.0000   1.0000   1.0000   1.0000   1.0000   1.0000
     1.0000   1.0000   1.0000   1.0000   1.0000   1.0000   1.0000   1.0000
     1.0000   1.0000   0.0000   0.0000   0.0000

          k = 0.2500 0.4330 0.0000 (  2828 PWs)   bands (ev):

   -77.0249 -77.0066 -40.3836 -40.3635 -40.3456 -40.2809 -40.2379 -40.2366
    14.5945  14.7016  15.1116  15.1258  16.0275  16.4855  16.7677  17.6330
    18.1976  18.4110  20.2103  26.6541  27.5785

     occupation numbers 
     1.0000   1.0000   1.0000   1.0000   1.0000   1.0000   1.0000   1.0000
     1.0000   1.0000   1.0000   1.0000   1.0000   1.0000   1.0000   1.0000
     1.0000   1.0000   0.0000   0.0000   0.0000

          k = 0.2500 0.4330 0.1007 (  2805 PWs)   bands (ev):

   -77.0237 -77.0079 -40.3943 -40.3882 -40.3096 -40.2938 -40.2389 -40.2232
    14.5855  14.6540  15.1334  15.2844  16.1803  16.3329  16.7788  17.6843
    18.0029  18.4744  20.3260  25.0065  27.8509

     occupation numbers 
     1.0000   1.0000   1.0000   1.0000   1.0000   1.0000   1.0000   1.0000
     1.0000   1.0000   1.0000   1.0000   1.0000   1.0000   1.0000   1.0000
     1.0000   1.0000   0.0000   0.0000   0.0000

          k = 0.2500 0.4330 0.2015 (  2797 PWs)   bands (ev):

   -77.0203 -77.0112 -40.4160 -40.4030 -40.2993 -40.2839 -40.2347 -40.2107
    14.5565  14.5963  15.2956  15.6558  16.0050  16.2893  16.8372  17.4770
    18.0456  18.5467  20.6847  22.9955  28.6060

     occupation numbers 
     1.0000   1.0000   1.0000   1.0000   1.0000   1.0000   1.0000   1.0000
     1.0000   1.0000   1.0000   1.0000   1.0000   1.0000   1.0000   1.0000
     1.0000   1.0000   0.0000   0.0000   0.0000

          k = 0.2500 0.4330-0.3022 (  2800 PWs)   bands (ev):

   -77.0158 -77.0158 -40.4173 -40.4173 -40.2898 -40.2898 -40.2166 -40.2166
    14.5585  14.5585  15.6084  15.6084  16.0811  16.0811  17.0564  17.0564
    18.4197  18.4197  21.5035  21.5035  29.6001

     occupation numbers 
     1.0000   1.0000   1.0000   1.0000   1.0000   1.0000   1.0000   1.0000
     1.0000   1.0000   1.0000   1.0000   1.0000   1.0000   1.0000   1.0000
     1.0000   1.0000   0.0000   0.0000   0.0000

          k = 0.2500 0.5292 0.0000 (  2815 PWs)   bands (ev):

   -77.0167 -77.0073 -40.3965 -40.3552 -40.3162 -40.3136 -40.2607 -40.2605
    14.6428  14.8766  14.9596  15.4747  16.0435  16.2630  16.9406  17.9348
    18.1606  18.3247  21.9114  24.5349  26.9128

     occupation numbers 
     1.0000   1.0000   1.0000   1.0000   1.0000   1.0000   1.0000   1.0000
     1.0000   1.0000   1.0000   1.0000   1.0000   1.0000   1.0000   1.0000
     1.0000   1.0000   0.0000   0.0000   0.0000

          k = 0.2500 0.5292 0.1007 (  2811 PWs)   bands (ev):

   -77.0161 -77.0079 -40.4029 -40.3763 -40.3321 -40.2870 -40.2654 -40.2387
    14.5897  14.9885  15.0781  15.3559  16.0662  16.2774  16.9617  17.9278
    17.9935  18.3713  22.0887  24.5283  26.9031

     occupation numbers 
     1.0000   1.0000   1.0000   1.0000   1.0000   1.0000   1.0000   1.0000
     1.0000   1.0000   1.0000   1.0000   1.0000   1.0000   1.0000   1.0000
     1.0000   1.0000   0.0000   0.0000   0.0000

          k = 0.2500 0.5292 0.2015 (  2796 PWs)   bands (ev):

   -77.0144 -77.0097 -40.4175 -40.4032 -40.3311 -40.2937 -40.2380 -40.2186
    14.6005  14.9611  15.2237  15.5429  15.9147  16.3106  17.0304  17.4916
    18.1295  18.4186  22.5652  24.1666  26.7841

     occupation numbers 
     1.0000   1.0000   1.0000   1.0000   1.0000   1.0000   1.0000   1.0000
     1.0000   1.0000   1.0000   1.0000   1.0000   1.0000   1.0000   1.0000
     1.0000   1.0000   0.0000   0.0000   0.0000

          k = 0.2500 0.5292-0.3022 (  2802 PWs)   bands (ev):

   -77.0120 -77.0120 -40.4197 -40.4197 -40.3138 -40.3138 -40.2175 -40.2175
    14.7350  14.7350  15.5098  15.5098  16.0827  16.0827  17.1655  17.1655
    18.3298  18.3298  23.3134  23.3134  27.3242

     occupation numbers 
     1.0000   1.0000   1.0000   1.0000   1.0000   1.0000   1.0000   1.0000
     1.0000   1.0000   1.0000   1.0000   1.0000   1.0000   1.0000   1.0000
     1.0000   1.0000   0.0000   0.0000   0.0000

          k = 0.3333 0.5774 0.0000 (  2820 PWs)   bands (ev):

   -77.0106 -77.0106 -40.3833 -40.3377 -40.3377 -40.2896 -40.2872 -40.2872
    14.6641  15.0829  15.0829  15.3337  16.0984  16.0984  17.0415  18.0919
    18.0919  18.1258  23.6807  24.5518  24.5518

     occupation numbers 
     1.0000   1.0000   1.0000   1.0000   1.0000   1.0000   1.0000   1.0000
     1.0000   1.0000   1.0000   1.0000   1.0000   1.0000   1.0000   1.0000
     1.0000   1.0000   0.0000   0.0000   0.0000

          k = 0.3333 0.5774 0.1007 (  2823 PWs)   bands (ev):

   -77.0106 -77.0106 -40.3771 -40.3646 -40.3646 -40.2959 -40.2602 -40.2602
    14.7571  15.0934  15.0934  15.3487  16.0779  16.0779  17.0182  17.9059
    18.1413  18.1413  24.0658  24.6131  24.6131

     occupation numbers 
     1.0000   1.0000   1.0000   1.0000   1.0000   1.0000   1.0000   1.0000
     1.0000   1.0000   1.0000   1.0000   1.0000   1.0000   1.0000   1.0000
     1.0000   1.0000   0.0000   0.0000   0.0000

          k = 0.3333 0.5774 0.2015 (  2811 PWs)   bands (ev):

   -77.0106 -77.0106 -40.3953 -40.3953 -40.3600 -40.3132 -40.2292 -40.2292
    14.9944  15.1117  15.1117  15.3530  16.0439  16.0439  16.9928  17.4495
    18.2373  18.2373  24.7640  24.7640  25.0626

     occupation numbers 
     1.0000   1.0000   1.0000   1.0000   1.0000   1.0000   1.0000   1.0000
     1.0000   1.0000   1.0000   1.0000   1.0000   1.0000   1.0000   1.0000
     1.0000   1.0000   0.0000   0.0000   0.0000

          k = 0.3333 0.5774-0.3022 (  2820 PWs)   bands (ev):

   -77.0106 -77.0106 -40.4070 -40.4070 -40.3366 -40.3366 -40.2174 -40.2174
    15.1195  15.1195  15.2426  15.2426  16.0303  16.0303  17.0981  17.0981
    18.2839  18.2839  24.8601  24.8601  26.4456

     occupation numbers 
     1.0000   1.0000   1.0000   1.0000   1.0000   1.0000   1.0000   1.0000
     1.0000   1.0000   1.0000   1.0000   1.0000   1.0000   1.0000   1.0000
     1.0000   1.0000   0.0000   0.0000   0.0000

 ------ SPIN DOWN ----------


          k = 0.0000 0.0000 0.0000 (  2791 PWs)   bands (ev):

   -74.9493 -74.8898 -38.4170 -38.0955 -38.0955 -38.0594 -38.0479 -38.0479
     9.9822  14.7160  17.9366  18.1250  18.1250  18.4742  18.4742  18.5240
    19.0358  19.0358  20.2036  20.2036  26.2729

     occupation numbers 
     1.0000   1.0000   1.0000   1.0000   1.0000   1.0000   1.0000   1.0000
     1.0000   1.0000   1.0000   1.0000   1.0000   1.0000   1.0000   1.0000
     0.9922   0.9922   0.0000   0.0000   0.0000

          k = 0.0000 0.0000 0.1007 (  2804 PWs)   bands (ev):

   -74.9453 -74.8938 -38.3934 -38.0923 -38.0923 -38.0837 -38.0511 -38.0511
    10.2555  14.4688  17.8482  17.9884  18.0740  18.0740  18.4001  18.4001
    19.1928  19.1928  20.1822  20.1822  27.5403

     occupation numbers 
     1.0000   1.0000   1.0000   1.0000   1.0000   1.0000   1.0000   1.0000
     1.0000   1.0000   1.0000   1.0000   1.0000   1.0000   1.0000   1.0000
     0.0000   0.0000   0.0000   0.0000   0.0000

          k = 0.0000 0.0000 0.2015 (  2840 PWs)   bands (ev):

   -74.9344 -74.9047 -38.3287 -38.1499 -38.0836 -38.0836 -38.0598 -38.0598
    11.0459  13.5679  17.4106  17.6243  18.0300  18.0300  18.2353  18.2353
    19.5242  19.5242  20.0803  20.0803  30.4379

     occupation numbers 
     1.0000   1.0000   1.0000   1.0000   1.0000   1.0000   1.0000   1.0000
     1.0000   1.0000   1.0000   1.0000   1.0000   1.0000   1.0000   1.0000
     0.0000   0.0000   0.0000   0.0000   0.0000

          k = 0.0000 0.0000-0.3022 (  2810 PWs)   bands (ev):

   -74.9196 -74.9196 -38.2396 -38.2396 -38.0717 -38.0717 -38.0717 -38.0717
    12.2440  12.2440  17.3940  17.3940  18.0869  18.0869  18.0869  18.0869
    19.8532  19.8532  19.8532  19.8532  34.0197

     occupation numbers 
     1.0000   1.0000   1.0000   1.0000   1.0000   1.0000   1.0000   1.0000
     1.0000   1.0000   1.0000   1.0000   1.0000   1.0000   1.0000   1.0000
     0.0000   0.0000   0.0000   0.0000   0.0000

          k = 0.0000 0.0962 0.0000 (  2805 PWs)   bands (ev):

   -74.9454 -74.8877 -38.4089 -38.1151 -38.1016 -38.0681 -38.0622 -38.0513
    10.2322  14.8930  17.7810  17.9800  18.2274  18.2564  18.3990  18.5923
    18.9430  18.9505  20.2376  20.9818  26.2881

     occupation numbers 
     1.0000   1.0000   1.0000   1.0000   1.0000   1.0000   1.0000   1.0000
     1.0000   1.0000   1.0000   1.0000   1.0000   1.0000   1.0000   1.0000
     1.0000   1.0000   0.0000   0.0000   0.0000

          k = 0.0000 0.0962 0.1007 (  2813 PWs)   bands (ev):

   -74.9415 -74.8916 -38.3866 -38.1114 -38.0983 -38.0932 -38.0637 -38.0547
    10.5019  14.6575  17.5859  17.7732  18.0604  18.1924  18.3992  18.5118
    19.1318  19.1341  20.2074  20.6664  27.6238

     occupation numbers 
     1.0000   1.0000   1.0000   1.0000   1.0000   1.0000   1.0000   1.0000
     1.0000   1.0000   1.0000   1.0000   1.0000   1.0000   1.0000   1.0000
     0.0000   0.0000   0.0000   0.0000   0.0000

          k = 0.0000 0.0962 0.2015 (  2823 PWs)   bands (ev):

   -74.9310 -74.9022 -38.3254 -38.1564 -38.1011 -38.0891 -38.0734 -38.0639
    11.2814  13.7710  17.2164  17.6257  17.9134  18.1393  18.2311  18.3447
    19.4874  19.5162  20.0853  20.2700  30.5801

     occupation numbers 
     1.0000   1.0000   1.0000   1.0000   1.0000   1.0000   1.0000   1.0000
     1.0000   1.0000   1.0000   1.0000   1.0000   1.0000   1.0000   1.0000
     0.0000   0.0000   0.0000   0.0000   0.0000

          k = 0.0000 0.0962-0.3022 (  2804 PWs)   bands (ev):

   -74.9166 -74.9166 -38.2412 -38.2412 -38.0872 -38.0872 -38.0765 -38.0765
    12.4630  12.4630  17.3203  17.3203  18.0278  18.0278  18.1954  18.1954
    19.8362  19.8362  19.9116  19.9116  34.1894

[...]
    20.3756  20.3845  21.5981  24.1723  28.9242

     occupation numbers 
     1.0000   1.0000   1.0000   1.0000   1.0000   1.0000   1.0000   1.0000
     1.0000   1.0000   1.0000   1.0000   1.0000   1.0000   1.0000   0.0000
     0.0000   0.0000   0.0000   0.0000   0.0000

          k = 0.0833 0.5292 0.1007 (  2808 PWs)   bands (ev):

   -74.8838 -74.8669 -38.3923 -38.3433 -38.2360 -38.1842 -38.1400 -38.1167
    14.9771  15.5626  16.1292  16.7151  17.9856  18.4461  18.4709  20.1293
    20.2901  20.4185  21.4585  23.8032  27.9918

     occupation numbers 
     1.0000   1.0000   1.0000   1.0000   1.0000   1.0000   1.0000   1.0000
     1.0000   1.0000   1.0000   1.0000   1.0000   1.0000   1.0000   0.0000
     0.0000   0.0000   0.0000   0.0000   0.0000

          k = 0.0833 0.5292 0.2015 (  2810 PWs)   bands (ev):

   -74.8802 -74.8705 -38.4040 -38.3736 -38.2011 -38.1635 -38.1493 -38.1206
    14.9396  15.4078  16.4303  16.7252  18.0204  18.8042  18.9875  19.6778
    20.2447  20.4855  21.2455  22.8282  27.5311

     occupation numbers 
     1.0000   1.0000   1.0000   1.0000   1.0000   1.0000   1.0000   1.0000
     1.0000   1.0000   1.0000   1.0000   1.0000   1.0000   1.0000   0.0000
     0.0000   0.0000   0.0000   0.0000   0.0000

          k = 0.0833 0.5292-0.3022 (  2800 PWs)   bands (ev):

   -74.8754 -74.8754 -38.3979 -38.3979 -38.1727 -38.1727 -38.1354 -38.1354
    15.1104  15.1104  16.6666  16.6666  18.5358  18.5358  19.3313  19.3313
    20.3351  20.3351  21.7664  21.7664  27.7984

     occupation numbers 
     1.0000   1.0000   1.0000   1.0000   1.0000   1.0000   1.0000   1.0000
     1.0000   1.0000   1.0000   1.0000   1.0000   1.0000   0.0000   0.0000
     0.0000   0.0000   0.0000   0.0000   0.0000

          k = 0.1667 0.2887 0.0000 (  2800 PWs)   bands (ev):

   -74.9117 -74.8722 -38.3317 -38.2518 -38.2429 -38.1477 -38.1020 -38.0948
    12.7228  16.1195  16.3717  16.8003  17.9943  18.0425  18.6363  18.8772
    19.5780  19.9359  20.2987  25.0143  26.7311

     occupation numbers 
     1.0000   1.0000   1.0000   1.0000   1.0000   1.0000   1.0000   1.0000
     1.0000   1.0000   1.0000   1.0000   1.0000   1.0000   1.0000   1.0000
     0.0000   0.0000   0.0000   0.0000   0.0000

          k = 0.1667 0.2887 0.1007 (  2795 PWs)   bands (ev):

   -74.9091 -74.8748 -38.3332 -38.2500 -38.2330 -38.1531 -38.1060 -38.0958
    12.9295  15.9925  16.3263  16.8670  17.9137  18.0172  18.5404  19.0172
    19.7031  19.8015  20.3132  23.3740  28.9110

     occupation numbers 
     1.0000   1.0000   1.0000   1.0000   1.0000   1.0000   1.0000   1.0000
     1.0000   1.0000   1.0000   1.0000   1.0000   1.0000   1.0000   1.0000
     0.0000   0.0000   0.0000   0.0000   0.0000

          k = 0.1667 0.2887 0.2015 (  2797 PWs)   bands (ev):

   -74.9018 -74.8821 -38.3260 -38.2731 -38.1942 -38.1569 -38.1155 -38.1058
    13.5158  15.2944  16.5911  17.0372  17.6086  17.8623  18.5975  19.1878
    19.7619  19.9248  20.2734  21.6753  32.1427

     occupation numbers 
     1.0000   1.0000   1.0000   1.0000   1.0000   1.0000   1.0000   1.0000
     1.0000   1.0000   1.0000   1.0000   1.0000   1.0000   1.0000   0.0000
     0.0000   0.0000   0.0000   0.0000   0.0000

          k = 0.1667 0.2887-0.3022 (  2808 PWs)   bands (ev):

   -74.8920 -74.8920 -38.3035 -38.3035 -38.1625 -38.1625 -38.1198 -38.1198
    14.3717  14.3717  16.9681  16.9681  17.5566  17.5566  18.9025  18.9025
    20.1084  20.1084  20.4947  20.4947  34.4142

     occupation numbers 
     1.0000   1.0000   1.0000   1.0000   1.0000   1.0000   1.0000   1.0000
     1.0000   1.0000   1.0000   1.0000   1.0000   1.0000   1.0000   1.0000
     0.0000   0.0000   0.0000   0.0000   0.0000

          k = 0.1667 0.3849 0.0000 (  2799 PWs)   bands (ev):

   -74.8972 -74.8675 -38.3086 -38.2935 -38.2850 -38.1808 -38.1275 -38.1158
    13.9984  16.0902  16.1859  16.6291  17.8211  18.1257  18.3766  19.2485
    20.0950  20.2784  20.7025  26.7999  27.0619

     occupation numbers 
     1.0000   1.0000   1.0000   1.0000   1.0000   1.0000   1.0000   1.0000
     1.0000   1.0000   1.0000   1.0000   1.0000   1.0000   1.0000   0.0000
     0.0000   0.0000   0.0000   0.0000   0.0000

          k = 0.1667 0.3849 0.1007 (  2803 PWs)   bands (ev):

   -74.8952 -74.8695 -38.3342 -38.3019 -38.2463 -38.1848 -38.1331 -38.1108
    14.1383  15.9509  16.2853  16.7303  17.7640  18.1200  18.3342  19.3155
    20.0254  20.1963  20.7945  24.4865  29.4004

     occupation numbers 
     1.0000   1.0000   1.0000   1.0000   1.0000   1.0000   1.0000   1.0000
     1.0000   1.0000   1.0000   1.0000   1.0000   1.0000   1.0000   0.0000
     0.0000   0.0000   0.0000   0.0000   0.0000

          k = 0.1667 0.3849 0.2015 (  2806 PWs)   bands (ev):

   -74.8898 -74.8750 -38.3492 -38.3219 -38.2040 -38.1830 -38.1406 -38.1124
    14.5225  15.5744  16.5596  16.9357  17.5984  17.8645  18.5257  19.3514
    19.8639  20.3768  20.8747  22.5180  30.4815

     occupation numbers 
     1.0000   1.0000   1.0000   1.0000   1.0000   1.0000   1.0000   1.0000
     1.0000   1.0000   1.0000   1.0000   1.0000   1.0000   1.0000   0.0000
     0.0000   0.0000   0.0000   0.0000   0.0000

          k = 0.1667 0.3849-0.3022 (  2804 PWs)   bands (ev):

   -74.8824 -74.8824 -38.3427 -38.3427 -38.1837 -38.1837 -38.1291 -38.1291
    15.0497  15.0497  16.8980  16.8980  17.5865  17.5865  18.9016  18.9016
    20.3536  20.3536  21.2128  21.2128  31.5620

     occupation numbers 
     1.0000   1.0000   1.0000   1.0000   1.0000   1.0000   1.0000   1.0000
     1.0000   1.0000   1.0000   1.0000   1.0000   1.0000   1.0000   1.0000
     0.0000   0.0000   0.0000   0.0000   0.0000

          k = 0.1667 0.4811 0.0000 (  2812 PWs)   bands (ev):

   -74.8852 -74.8656 -38.3528 -38.3081 -38.2568 -38.2108 -38.1451 -38.1397
    15.1022  15.9314  15.9472  16.7085  17.7542  18.0842  18.3684  19.7469
    20.2633  20.3446  21.6557  25.6912  28.7261

     occupation numbers 
     1.0000   1.0000   1.0000   1.0000   1.0000   1.0000   1.0000   1.0000
     1.0000   1.0000   1.0000   1.0000   1.0000   1.0000   1.0000   0.0000
     0.0000   0.0000   0.0000   0.0000   0.0000

          k = 0.1667 0.4811 0.1007 (  2807 PWs)   bands (ev):

   -74.8839 -74.8669 -38.3635 -38.3246 -38.2399 -38.2025 -38.1556 -38.1271
    15.1025  15.8842  16.1221  16.7248  17.7604  18.0468  18.4786  19.7517
    20.0331  20.4178  21.7007  24.9989  27.8971

     occupation numbers 
     1.0000   1.0000   1.0000   1.0000   1.0000   1.0000   1.0000   1.0000
     1.0000   1.0000   1.0000   1.0000   1.0000   1.0000   1.0000   0.0000
     0.0000   0.0000   0.0000   0.0000   0.0000

          k = 0.1667 0.4811 0.2015 (  2808 PWs)   bands (ev):

   -74.8803 -74.8705 -38.3766 -38.3520 -38.2222 -38.1868 -38.1555 -38.1197
    15.1815  15.6850  16.4464  16.9621  17.5792  18.0358  18.7376  19.4579
    19.9804  20.5112  21.8437  23.5248  28.0864

     occupation numbers 
     1.0000   1.0000   1.0000   1.0000   1.0000   1.0000   1.0000   1.0000
     1.0000   1.0000   1.0000   1.0000   1.0000   1.0000   1.0000   0.0000
     0.0000   0.0000   0.0000   0.0000   0.0000

          k = 0.1667 0.4811-0.3022 (  2806 PWs)   bands (ev):

   -74.8754 -74.8754 -38.3730 -38.3730 -38.2027 -38.2027 -38.1306 -38.1306
    15.3940  15.3940  16.8412  16.8412  17.7782  17.7782  19.0264  19.0264
    20.3429  20.3429  22.3600  22.3600  28.8841

     occupation numbers 
     1.0000   1.0000   1.0000   1.0000   1.0000   1.0000   1.0000   1.0000
     1.0000   1.0000   1.0000   1.0000   1.0000   1.0000   0.9997   0.9997
     0.0000   0.0000   0.0000   0.0000   0.0000

          k = 0.1667 0.5774 0.0000 (  2812 PWs)   bands (ev):

   -74.8799 -74.8657 -38.3688 -38.3157 -38.2384 -38.2230 -38.1535 -38.1513
    15.5540  15.8024  15.8814  16.7947  17.8341  17.8715  18.4763  20.1009
    20.2575  20.3030  22.5890  24.1251  30.0493

     occupation numbers 
     1.0000   1.0000   1.0000   1.0000   1.0000   1.0000   1.0000   1.0000
     1.0000   1.0000   1.0000   1.0000   1.0000   1.0000   1.0000   0.0000
     0.0000   0.0000   0.0000   0.0000   0.0000

          k = 0.1667 0.5774 0.1007 (  2804 PWs)   bands (ev):

   -74.8790 -74.8666 -38.3775 -38.3312 -38.2422 -38.1963 -38.1682 -38.1351
    15.3762  15.8448  16.2769  16.5842  17.7222  18.0788  18.5938  20.0099
    20.1019  20.3598  22.6090  24.0138  28.9819

     occupation numbers 
     1.0000   1.0000   1.0000   1.0000   1.0000   1.0000   1.0000   1.0000
     1.0000   1.0000   1.0000   1.0000   1.0000   1.0000   1.0000   0.0000
     0.0000   0.0000   0.0000   0.0000   0.0000

          k = 0.1667 0.5774 0.2015 (  2809 PWs)   bands (ev):

   -74.8764 -74.8692 -38.3886 -38.3617 -38.2312 -38.1874 -38.1577 -38.1236
    15.3204  15.7476  16.5217  16.8715  17.4926  18.2172  18.8901  19.5234
    20.1361  20.4094  22.7218  23.6545  27.9427

     occupation numbers 
     1.0000   1.0000   1.0000   1.0000   1.0000   1.0000   1.0000   1.0000
     1.0000   1.0000   1.0000   1.0000   1.0000   1.0000   1.0000   0.0000
     0.0000   0.0000   0.0000   0.0000   0.0000

          k = 0.1667 0.5774-0.3022 (  2806 PWs)   bands (ev):

   -74.8728 -74.8728 -38.3843 -38.3843 -38.2102 -38.2102 -38.1304 -38.1304
    15.4735  15.4735  16.8289  16.8289  17.8384  17.8384  19.1932  19.1932
    20.2765  20.2765  23.1167  23.1167  27.5898

     occupation numbers 
     1.0000   1.0000   1.0000   1.0000   1.0000   1.0000   1.0000   1.0000
     1.0000   1.0000   1.0000   1.0000   1.0000   1.0000   0.0000   0.0000
     0.0000   0.0000   0.0000   0.0000   0.0000

          k = 0.2500 0.4330 0.0000 (  2828 PWs)   bands (ev):

   -74.8852 -74.8655 -38.3283 -38.3058 -38.2571 -38.2157 -38.1675 -38.1395
    15.1274  16.0144  16.3064  16.3633  17.6516  18.1157  18.3754  19.4696
    20.2057  20.3404  21.7065  27.2310  28.2062

     occupation numbers 
     1.0000   1.0000   1.0000   1.0000   1.0000   1.0000   1.0000   1.0000
     1.0000   1.0000   1.0000   1.0000   1.0000   1.0000   1.0000   0.0000
     0.0000   0.0000   0.0000   0.0000   0.0000

          k = 0.2500 0.4330 0.1007 (  2805 PWs)   bands (ev):

   -74.8839 -74.8669 -38.3319 -38.3309 -38.2272 -38.2256 -38.1689 -38.1290
    15.1967  15.9305  16.3725  16.5437  17.6874  17.9220  18.4042  19.5337
    19.9675  20.4230  21.8020  25.6913  28.4842

     occupation numbers 
     1.0000   1.0000   1.0000   1.0000   1.0000   1.0000   1.0000   1.0000
     1.0000   1.0000   1.0000   1.0000   1.0000   1.0000   1.0000   0.0000
     0.0000   0.0000   0.0000   0.0000   0.0000

          k = 0.2500 0.4330 0.2015 (  2797 PWs)   bands (ev):

   -74.8803 -74.8705 -38.3541 -38.3446 -38.2307 -38.2086 -38.1557 -38.1196
    15.3748  15.7861  16.5890  16.8895  17.5246  17.6473  18.5215  19.3494
    19.9357  20.5215  22.0294  23.8393  29.2402

     occupation numbers 
     1.0000   1.0000   1.0000   1.0000   1.0000   1.0000   1.0000   1.0000
     1.0000   1.0000   1.0000   1.0000   1.0000   1.0000   1.0000   0.0000
     0.0000   0.0000   0.0000   0.0000   0.0000

          k = 0.2500 0.4330-0.3022 (  2800 PWs)   bands (ev):

   -74.8754 -74.8754 -38.3571 -38.3571 -38.2202 -38.2202 -38.1293 -38.1293
    15.5935  15.5935  16.9249  16.9249  17.4226  17.4226  18.8422  18.8422
    20.3680  20.3680  22.5818  22.5818  30.2233

     occupation numbers 
     1.0000   1.0000   1.0000   1.0000   1.0000   1.0000   1.0000   1.0000
     1.0000   1.0000   1.0000   1.0000   1.0000   1.0000   1.0000   1.0000
     0.0000   0.0000   0.0000   0.0000   0.0000

          k = 0.2500 0.5292 0.0000 (  2815 PWs)   bands (ev):

   -74.8764 -74.8663 -38.3421 -38.2968 -38.2514 -38.2248 -38.1935 -38.1644
    15.8375  16.0026  16.1517  16.4616  17.6483  17.8454  18.5805  19.8046
    20.1632  20.2468  23.0393  25.3511  27.5068

     occupation numbers 
     1.0000   1.0000   1.0000   1.0000   1.0000   1.0000   1.0000   1.0000
     1.0000   1.0000   1.0000   1.0000   1.0000   1.0000   1.0000   0.0000
     0.0000   0.0000   0.0000   0.0000   0.0000

          k = 0.2500 0.5292 0.1007 (  2811 PWs)   bands (ev):

   -74.8757 -74.8669 -38.3465 -38.3155 -38.2655 -38.2099 -38.1880 -38.1474
    15.7704  16.1402  16.2313  16.5196  17.6164  17.7416  18.6091  19.8399
    19.9226  20.3076  23.1926  25.3031  27.5311

     occupation numbers 
     1.0000   1.0000   1.0000   1.0000   1.0000   1.0000   1.0000   1.0000
     1.0000   1.0000   1.0000   1.0000   1.0000   1.0000   1.0000   0.0000
     0.0000   0.0000   0.0000   0.0000   0.0000

          k = 0.2500 0.5292 0.2015 (  2796 PWs)   bands (ev):

   -74.8738 -74.8688 -38.3582 -38.3428 -38.2663 -38.2261 -38.1511 -38.1279
    15.7883  16.0827  16.5095  16.8593  17.3385  17.6086  18.7071  19.3677
    20.0397  20.3708  23.5620  24.8851  27.5583

     occupation numbers 
     1.0000   1.0000   1.0000   1.0000   1.0000   1.0000   1.0000   1.0000
     1.0000   1.0000   1.0000   1.0000   1.0000   1.0000   1.0000   0.0000
     0.0000   0.0000   0.0000   0.0000   0.0000

          k = 0.2500 0.5292-0.3022 (  2802 PWs)   bands (ev):

   -74.8713 -74.8713 -38.3597 -38.3597 -38.2485 -38.2485 -38.1279 -38.1279
    15.9154  15.9154  16.9007  16.9007  17.3254  17.3254  18.9308  18.9308
    20.2692  20.2692  24.1427  24.1427  28.0971

     occupation numbers 
     1.0000   1.0000   1.0000   1.0000   1.0000   1.0000   1.0000   1.0000
     1.0000   1.0000   1.0000   1.0000   1.0000   1.0000   1.0000   1.0000
     0.0000   0.0000   0.0000   0.0000   0.0000

          k = 0.3333 0.5774 0.0000 (  2820 PWs)   bands (ev):

   -74.8698 -74.8698 -38.3276 -38.2779 -38.2779 -38.2250 -38.1933 -38.1933
    16.0524  16.1869  16.1869  16.3588  17.6720  17.6720  18.6921  19.9856
    19.9856  20.1234  24.5243  25.3643  25.3643

     occupation numbers 
     1.0000   1.0000   1.0000   1.0000   1.0000   1.0000   1.0000   1.0000
     1.0000   1.0000   1.0000   1.0000   1.0000   1.0000   1.0000   0.0000
     0.0000   0.0000   0.0000   0.0000   0.0000

          k = 0.3333 0.5774 0.1007 (  2823 PWs)   bands (ev):

   -74.8698 -74.8698 -38.3207 -38.3009 -38.3009 -38.2319 -38.1700 -38.1700
    16.1243  16.2533  16.2533  16.3878  17.5830  17.5830  18.6780  19.8607
    20.0476  20.0476  24.9249  25.4013  25.4013

     occupation numbers 
     1.0000   1.0000   1.0000   1.0000   1.0000   1.0000   1.0000   1.0000
     1.0000   1.0000   1.0000   1.0000   1.0000   1.0000   1.0000   0.0000
     0.0000   0.0000   0.0000   0.0000   0.0000

          k = 0.3333 0.5774 0.2015 (  2811 PWs)   bands (ev):

   -74.8698 -74.8698 -38.3316 -38.3316 -38.3021 -38.2508 -38.1390 -38.1390
    16.2915  16.4118  16.4118  16.4403  17.3881  17.3881  18.6940  19.3264
    20.1637  20.1637  25.4926  25.4926  25.9125

     occupation numbers 
     1.0000   1.0000   1.0000   1.0000   1.0000   1.0000   1.0000   1.0000
     1.0000   1.0000   1.0000   1.0000   1.0000   1.0000   1.0000   0.0000
     0.0000   0.0000   0.0000   0.0000   0.0000

          k = 0.3333 0.5774-0.3022 (  2820 PWs)   bands (ev):

   -74.8698 -74.8698 -38.3438 -38.3438 -38.2765 -38.2765 -38.1268 -38.1268
    16.4264  16.4264  16.5149  16.5149  17.2705  17.2705  18.8844  18.8844
    20.2184  20.2184  25.5501  25.5501  27.2268

     occupation numbers 
     1.0000   1.0000   1.0000   1.0000   1.0000   1.0000   1.0000   1.0000
     1.0000   1.0000   1.0000   1.0000   1.0000   1.0000   1.0000   1.0000
     0.0000   0.0000   0.0000   0.0000   0.0000

     the Fermi energy is    19.0591 ev

!    total energy              =    -753.45436775 Ry
     total all-electron energy =     -5573.811059 Ry
     estimated scf accuracy    <       0.00000027 Ry
     smearing contrib. (-TS)   =      -0.00001694 Ry
     internal energy E=F+TS    =    -753.45435080 Ry

     The total energy is F=E-TS. E is the sum of the following terms:
     one-electron contribution =    -279.24316738 Ry
     hartree contribution      =     163.71034786 Ry
     xc contribution           =     -61.42707311 Ry
     ewald contribution        =    -401.31769548 Ry
     one-center paw contrib.   =    -175.17676269 Ry
      -> PAW hartree energy AE =     222.08495925 Ry
      -> PAW hartree energy PS =    -221.02953820 Ry
      -> PAW xc energy AE      =    -117.67703691 Ry
      -> PAW xc energy PS      =      29.03323452 Ry
      -> total E_H with PAW    =     164.76576891 Ry
      -> total E_XC with PAW   =    -150.07087551 Ry

     total magnetization       =     3.36 Bohr mag/cell
     absolute magnetization    =     3.66 Bohr mag/cell

     convergence has been achieved in  11 iterations

     Writing all to output data dir ./out2/Co.save/
 
     init_run     :      0.36s CPU      0.50s WALL (       1 calls)
     electrons    :     22.98s CPU     24.27s WALL (       1 calls)

     Called by init_run:
     wfcinit      :      0.21s CPU      0.32s WALL (       1 calls)
     potinit      :      0.10s CPU      0.13s WALL (       1 calls)
     hinit0       :      0.03s CPU      0.04s WALL (       1 calls)

     Called by electrons:
     c_bands      :     19.60s CPU     20.54s WALL (      11 calls)
     sum_band     :      2.14s CPU      2.26s WALL (      11 calls)
     v_of_rho     :      0.04s CPU      0.04s WALL (      12 calls)
     v_h          :      0.00s CPU      0.00s WALL (      12 calls)
     v_xc         :      0.04s CPU      0.04s WALL (      12 calls)
     newd         :      0.05s CPU      0.06s WALL (      12 calls)
     PAW_pot      :      1.23s CPU      1.47s WALL (      12 calls)
     mix_rho      :      0.01s CPU      0.01s WALL (      11 calls)

     Called by c_bands:
     init_us_2    :      0.13s CPU      0.14s WALL (    3344 calls)
     init_us_2:cp :      0.13s CPU      0.13s WALL (    3344 calls)
     cegterg      :     18.80s CPU     19.66s WALL (    1672 calls)

     Called by sum_band:
     sum_band:wei :      0.02s CPU      0.02s WALL (      11 calls)
     sum_band:loo :      2.02s CPU      2.12s WALL (      11 calls)
     sum_band:buf :      0.01s CPU      0.02s WALL (    1672 calls)
     sum_band:ini :      0.08s CPU      0.07s WALL (    1672 calls)
     sum_band:cal :      0.16s CPU      0.16s WALL (    1672 calls)
     sum_band:bec :      0.00s CPU      0.01s WALL (    1672 calls)
     addusdens    :      0.09s CPU      0.09s WALL (      11 calls)
                                        0.00s GPU  (      11 calls)
     addusd:skk   :      0.00s CPU      0.00s WALL (      11 calls)
                                        0.00s GPU  (      11 calls)

     Called by *egterg:
     cdiaghg      :      5.12s CPU      5.25s WALL (    9243 calls)
     cegterg:over :      0.64s CPU      0.62s WALL (    7723 calls)
     cegterg:upda :      0.08s CPU      0.16s WALL (    7723 calls)
     cegterg:last :      0.23s CPU      0.27s WALL (    4984 calls)
     h_psi        :     11.86s CPU     12.50s WALL (    9395 calls)
     s_psi        :      0.26s CPU      0.22s WALL (    9395 calls)
     g_psi        :      0.04s CPU      0.05s WALL (    7723 calls)

     Called by h_psi:
     h_psi:calbec :      0.60s CPU      0.56s WALL (    9395 calls)
     vloc_psi     :     11.05s CPU     11.62s WALL (    9395 calls)
     add_vuspsi   :      0.17s CPU      0.25s WALL (    9395 calls)

     General routines
     calbec       :      0.75s CPU      0.70s WALL (   11067 calls)
     fft          :      0.02s CPU      0.02s WALL (     294 calls)
     ffts         :      0.00s CPU      0.00s WALL (      46 calls)
     fftw         :     11.93s CPU     12.41s WALL (  271864 calls)
     interpolate  :      0.00s CPU      0.00s WALL (      24 calls)
 
     Parallel routines

     PAW routines
     PAW_pot      :      1.23s CPU      1.47s WALL (      12 calls)
     PAW_symme    :      0.01s CPU      0.01s WALL (      22 calls)
 
     PWSCF        :     23.66s CPU     25.53s WALL

 
   This run was terminated on:   9:53:23  22Mar2024            

=------------------------------------------------------------------------------=
   JOB DONE.
=------------------------------------------------------------------------------=
