
     Program PWSCF v.7.2 starts on 22Mar2024 at  9:25:25 

     This program is part of the open-source Quantum ESPRESSO suite
     for quantum simulation of materials; please cite
         "P. Giannozzi et al., J. Phys.:Condens. Matter 21 395502 (2009);
         "P. Giannozzi et al., J. Phys.:Condens. Matter 29 465901 (2017);
         "P. Giannozzi et al., J. Chem. Phys. 152 154105 (2020);
          URL http://www.quantum-espresso.org", 
     in publications or presentations arising from this work. More details at
     http://www.quantum-espresso.org/quote

     Parallel version (MPI), running on    20 processors

     MPI processes distributed on     1 nodes
     352266 MiB available memory on the printing compute node when the environment starts
 
     Waiting for input...
     Reading input from standard input

     Current dimensions of program PWSCF are:
     Max number of different atomic species (ntypx) = 10
     Max number of k-points (npk) = 120000
     Max angular momentum in pseudopotentials (lmaxx) =  4
     file Co.pbe-spn-kjpaw_psl.0.3.1.UPF: wavefunction(s)  3P 3D renormalized
 
     R & G space division:  proc/nbgrp/npool/nimage =      20
     Subspace diagonalization in iterative solution of the eigenvalue problem:
     a serial algorithm will be used

 
     Parallelization info
     --------------------
     sticks:   dense  smooth     PW     G-vecs:    dense   smooth      PW
     Min          32      32      9                 1127     1090     179
     Max          34      33     10                 1143     1097     186
     Sum         661     649    199                22623    21855    3657
 
     Using Slab Decomposition
 


     bravais-lattice index     =            4
     lattice parameter (alat)  =       4.6204  a.u.
     unit-cell volume          =     140.4465 (a.u.)^3
     number of atoms/cell      =            2
     number of atomic types    =            1
     number of electrons       =        34.00
     number of Kohn-Sham states=           21
     kinetic-energy cutoff     =     110.0000  Ry
     charge density cutoff     =     450.0000  Ry
     scf convergence threshold =      1.0E-06
     mixing beta               =       0.7000
     number of iterations used =            8  plain     mixing
     Exchange-correlation= SLA  PW   PBX  PBC
                           (   1   4   3   4   0   0   0)

     celldm(1)=   4.620380  celldm(2)=   0.000000  celldm(3)=   1.644172
     celldm(4)=   0.000000  celldm(5)=   0.000000  celldm(6)=   0.000000

     crystal axes: (cart. coord. in units of alat)
               a(1) = (   1.000000   0.000000   0.000000 )  
               a(2) = (  -0.500000   0.866025   0.000000 )  
               a(3) = (   0.000000   0.000000   1.644172 )  

     reciprocal axes: (cart. coord. in units 2 pi/alat)
               b(1) = (  1.000000  0.577350  0.000000 )  
               b(2) = (  0.000000  1.154701  0.000000 )  
               b(3) = (  0.000000  0.000000  0.608209 )  


     PseudoPot. # 1 for Co read from file:
     /truba/home/amuhaymin/ZnS/pseudo/QE/Co.pbe-spn-kjpaw_psl.0.3.1.UPF
     MD5 check sum: b0a1ad65bf214e88c1f3d33b20c7d919
     Pseudo is Projector augmented-wave + core cor, Zval = 17.0
     Generated using &quot;atomic&quot; code by A. Dal Corso  v.6.2.2
     Shape of augmentation charge: PSQ
     Using radial grid of 1193 points,  6 beta functions with: 
                l(1) =   0
                l(2) =   0
                l(3) =   1
                l(4) =   1
                l(5) =   2
                l(6) =   2
     Q(r) pseudized with 0 coefficients 


     atomic species   valence    mass     pseudopotential
        Co            17.00    58.93300     Co( 1.00)

     Starting magnetic structure 
     atomic species   magnetization
        Co           0.294

     24 Sym. Ops., with inversion, found (12 have fractional translation)


                                    s                        frac. trans.

      isym =  1     identity                                     

 cryst.   s( 1) = (     1          0          0      )
                  (     0          1          0      )
                  (     0          0          1      )

 cart.    s( 1) = (  1.0000000  0.0000000  0.0000000 )
                  (  0.0000000  1.0000000  0.0000000 )
                  (  0.0000000  0.0000000  1.0000000 )


      isym =  2     180 deg rotation - cart. axis [0,0,1]        

 cryst.   s( 2) = (    -1          0          0      )    f =(  0.0000000 )
                  (     0         -1          0      )       (  0.0000000 )
                  (     0          0          1      )       ( -0.5000000 )

 cart.    s( 2) = ( -1.0000000  0.0000000  0.0000000 )    f =(  0.0000000 )
                  (  0.0000000 -1.0000000  0.0000000 )       (  0.0000000 )
                  (  0.0000000  0.0000000  1.0000000 )       ( -0.8220859 )


      isym =  3     180 deg rotation - cart. axis [0,1,0]        

 cryst.   s( 3) = (    -1          0          0      )    f =(  0.0000000 )
                  (     1          1          0      )       (  0.0000000 )
                  (     0          0         -1      )       (  0.5000000 )

 cart.    s( 3) = ( -1.0000000  0.0000000  0.0000000 )    f =(  0.0000000 )
                  (  0.0000000  1.0000000  0.0000000 )       (  0.0000000 )
                  (  0.0000000  0.0000000 -1.0000000 )       (  0.8220859 )


      isym =  4     180 deg rotation - cart. axis [1,0,0]        

 cryst.   s( 4) = (     1          0          0      )
                  (    -1         -1          0      )
                  (     0          0         -1      )

 cart.    s( 4) = (  1.0000000  0.0000000  0.0000000 )
                  (  0.0000000 -1.0000000  0.0000000 )
                  (  0.0000000  0.0000000 -1.0000000 )


      isym =  5      60 deg rotation - cryst. axis [0,0,1]       

 cryst.   s( 5) = (     1          1          0      )    f =(  0.0000000 )
                  (    -1          0          0      )       ( -0.0000000 )
                  (     0          0          1      )       ( -0.5000000 )

 cart.    s( 5) = (  0.5000000 -0.8660254  0.0000000 )    f =(  0.0000000 )
                  (  0.8660254  0.5000000  0.0000000 )       ( -0.0000000 )
                  (  0.0000000  0.0000000  1.0000000 )       ( -0.8220859 )


      isym =  6      60 deg rotation - cryst. axis [0,0,-1]      

 cryst.   s( 6) = (     0         -1          0      )    f =(  0.0000000 )
                  (     1          1          0      )       ( -0.0000000 )
                  (     0          0          1      )       ( -0.5000000 )

 cart.    s( 6) = (  0.5000000  0.8660254  0.0000000 )    f =(  0.0000000 )
                  ( -0.8660254  0.5000000  0.0000000 )       ( -0.0000000 )
                  (  0.0000000  0.0000000  1.0000000 )       ( -0.8220859 )


      isym =  7     120 deg rotation - cryst. axis [0,0,1]       

 cryst.   s( 7) = (     0          1          0      )
                  (    -1         -1          0      )
                  (     0          0          1      )

 cart.    s( 7) = ( -0.5000000 -0.8660254  0.0000000 )
                  (  0.8660254 -0.5000000  0.0000000 )
                  (  0.0000000  0.0000000  1.0000000 )


      isym =  8     120 deg rotation - cryst. axis [0,0,-1]      

 cryst.   s( 8) = (    -1         -1          0      )
                  (     1          0          0      )
                  (     0          0          1      )

 cart.    s( 8) = ( -0.5000000  0.8660254  0.0000000 )
                  ( -0.8660254 -0.5000000  0.0000000 )
                  (  0.0000000  0.0000000  1.0000000 )


      isym =  9     180 deg rotation - cryst. axis [1,-1,0]      

 cryst.   s( 9) = (     0         -1          0      )    f =(  0.0000000 )
                  (    -1          0          0      )       (  0.0000000 )
                  (     0          0         -1      )       (  0.5000000 )

 cart.    s( 9) = (  0.5000000 -0.8660254  0.0000000 )    f =(  0.0000000 )
                  ( -0.8660254 -0.5000000  0.0000000 )       (  0.0000000 )
                  (  0.0000000  0.0000000 -1.0000000 )       (  0.8220859 )


      isym = 10     180 deg rotation - cryst. axis [2,1,0]       

 cryst.   s(10) = (     1          1          0      )    f =(  0.0000000 )
                  (     0         -1          0      )       ( -0.0000000 )
                  (     0          0         -1      )       (  0.5000000 )

 cart.    s(10) = (  0.5000000  0.8660254  0.0000000 )    f =(  0.0000000 )
                  (  0.8660254 -0.5000000  0.0000000 )       ( -0.0000000 )
                  (  0.0000000  0.0000000 -1.0000000 )       (  0.8220859 )


      isym = 11     180 deg rotation - cryst. axis [0,1,0]       

 cryst.   s(11) = (    -1         -1          0      )
                  (     0          1          0      )
                  (     0          0         -1      )

 cart.    s(11) = ( -0.5000000 -0.8660254  0.0000000 )
                  ( -0.8660254  0.5000000  0.0000000 )
                  (  0.0000000  0.0000000 -1.0000000 )


      isym = 12     180 deg rotation - cryst. axis [1,1,0]       

 cryst.   s(12) = (     0          1          0      )
                  (     1          0          0      )
                  (     0          0         -1      )

 cart.    s(12) = ( -0.5000000  0.8660254  0.0000000 )
                  (  0.8660254  0.5000000  0.0000000 )
                  (  0.0000000  0.0000000 -1.0000000 )


      isym = 13     inversion                                    

 cryst.   s(13) = (    -1          0          0      )
                  (     0         -1          0      )
                  (     0          0         -1      )

 cart.    s(13) = ( -1.0000000  0.0000000  0.0000000 )
                  (  0.0000000 -1.0000000  0.0000000 )
                  (  0.0000000  0.0000000 -1.0000000 )


      isym = 14     inv. 180 deg rotation - cart. axis [0,0,1]   

 cryst.   s(14) = (     1          0          0      )    f =(  0.0000000 )
                  (     0          1          0      )       (  0.0000000 )
                  (     0          0         -1      )       (  0.5000000 )

 cart.    s(14) = (  1.0000000  0.0000000  0.0000000 )    f =(  0.0000000 )
                  (  0.0000000  1.0000000  0.0000000 )       (  0.0000000 )
                  (  0.0000000  0.0000000 -1.0000000 )       (  0.8220859 )


      isym = 15     inv. 180 deg rotation - cart. axis [0,1,0]   

 cryst.   s(15) = (     1          0          0      )    f =(  0.0000000 )
                  (    -1         -1          0      )       (  0.0000000 )
                  (     0          0          1      )       ( -0.5000000 )

 cart.    s(15) = (  1.0000000  0.0000000  0.0000000 )    f =(  0.0000000 )
                  (  0.0000000 -1.0000000  0.0000000 )       (  0.0000000 )
                  (  0.0000000  0.0000000  1.0000000 )       ( -0.8220859 )


      isym = 16     inv. 180 deg rotation - cart. axis [1,0,0]   

 cryst.   s(16) = (    -1          0          0      )
                  (     1          1          0      )
                  (     0          0          1      )

 cart.    s(16) = ( -1.0000000  0.0000000  0.0000000 )
                  (  0.0000000  1.0000000  0.0000000 )
                  (  0.0000000  0.0000000  1.0000000 )


      isym = 17     inv.  60 deg rotation - cryst. axis [0,0,1]  

 cryst.   s(17) = (    -1         -1          0      )    f =(  0.0000000 )
                  (     1          0          0      )       (  0.0000000 )
                  (     0          0         -1      )       (  0.5000000 )

 cart.    s(17) = ( -0.5000000  0.8660254  0.0000000 )    f =(  0.0000000 )
                  ( -0.8660254 -0.5000000  0.0000000 )       (  0.0000000 )
                  (  0.0000000  0.0000000 -1.0000000 )       (  0.8220859 )


      isym = 18     inv.  60 deg rotation - cryst. axis [0,0,-1] 

 cryst.   s(18) = (     0          1          0      )    f =(  0.0000000 )
                  (    -1         -1          0      )       ( -0.0000000 )
                  (     0          0         -1      )       (  0.5000000 )

 cart.    s(18) = ( -0.5000000 -0.8660254  0.0000000 )    f =(  0.0000000 )
                  (  0.8660254 -0.5000000  0.0000000 )       ( -0.0000000 )
                  (  0.0000000  0.0000000 -1.0000000 )       (  0.8220859 )


      isym = 19     inv. 120 deg rotation - cryst. axis [0,0,1]  

 cryst.   s(19) = (     0         -1          0      )
                  (     1          1          0      )
                  (     0          0         -1      )

 cart.    s(19) = (  0.5000000  0.8660254  0.0000000 )
                  ( -0.8660254  0.5000000  0.0000000 )
                  (  0.0000000  0.0000000 -1.0000000 )


      isym = 20     inv. 120 deg rotation - cryst. axis [0,0,-1] 

 cryst.   s(20) = (     1          1          0      )
                  (    -1          0          0      )
                  (     0          0         -1      )

 cart.    s(20) = (  0.5000000 -0.8660254  0.0000000 )
                  (  0.8660254  0.5000000  0.0000000 )
                  (  0.0000000  0.0000000 -1.0000000 )


      isym = 21     inv. 180 deg rotation - cryst. axis [1,-1,0] 

 cryst.   s(21) = (     0          1          0      )    f =(  0.0000000 )
                  (     1          0          0      )       ( -0.0000000 )
                  (     0          0          1      )       ( -0.5000000 )

 cart.    s(21) = ( -0.5000000  0.8660254  0.0000000 )    f =(  0.0000000 )
                  (  0.8660254  0.5000000  0.0000000 )       ( -0.0000000 )
                  (  0.0000000  0.0000000  1.0000000 )       ( -0.8220859 )


      isym = 22     inv. 180 deg rotation - cryst. axis [2,1,0]  

 cryst.   s(22) = (    -1         -1          0      )    f =(  0.0000000 )
                  (     0          1          0      )       ( -0.0000000 )
                  (     0          0          1      )       ( -0.5000000 )

 cart.    s(22) = ( -0.5000000 -0.8660254  0.0000000 )    f =(  0.0000000 )
                  ( -0.8660254  0.5000000  0.0000000 )       ( -0.0000000 )
                  (  0.0000000  0.0000000  1.0000000 )       ( -0.8220859 )


      isym = 23     inv. 180 deg rotation - cryst. axis [0,1,0]  

 cryst.   s(23) = (     1          1          0      )
                  (     0         -1          0      )
                  (     0          0          1      )

 cart.    s(23) = (  0.5000000  0.8660254  0.0000000 )
                  (  0.8660254 -0.5000000  0.0000000 )
                  (  0.0000000  0.0000000  1.0000000 )


      isym = 24     inv. 180 deg rotation - cryst. axis [1,1,0]  

 cryst.   s(24) = (     0         -1          0      )
                  (    -1          0          0      )
                  (     0          0          1      )

 cart.    s(24) = (  0.5000000 -0.8660254  0.0000000 )
                  ( -0.8660254 -0.5000000  0.0000000 )
                  (  0.0000000  0.0000000  1.0000000 )


     point group D_6h(6/mmm)
     there are 12 classes
     the character table:

       E     2C6   2C3   C2    3C2'  3C2'' i     2S3   2S6   s_h   3s_d  3s_v 
A_1g   1.00  1.00  1.00  1.00  1.00  1.00  1.00  1.00  1.00  1.00  1.00  1.00
A_2g   1.00  1.00  1.00  1.00 -1.00 -1.00  1.00  1.00  1.00  1.00 -1.00 -1.00
B_1g   1.00 -1.00  1.00 -1.00  1.00 -1.00  1.00 -1.00  1.00 -1.00  1.00 -1.00
B_2g   1.00 -1.00  1.00 -1.00 -1.00  1.00  1.00 -1.00  1.00 -1.00 -1.00  1.00
E_1g   2.00  1.00 -1.00 -2.00  0.00  0.00  2.00  1.00 -1.00 -2.00  0.00  0.00
E_2g   2.00 -1.00 -1.00  2.00  0.00  0.00  2.00 -1.00 -1.00  2.00  0.00  0.00
A_1u   1.00  1.00  1.00  1.00  1.00  1.00 -1.00 -1.00 -1.00 -1.00 -1.00 -1.00
A_2u   1.00  1.00  1.00  1.00 -1.00 -1.00 -1.00 -1.00 -1.00 -1.00  1.00  1.00
B_1u   1.00 -1.00  1.00 -1.00  1.00 -1.00 -1.00  1.00 -1.00  1.00 -1.00  1.00
B_2u   1.00 -1.00  1.00 -1.00 -1.00  1.00 -1.00  1.00 -1.00  1.00  1.00 -1.00
E_1u   2.00  1.00 -1.00 -2.00  0.00  0.00 -2.00 -1.00  1.00  2.00  0.00  0.00
E_2u   2.00 -1.00 -1.00  2.00  0.00  0.00 -2.00  1.00  1.00 -2.00  0.00  0.00

     the symmetry operations in each class and the name of the first element:

     E        1
          identity                                               
     2C6      5    6
           60 deg rotation - cryst. axis [0,0,1]                 
     2C3      7    8
          120 deg rotation - cryst. axis [0,0,1]                 
     C2       2
          180 deg rotation - cart. axis [0,0,1]                  
     3C2'     4   12   11
          180 deg rotation - cart. axis [1,0,0]                  
     3C2''    3    9   10
          180 deg rotation - cart. axis [0,1,0]                  
     i       13
          inversion                                              
     2S3     17   18
          inv.  60 deg rotation - cryst. axis [0,0,1]            
     2S6     19   20
          inv. 120 deg rotation - cryst. axis [0,0,1]            
     s_h     14
          inv. 180 deg rotation - cart. axis [0,0,1]             
     3s_d    16   24   23
          inv. 180 deg rotation - cart. axis [1,0,0]             
     3s_v    15   21   22
          inv. 180 deg rotation - cart. axis [0,1,0]             

   Cartesian axes

     site n.     atom                  positions (alat units)
         1           Co  tau(   1) = (  -0.0000000   0.5773503   0.4110429  )
         2           Co  tau(   2) = (   0.5000000   0.2886751   1.2331288  )

   Crystallographic axes

     site n.     atom                  positions (cryst. coord.)
         1           Co  tau(   1) = (  0.3333333  0.6666667  0.2500000  )
         2           Co  tau(   2) = (  0.6666667  0.3333333  0.7500000  )

     number of k points=    76  Gaussian smearing, width (Ry)=  0.0010
                       cart. coord. in units 2pi/alat
        k(    1) = (   0.0000000   0.0000000   0.0000000), wk =   0.0011574
        k(    2) = (   0.0000000   0.0000000   0.1013682), wk =   0.0023148
        k(    3) = (   0.0000000   0.0000000   0.2027363), wk =   0.0023148
        k(    4) = (   0.0000000   0.0000000  -0.3041045), wk =   0.0011574
        k(    5) = (   0.0000000   0.0962250   0.0000000), wk =   0.0069444
        k(    6) = (   0.0000000   0.0962250   0.1013682), wk =   0.0138889
        k(    7) = (   0.0000000   0.0962250   0.2027363), wk =   0.0138889
        k(    8) = (   0.0000000   0.0962250  -0.3041045), wk =   0.0069444
        k(    9) = (   0.0000000   0.1924501   0.0000000), wk =   0.0069444
        k(   10) = (   0.0000000   0.1924501   0.1013682), wk =   0.0138889
        k(   11) = (   0.0000000   0.1924501   0.2027363), wk =   0.0138889
        k(   12) = (   0.0000000   0.1924501  -0.3041045), wk =   0.0069444
        k(   13) = (   0.0000000   0.2886751   0.0000000), wk =   0.0069444
        k(   14) = (   0.0000000   0.2886751   0.1013682), wk =   0.0138889
        k(   15) = (   0.0000000   0.2886751   0.2027363), wk =   0.0138889
        k(   16) = (   0.0000000   0.2886751  -0.3041045), wk =   0.0069444
        k(   17) = (   0.0000000   0.3849002   0.0000000), wk =   0.0069444
        k(   18) = (   0.0000000   0.3849002   0.1013682), wk =   0.0138889
        k(   19) = (   0.0000000   0.3849002   0.2027363), wk =   0.0138889
        k(   20) = (   0.0000000   0.3849002  -0.3041045), wk =   0.0069444
        k(   21) = (   0.0000000   0.4811252   0.0000000), wk =   0.0069444
        k(   22) = (   0.0000000   0.4811252   0.1013682), wk =   0.0138889
        k(   23) = (   0.0000000   0.4811252   0.2027363), wk =   0.0138889
        k(   24) = (   0.0000000   0.4811252  -0.3041045), wk =   0.0069444
        k(   25) = (   0.0000000  -0.5773503   0.0000000), wk =   0.0034722
        k(   26) = (   0.0000000  -0.5773503   0.1013682), wk =   0.0069444
        k(   27) = (   0.0000000  -0.5773503   0.2027363), wk =   0.0069444
        k(   28) = (   0.0000000  -0.5773503  -0.3041045), wk =   0.0034722
        k(   29) = (   0.0833333   0.1443376   0.0000000), wk =   0.0069444
        k(   30) = (   0.0833333   0.1443376   0.1013682), wk =   0.0138889
        k(   31) = (   0.0833333   0.1443376   0.2027363), wk =   0.0138889
        k(   32) = (   0.0833333   0.1443376  -0.3041045), wk =   0.0069444
        k(   33) = (   0.0833333   0.2405626   0.0000000), wk =   0.0138889
        k(   34) = (   0.0833333   0.2405626   0.1013682), wk =   0.0277778
        k(   35) = (   0.0833333   0.2405626   0.2027363), wk =   0.0277778
        k(   36) = (   0.0833333   0.2405626  -0.3041045), wk =   0.0138889
        k(   37) = (   0.0833333   0.3367877   0.0000000), wk =   0.0138889
        k(   38) = (   0.0833333   0.3367877   0.1013682), wk =   0.0277778
        k(   39) = (   0.0833333   0.3367877   0.2027363), wk =   0.0277778
        k(   40) = (   0.0833333   0.3367877  -0.3041045), wk =   0.0138889
        k(   41) = (   0.0833333   0.4330127   0.0000000), wk =   0.0138889
        k(   42) = (   0.0833333   0.4330127   0.1013682), wk =   0.0277778
        k(   43) = (   0.0833333   0.4330127   0.2027363), wk =   0.0277778
        k(   44) = (   0.0833333   0.4330127  -0.3041045), wk =   0.0138889
        k(   45) = (   0.0833333   0.5292377   0.0000000), wk =   0.0138889
        k(   46) = (   0.0833333   0.5292377   0.1013682), wk =   0.0277778
        k(   47) = (   0.0833333   0.5292377   0.2027363), wk =   0.0277778
        k(   48) = (   0.0833333   0.5292377  -0.3041045), wk =   0.0138889
        k(   49) = (   0.1666667   0.2886751   0.0000000), wk =   0.0069444
        k(   50) = (   0.1666667   0.2886751   0.1013682), wk =   0.0138889
        k(   51) = (   0.1666667   0.2886751   0.2027363), wk =   0.0138889
        k(   52) = (   0.1666667   0.2886751  -0.3041045), wk =   0.0069444
        k(   53) = (   0.1666667   0.3849002   0.0000000), wk =   0.0138889
        k(   54) = (   0.1666667   0.3849002   0.1013682), wk =   0.0277778
        k(   55) = (   0.1666667   0.3849002   0.2027363), wk =   0.0277778
        k(   56) = (   0.1666667   0.3849002  -0.3041045), wk =   0.0138889
        k(   57) = (   0.1666667   0.4811252   0.0000000), wk =   0.0138889
        k(   58) = (   0.1666667   0.4811252   0.1013682), wk =   0.0277778
        k(   59) = (   0.1666667   0.4811252   0.2027363), wk =   0.0277778
        k(   60) = (   0.1666667   0.4811252  -0.3041045), wk =   0.0138889
        k(   61) = (   0.1666667   0.5773503   0.0000000), wk =   0.0069444
        k(   62) = (   0.1666667   0.5773503   0.1013682), wk =   0.0138889
        k(   63) = (   0.1666667   0.5773503   0.2027363), wk =   0.0138889
        k(   64) = (   0.1666667   0.5773503  -0.3041045), wk =   0.0069444
        k(   65) = (   0.2500000   0.4330127   0.0000000), wk =   0.0069444
        k(   66) = (   0.2500000   0.4330127   0.1013682), wk =   0.0138889
        k(   67) = (   0.2500000   0.4330127   0.2027363), wk =   0.0138889
        k(   68) = (   0.2500000   0.4330127  -0.3041045), wk =   0.0069444
        k(   69) = (   0.2500000   0.5292377   0.0000000), wk =   0.0138889
        k(   70) = (   0.2500000   0.5292377   0.1013682), wk =   0.0277778
        k(   71) = (   0.2500000   0.5292377   0.2027363), wk =   0.0277778
        k(   72) = (   0.2500000   0.5292377  -0.3041045), wk =   0.0138889
        k(   73) = (   0.3333333   0.5773503   0.0000000), wk =   0.0023148
        k(   74) = (   0.3333333   0.5773503   0.1013682), wk =   0.0046296
        k(   75) = (   0.3333333   0.5773503   0.2027363), wk =   0.0046296
        k(   76) = (   0.3333333   0.5773503  -0.3041045), wk =   0.0023148

                       cryst. coord.
        k(    1) = (   0.0000000   0.0000000   0.0000000), wk =   0.0011574
        k(    2) = (   0.0000000   0.0000000   0.1666667), wk =   0.0023148
        k(    3) = (   0.0000000   0.0000000   0.3333333), wk =   0.0023148
        k(    4) = (   0.0000000   0.0000000  -0.5000000), wk =   0.0011574
        k(    5) = (   0.0000000   0.0833333   0.0000000), wk =   0.0069444
        k(    6) = (   0.0000000   0.0833333   0.1666667), wk =   0.0138889
        k(    7) = (   0.0000000   0.0833333   0.3333333), wk =   0.0138889
        k(    8) = (   0.0000000   0.0833333  -0.5000000), wk =   0.0069444
        k(    9) = (   0.0000000   0.1666667   0.0000000), wk =   0.0069444
        k(   10) = (   0.0000000   0.1666667   0.1666667), wk =   0.0138889
        k(   11) = (   0.0000000   0.1666667   0.3333333), wk =   0.0138889
        k(   12) = (   0.0000000   0.1666667  -0.5000000), wk =   0.0069444
        k(   13) = (   0.0000000   0.2500000   0.0000000), wk =   0.0069444
        k(   14) = (   0.0000000   0.2500000   0.1666667), wk =   0.0138889
        k(   15) = (   0.0000000   0.2500000   0.3333333), wk =   0.0138889
        k(   16) = (   0.0000000   0.2500000  -0.5000000), wk =   0.0069444
        k(   17) = (   0.0000000   0.3333333   0.0000000), wk =   0.0069444
        k(   18) = (   0.0000000   0.3333333   0.1666667), wk =   0.0138889
        k(   19) = (   0.0000000   0.3333333   0.3333333), wk =   0.0138889
        k(   20) = (   0.0000000   0.3333333  -0.5000000), wk =   0.0069444
        k(   21) = (   0.0000000   0.4166667   0.0000000), wk =   0.0069444
        k(   22) = (   0.0000000   0.4166667   0.1666667), wk =   0.0138889
        k(   23) = (   0.0000000   0.4166667   0.3333333), wk =   0.0138889
        k(   24) = (   0.0000000   0.4166667  -0.5000000), wk =   0.0069444
        k(   25) = (   0.0000000  -0.5000000   0.0000000), wk =   0.0034722
        k(   26) = (   0.0000000  -0.5000000   0.1666667), wk =   0.0069444
        k(   27) = (   0.0000000  -0.5000000   0.3333333), wk =   0.0069444
        k(   28) = (   0.0000000  -0.5000000  -0.5000000), wk =   0.0034722
        k(   29) = (   0.0833333   0.0833333   0.0000000), wk =   0.0069444
        k(   30) = (   0.0833333   0.0833333   0.1666667), wk =   0.0138889
        k(   31) = (   0.0833333   0.0833333   0.3333333), wk =   0.0138889
        k(   32) = (   0.0833333   0.0833333  -0.5000000), wk =   0.0069444
        k(   33) = (   0.0833333   0.1666667   0.0000000), wk =   0.0138889
        k(   34) = (   0.0833333   0.1666667   0.1666667), wk =   0.0277778
        k(   35) = (   0.0833333   0.1666667   0.3333333), wk =   0.0277778
        k(   36) = (   0.0833333   0.1666667  -0.5000000), wk =   0.0138889
        k(   37) = (   0.0833333   0.2500000   0.0000000), wk =   0.0138889
        k(   38) = (   0.0833333   0.2500000   0.1666667), wk =   0.0277778
        k(   39) = (   0.0833333   0.2500000   0.3333333), wk =   0.0277778
        k(   40) = (   0.0833333   0.2500000  -0.5000000), wk =   0.0138889
        k(   41) = (   0.0833333   0.3333333   0.0000000), wk =   0.0138889
        k(   42) = (   0.0833333   0.3333333   0.1666667), wk =   0.0277778
        k(   43) = (   0.0833333   0.3333333   0.3333333), wk =   0.0277778
        k(   44) = (   0.0833333   0.3333333  -0.5000000), wk =   0.0138889
        k(   45) = (   0.0833333   0.4166667   0.0000000), wk =   0.0138889
        k(   46) = (   0.0833333   0.4166667   0.1666667), wk =   0.0277778
        k(   47) = (   0.0833333   0.4166667   0.3333333), wk =   0.0277778
        k(   48) = (   0.0833333   0.4166667  -0.5000000), wk =   0.0138889
        k(   49) = (   0.1666667   0.1666667   0.0000000), wk =   0.0069444
        k(   50) = (   0.1666667   0.1666667   0.1666667), wk =   0.0138889
        k(   51) = (   0.1666667   0.1666667   0.3333333), wk =   0.0138889
        k(   52) = (   0.1666667   0.1666667  -0.5000000), wk =   0.0069444
        k(   53) = (   0.1666667   0.2500000   0.0000000), wk =   0.0138889
        k(   54) = (   0.1666667   0.2500000   0.1666667), wk =   0.0277778
        k(   55) = (   0.1666667   0.2500000   0.3333333), wk =   0.0277778
        k(   56) = (   0.1666667   0.2500000  -0.5000000), wk =   0.0138889
        k(   57) = (   0.1666667   0.3333333   0.0000000), wk =   0.0138889
        k(   58) = (   0.1666667   0.3333333   0.1666667), wk =   0.0277778
        k(   59) = (   0.1666667   0.3333333   0.3333333), wk =   0.0277778
        k(   60) = (   0.1666667   0.3333333  -0.5000000), wk =   0.0138889
        k(   61) = (   0.1666667   0.4166667   0.0000000), wk =   0.0069444
        k(   62) = (   0.1666667   0.4166667   0.1666667), wk =   0.0138889
        k(   63) = (   0.1666667   0.4166667   0.3333333), wk =   0.0138889
        k(   64) = (   0.1666667   0.4166667  -0.5000000), wk =   0.0069444
        k(   65) = (   0.2500000   0.2500000   0.0000000), wk =   0.0069444
        k(   66) = (   0.2500000   0.2500000   0.1666667), wk =   0.0138889
        k(   67) = (   0.2500000   0.2500000   0.3333333), wk =   0.0138889
        k(   68) = (   0.2500000   0.2500000  -0.5000000), wk =   0.0069444
        k(   69) = (   0.2500000   0.3333333   0.0000000), wk =   0.0138889
        k(   70) = (   0.2500000   0.3333333   0.1666667), wk =   0.0277778
        k(   71) = (   0.2500000   0.3333333   0.3333333), wk =   0.0277778
        k(   72) = (   0.2500000   0.3333333  -0.5000000), wk =   0.0138889
        k(   73) = (   0.3333333   0.3333333   0.0000000), wk =   0.0023148
        k(   74) = (   0.3333333   0.3333333   0.1666667), wk =   0.0046296
        k(   75) = (   0.3333333   0.3333333   0.3333333), wk =   0.0046296
        k(   76) = (   0.3333333   0.3333333  -0.5000000), wk =   0.0023148

     Dense  grid:    22623 G-vectors     FFT dimensions: (  32,  32,  54)

     Smooth grid:    21855 G-vectors     FFT dimensions: (  32,  32,  54)

     Dynamical RAM for                 wfc:       0.04 MB

     Dynamical RAM for     wfc (w. buffer):       6.67 MB

     Dynamical RAM for           str. fact:       0.02 MB

     Dynamical RAM for           local pot:       0.00 MB

     Dynamical RAM for          nlocal pot:       0.07 MB

     Dynamical RAM for                qrad:       1.70 MB

     Dynamical RAM for          rho,v,vnew:       0.25 MB

     Dynamical RAM for               rhoin:       0.08 MB

     Dynamical RAM for            rho*nmix:       0.56 MB

     Dynamical RAM for           G-vectors:       0.07 MB

     Dynamical RAM for          h,s,v(r/c):       0.08 MB

     Dynamical RAM for          <psi|beta>:       0.01 MB

     Dynamical RAM for                 psi:       0.09 MB

     Dynamical RAM for                hpsi:       0.09 MB

     Dynamical RAM for                spsi:       0.09 MB

     Dynamical RAM for      wfcinit/wfcrot:       0.10 MB

     Dynamical RAM for           addusdens:       3.30 MB

     Estimated static dynamical RAM per process >       9.04 MB

     Estimated max dynamical RAM per process >      12.89 MB

     Estimated total dynamical RAM >     257.86 MB

     Check: negative core charge=   -0.000045
     Generating pointlists ...
     new r_m :   0.4125 (alat units)  1.9059 (a.u.) for type    1

     The initial density is read from file :
     ./out/Co.save/charge-density


     starting charge      34.1395, renormalised to      34.0000

     negative rho (up, down):  1.278E-01 1.061E-01
     Starting wfcs from file
     Checking if some PAW data can be deallocated... 

     total cpu time spent up to now is        0.6 secs

     Self-consistent Calculation

     iteration #  1     ecut=   110.00 Ry     beta= 0.70
     Davidson diagonalization with overlap

---- Real-time Memory Report at c_bands before calling an iterative solver
            57 MiB given to the printing process from OS
             0 MiB allocation reported by mallinfo(arena+hblkhd)
        351694 MiB available memory on the node where the printing process lives
------------------
     c_bands:  1 eigenvalues not converged
     c_bands:  1 eigenvalues not converged
     ethr =  1.00E-05,  avg # of iterations = 10.8

     negative rho (up, down):  2.306E-03 1.345E-03

     total cpu time spent up to now is        5.5 secs

     total energy              =    -753.31237874 Ry
     estimated scf accuracy    <       0.06271848 Ry

     total magnetization       =     3.17 Bohr mag/cell
     absolute magnetization    =     3.42 Bohr mag/cell

     iteration #  2     ecut=   110.00 Ry     beta= 0.70
     Davidson diagonalization with overlap

---- Real-time Memory Report at c_bands before calling an iterative solver
            78 MiB given to the printing process from OS
             0 MiB allocation reported by mallinfo(arena+hblkhd)
        351505 MiB available memory on the node where the printing process lives
------------------
     ethr =  1.84E-04,  avg # of iterations =  2.0

     total cpu time spent up to now is        6.8 secs

     total energy              =    -753.44785427 Ry
     estimated scf accuracy    <       0.00547998 Ry

     total magnetization       =     3.14 Bohr mag/cell
     absolute magnetization    =     3.41 Bohr mag/cell

     iteration #  3     ecut=   110.00 Ry     beta= 0.70
     Davidson diagonalization with overlap

---- Real-time Memory Report at c_bands before calling an iterative solver
            80 MiB given to the printing process from OS
             0 MiB allocation reported by mallinfo(arena+hblkhd)
        351493 MiB available memory on the node where the printing process lives
------------------
     ethr =  1.61E-05,  avg # of iterations =  5.1

     total cpu time spent up to now is        9.3 secs

     total energy              =    -753.45275608 Ry
     estimated scf accuracy    <       0.00783332 Ry

     total magnetization       =     3.16 Bohr mag/cell
     absolute magnetization    =     3.44 Bohr mag/cell

     iteration #  4     ecut=   110.00 Ry     beta= 0.70
     Davidson diagonalization with overlap

---- Real-time Memory Report at c_bands before calling an iterative solver
            81 MiB given to the printing process from OS
             0 MiB allocation reported by mallinfo(arena+hblkhd)
        351481 MiB available memory on the node where the printing process lives
------------------
     ethr =  1.61E-05,  avg # of iterations =  1.0

     total cpu time spent up to now is       10.4 secs

     total energy              =    -753.45199447 Ry
     estimated scf accuracy    <       0.00580284 Ry

     total magnetization       =     3.15 Bohr mag/cell
     absolute magnetization    =     3.44 Bohr mag/cell

     iteration #  5     ecut=   110.00 Ry     beta= 0.70
     Davidson diagonalization with overlap

---- Real-time Memory Report at c_bands before calling an iterative solver
            83 MiB given to the printing process from OS
             0 MiB allocation reported by mallinfo(arena+hblkhd)
        351474 MiB available memory on the node where the printing process lives
------------------
     ethr =  1.61E-05,  avg # of iterations =  2.1

     total cpu time spent up to now is       11.8 secs

     total energy              =    -753.45284975 Ry
     estimated scf accuracy    <       0.00009566 Ry

     total magnetization       =     3.14 Bohr mag/cell
     absolute magnetization    =     3.44 Bohr mag/cell

     iteration #  6     ecut=   110.00 Ry     beta= 0.70
     Davidson diagonalization with overlap

---- Real-time Memory Report at c_bands before calling an iterative solver
            83 MiB given to the printing process from OS
             0 MiB allocation reported by mallinfo(arena+hblkhd)
        351467 MiB available memory on the node where the printing process lives
------------------
     ethr =  2.81E-07,  avg # of iterations =  7.8

     total cpu time spent up to now is       14.6 secs

     total energy              =    -753.45345901 Ry
     estimated scf accuracy    <       0.00058103 Ry

     total magnetization       =     3.14 Bohr mag/cell
     absolute magnetization    =     3.45 Bohr mag/cell

     iteration #  7     ecut=   110.00 Ry     beta= 0.70
     Davidson diagonalization with overlap

---- Real-time Memory Report at c_bands before calling an iterative solver
            85 MiB given to the printing process from OS
             0 MiB allocation reported by mallinfo(arena+hblkhd)
        351460 MiB available memory on the node where the printing process lives
------------------
     ethr =  2.81E-07,  avg # of iterations =  1.4

     total cpu time spent up to now is       15.8 secs

     total energy              =    -753.45325875 Ry
     estimated scf accuracy    <       0.00085165 Ry

     total magnetization       =     3.14 Bohr mag/cell
     absolute magnetization    =     3.45 Bohr mag/cell

     iteration #  8     ecut=   110.00 Ry     beta= 0.70
     Davidson diagonalization with overlap

---- Real-time Memory Report at c_bands before calling an iterative solver
            86 MiB given to the printing process from OS
             0 MiB allocation reported by mallinfo(arena+hblkhd)
        351455 MiB available memory on the node where the printing process lives
------------------
     ethr =  2.81E-07,  avg # of iterations =  3.4

     total cpu time spent up to now is       17.4 secs

     total energy              =    -753.45316903 Ry
     estimated scf accuracy    <       0.00019980 Ry

     total magnetization       =     3.14 Bohr mag/cell
     absolute magnetization    =     3.45 Bohr mag/cell

     iteration #  9     ecut=   110.00 Ry     beta= 0.70
     Davidson diagonalization with overlap

---- Real-time Memory Report at c_bands before calling an iterative solver
            86 MiB given to the printing process from OS
             0 MiB allocation reported by mallinfo(arena+hblkhd)
        351447 MiB available memory on the node where the printing process lives
------------------
     ethr =  2.81E-07,  avg # of iterations =  5.5

     total cpu time spent up to now is       19.8 secs

     total energy              =    -753.45334541 Ry
     estimated scf accuracy    <       0.00030636 Ry

     total magnetization       =     3.15 Bohr mag/cell
     absolute magnetization    =     3.46 Bohr mag/cell

     iteration # 10     ecut=   110.00 Ry     beta= 0.70
     Davidson diagonalization with overlap

---- Real-time Memory Report at c_bands before calling an iterative solver
            86 MiB given to the printing process from OS
             0 MiB allocation reported by mallinfo(arena+hblkhd)
        351443 MiB available memory on the node where the printing process lives
------------------
     ethr =  2.81E-07,  avg # of iterations =  1.1

     total cpu time spent up to now is       21.0 secs

     total energy              =    -753.45323639 Ry
     estimated scf accuracy    <       0.00034154 Ry

     total magnetization       =     3.15 Bohr mag/cell
     absolute magnetization    =     3.46 Bohr mag/cell

     iteration # 11     ecut=   110.00 Ry     beta= 0.70
     Davidson diagonalization with overlap

---- Real-time Memory Report at c_bands before calling an iterative solver
            86 MiB given to the printing process from OS
             0 MiB allocation reported by mallinfo(arena+hblkhd)
        351441 MiB available memory on the node where the printing process lives
------------------
     ethr =  2.81E-07,  avg # of iterations =  3.6

     total cpu time spent up to now is       22.6 secs

     total energy              =    -753.45326693 Ry
     estimated scf accuracy    <       0.00002626 Ry

     total magnetization       =     3.15 Bohr mag/cell
     absolute magnetization    =     3.45 Bohr mag/cell

     iteration # 12     ecut=   110.00 Ry     beta= 0.70
     Davidson diagonalization with overlap

---- Real-time Memory Report at c_bands before calling an iterative solver
            87 MiB given to the printing process from OS
             0 MiB allocation reported by mallinfo(arena+hblkhd)
        351438 MiB available memory on the node where the printing process lives
------------------
     ethr =  7.72E-08,  avg # of iterations =  3.8

     total cpu time spent up to now is       24.2 secs

     total energy              =    -753.45327127 Ry
     estimated scf accuracy    <       0.00000355 Ry

     total magnetization       =     3.15 Bohr mag/cell
     absolute magnetization    =     3.46 Bohr mag/cell

     iteration # 13     ecut=   110.00 Ry     beta= 0.70
     Davidson diagonalization with overlap

---- Real-time Memory Report at c_bands before calling an iterative solver
            88 MiB given to the printing process from OS
             0 MiB allocation reported by mallinfo(arena+hblkhd)
        351436 MiB available memory on the node where the printing process lives
------------------
     ethr =  1.04E-08,  avg # of iterations =  4.5

     total cpu time spent up to now is       26.1 secs

     total energy              =    -753.45327283 Ry
     estimated scf accuracy    <       0.00000121 Ry

     total magnetization       =     3.15 Bohr mag/cell
     absolute magnetization    =     3.46 Bohr mag/cell

     iteration # 14     ecut=   110.00 Ry     beta= 0.70
     Davidson diagonalization with overlap

---- Real-time Memory Report at c_bands before calling an iterative solver
            88 MiB given to the printing process from OS
             0 MiB allocation reported by mallinfo(arena+hblkhd)
        351434 MiB available memory on the node where the printing process lives
------------------
     ethr =  3.57E-09,  avg # of iterations =  3.9
 
     Magnetic moment per site  (integrated on atomic sphere of radius R)
     atom   1 (R=0.413)  charge= 15.5634  magn=  1.6459
     atom   2 (R=0.413)  charge= 15.5634  magn=  1.6459

     total cpu time spent up to now is       27.8 secs

     End of self-consistent calculation

 ------ SPIN UP ------------


          k = 0.0000 0.0000 0.0000 (  2767 PWs)   bands (ev):

   -76.4700 -76.4066 -39.8825 -39.5541 -39.5541 -39.5180 -39.5043 -39.5043
    10.3996  14.2523  16.8785  16.9953  16.9953  17.3130  17.3130  17.7556
    17.7556  18.8719  18.8719  19.1959  26.0934

     occupation numbers 
     1.0000   1.0000   1.0000   1.0000   1.0000   1.0000   1.0000   1.0000
     1.0000   1.0000   1.0000   1.0000   1.0000   1.0000   1.0000   1.0000
     1.0000   1.0000   1.0000   1.0000   0.0000

          k = 0.0000 0.0000 0.1014 (  2755 PWs)   bands (ev):

   -76.4658 -76.4109 -39.8584 -39.5508 -39.5508 -39.5428 -39.5076 -39.5076
    10.6792  14.1754  16.8068  16.9388  16.9388  17.2420  17.2420  17.9117
    17.9117  18.2809  18.8516  18.8516  27.5789

     occupation numbers 
     1.0000   1.0000   1.0000   1.0000   1.0000   1.0000   1.0000   1.0000
     1.0000   1.0000   1.0000   1.0000   1.0000   1.0000   1.0000   1.0000
     1.0000   1.0000   1.0000   1.0000   0.0000

          k = 0.0000 0.0000 0.2027 (  2744 PWs)   bands (ev):

   -76.4542 -76.4225 -39.7924 -39.6102 -39.5417 -39.5417 -39.5168 -39.5168
    11.4796  13.7177  16.6414  16.8899  16.8899  17.0024  17.0841  17.0841
    18.2309  18.2309  18.7559  18.7559  30.7641

     occupation numbers 
     1.0000   1.0000   1.0000   1.0000   1.0000   1.0000   1.0000   1.0000
     1.0000   1.0000   1.0000   1.0000   1.0000   1.0000   1.0000   1.0000
     1.0000   1.0000   1.0000   1.0000   0.0000

          k = 0.0000 0.0000-0.3041 (  2750 PWs)   bands (ev):

   -76.4384 -76.4384 -39.7016 -39.7016 -39.5292 -39.5292 -39.5292 -39.5292
    12.6430  12.6430  16.5618  16.5618  16.9423  16.9423  16.9423  16.9423
    18.5422  18.5422  18.5422  18.5422  34.5828

     occupation numbers 
     1.0000   1.0000   1.0000   1.0000   1.0000   1.0000   1.0000   1.0000
     1.0000   1.0000   1.0000   1.0000   1.0000   1.0000   1.0000   1.0000
     1.0000   1.0000   1.0000   1.0000   0.0000

          k = 0.0000 0.0962 0.0000 (  2747 PWs)   bands (ev):

   -76.4661 -76.4046 -39.8743 -39.5733 -39.5602 -39.5241 -39.5210 -39.5076
    10.6521  14.4103  16.7141  17.1187  17.1225  17.2561  17.4234  17.5537
    17.6795  17.9408  18.9024  20.4896  26.1301

     occupation numbers 
     1.0000   1.0000   1.0000   1.0000   1.0000   1.0000   1.0000   1.0000
     1.0000   1.0000   1.0000   1.0000   1.0000   1.0000   1.0000   1.0000
     1.0000   1.0000   1.0000   0.0000   0.0000

          k = 0.0000 0.0962 0.1014 (  2747 PWs)   bands (ev):

   -76.4620 -76.4088 -39.8516 -39.5695 -39.5567 -39.5520 -39.5204 -39.5111
    10.9271  14.3478  16.7136  16.9562  17.0474  17.0606  17.3467  17.5896
    17.8606  17.9131  18.8745  19.7810  27.6866

     occupation numbers 
     1.0000   1.0000   1.0000   1.0000   1.0000   1.0000   1.0000   1.0000
     1.0000   1.0000   1.0000   1.0000   1.0000   1.0000   1.0000   1.0000
     1.0000   1.0000   1.0000   0.0000   0.0000

          k = 0.0000 0.0962 0.2027 (  2748 PWs)   bands (ev):

   -76.4508 -76.4200 -39.7892 -39.6168 -39.5587 -39.5471 -39.5300 -39.5208
    11.7144  13.9169  16.5824  16.6302  16.7995  16.9905  17.1870  17.2061
    18.2010  18.2442  18.7612  19.0567  30.9211

     occupation numbers 
     1.0000   1.0000   1.0000   1.0000   1.0000   1.0000   1.0000   1.0000
     1.0000   1.0000   1.0000   1.0000   1.0000   1.0000   1.0000   1.0000
     1.0000   1.0000   1.0000   1.0000   0.0000

          k = 0.0000 0.0962-0.3041 (  2766 PWs)   bands (ev):

   -76.4354 -76.4354 -39.7034 -39.7034 -39.5443 -39.5443 -39.5339 -39.5339
    12.8591  12.8591  16.4289  16.4289  16.9342  16.9342  17.0435  17.0435
    18.5289  18.5289  18.6344  18.6344  34.7582

     occupation numbers 
     1.0000   1.0000   1.0000   1.0000   1.0000   1.0000   1.0000   1.0000
     1.0000   1.0000   1.0000   1.0000   1.0000   1.0000   1.0000   1.0000
     1.0000   1.0000   1.0000   1.0000   0.0000

          k = 0.0000 0.1925 0.0000 (  2741 PWs)   bands (ev):

   -76.4551 -76.3993 -39.8510 -39.6261 -39.5777 -39.5765 -39.5302 -39.5170
    11.3808  14.8011  16.4392  16.6974  17.0490  17.4441  17.4674  17.4922
    17.6343  17.7331  18.9660  22.1471  26.2616

     occupation numbers 
     1.0000   1.0000   1.0000   1.0000   1.0000   1.0000   1.0000   1.0000
     1.0000   1.0000   1.0000   1.0000   1.0000   1.0000   1.0000   1.0000
     1.0000   1.0000   1.0000   0.0000   0.0000

          k = 0.0000 0.1925 0.1014 (  2742 PWs)   bands (ev):

   -76.4514 -76.4030 -39.8327 -39.6204 -39.5948 -39.5725 -39.5374 -39.5210
    11.6388  14.7834  16.4124  16.4836  16.9276  17.2934  17.3224  17.6201
    17.8201  17.8935  18.9214  21.0476  28.0396

     occupation numbers 
     1.0000   1.0000   1.0000   1.0000   1.0000   1.0000   1.0000   1.0000
     1.0000   1.0000   1.0000   1.0000   1.0000   1.0000   1.0000   1.0000
     1.0000   1.0000   1.0000   0.0000   0.0000

          k = 0.0000 0.1925 0.2027 (  2734 PWs)   bands (ev):

   -76.4412 -76.4133 -39.7827 -39.6460 -39.6020 -39.5616 -39.5557 -39.5319
    12.3743  14.4310  16.0697  16.5510  16.6275  17.1417  17.2395  17.4715
    18.1647  18.3212  18.7718  19.7126  31.3917

     occupation numbers 
     1.0000   1.0000   1.0000   1.0000   1.0000   1.0000   1.0000   1.0000
     1.0000   1.0000   1.0000   1.0000   1.0000   1.0000   1.0000   1.0000
     1.0000   1.0000   1.0000   0.0000   0.0000

          k = 0.0000 0.1925-0.3041 (  2756 PWs)   bands (ev):

   -76.4273 -76.4273 -39.7142 -39.7142 -39.5792 -39.5792 -39.5468 -39.5468
    13.4388  13.4388  16.2003  16.2003  16.8557  16.8557  17.3140  17.3140
    18.5078  18.5078  18.8835  18.8835  35.2448

     occupation numbers 
     1.0000   1.0000   1.0000   1.0000   1.0000   1.0000   1.0000   1.0000
     1.0000   1.0000   1.0000   1.0000   1.0000   1.0000   1.0000   1.0000
     1.0000   1.0000   1.0000   1.0000   0.0000

          k = 0.0000 0.2887 0.0000 (  2749 PWs)   bands (ev):

   -76.4396 -76.3925 -39.8161 -39.6986 -39.6498 -39.5981 -39.5457 -39.5303
    12.4780  15.1099  15.9316  16.2745  16.9304  17.2673  17.4097  17.9115
    17.9742  18.1784  19.0238  23.9970  26.5222

     occupation numbers 
     1.0000   1.0000   1.0000   1.0000   1.0000   1.0000   1.0000   1.0000
     1.0000   1.0000   1.0000   1.0000   1.0000   1.0000   1.0000   1.0000
     1.0000   1.0000   1.0000   0.0000   0.0000

          k = 0.0000 0.2887 0.1014 (  2733 PWs)   bands (ev):

   -76.4365 -76.3957 -39.8088 -39.6871 -39.6627 -39.5936 -39.5519 -39.5349
    12.6903  15.1460  15.7855  16.3316  16.7796  17.3072  17.3955  18.0169
    18.0547  18.1372  18.9649  22.3617  28.6812

     occupation numbers 
     1.0000   1.0000   1.0000   1.0000   1.0000   1.0000   1.0000   1.0000
     1.0000   1.0000   1.0000   1.0000   1.0000   1.0000   1.0000   1.0000
     1.0000   1.0000   1.0000   0.0000   0.0000

          k = 0.0000 0.2887 0.2027 (  2722 PWs)   bands (ev):

   -76.4279 -76.4043 -39.7858 -39.7052 -39.6475 -39.5812 -39.5724 -39.5473
    13.2815  14.8788  15.7255  16.3476  16.6614  17.2240  17.4324  17.8713
    18.2912  18.4778  18.7965  20.4982  32.0693

     occupation numbers 
     1.0000   1.0000   1.0000   1.0000   1.0000   1.0000   1.0000   1.0000
     1.0000   1.0000   1.0000   1.0000   1.0000   1.0000   1.0000   1.0000
     1.0000   1.0000   1.0000   0.0000   0.0000

          k = 0.0000 0.2887-0.3041 (  2724 PWs)   bands (ev):

   -76.4161 -76.4161 -39.7484 -39.7484 -39.6071 -39.6071 -39.5643 -39.5643
    14.1026  14.1026  16.0345  16.0345  16.9204  16.9204  17.6357  17.6357
    18.5512  18.5512  19.2337  19.2337  34.5521

     occupation numbers 
     1.0000   1.0000   1.0000   1.0000   1.0000   1.0000   1.0000   1.0000
     1.0000   1.0000   1.0000   1.0000   1.0000   1.0000   1.0000   1.0000
     1.0000   1.0000   1.0000   1.0000   0.0000

          k = 0.0000 0.3849 0.0000 (  2734 PWs)   bands (ev):

   -76.4231 -76.3867 -39.7755 -39.7717 -39.7204 -39.6192 -39.5670 -39.5441
    13.6624  15.0277  15.3842  16.3939  17.0648  17.0650  17.1997  18.5169
    18.6607  18.6617  19.0614  26.0046  26.6105

     occupation numbers 
     1.0000   1.0000   1.0000   1.0000   1.0000   1.0000   1.0000   1.0000
     1.0000   1.0000   1.0000   1.0000   1.0000   1.0000   1.0000   1.0000
     1.0000   1.0000   1.0000   0.0000   0.0000

          k = 0.0000 0.3849 0.1014 (  2732 PWs)   bands (ev):

   -76.4207 -76.3892 -39.8066 -39.7422 -39.7165 -39.6142 -39.5694 -39.5491
    13.7540  15.0475  15.4303  16.2289  17.0024  17.1608  17.5618  18.5296
    18.5699  18.5976  19.0095  23.6252  28.9375

     occupation numbers 
     1.0000   1.0000   1.0000   1.0000   1.0000   1.0000   1.0000   1.0000
     1.0000   1.0000   1.0000   1.0000   1.0000   1.0000   1.0000   1.0000
     1.0000   1.0000   1.0000   0.0000   0.0000

          k = 0.0000 0.3849 0.2027 (  2731 PWs)   bands (ev):

   -76.4140 -76.3958 -39.8162 -39.7713 -39.6640 -39.6005 -39.5830 -39.5629
    14.0185  14.8520  15.5883  16.1121  17.1314  17.4313  17.8904  18.2357
    18.6406  18.7193  18.8952  21.3935  30.2025

     occupation numbers 
     1.0000   1.0000   1.0000   1.0000   1.0000   1.0000   1.0000   1.0000
     1.0000   1.0000   1.0000   1.0000   1.0000   1.0000   1.0000   1.0000
     1.0000   1.0000   1.0000   0.0000   0.0000

          k = 0.0000 0.3849-0.3041 (  2734 PWs)   bands (ev):

   -76.4049 -76.4049 -39.8020 -39.8020 -39.6154 -39.6154 -39.5817 -39.5817
    14.4190  14.4190  15.8843  15.8843  17.5659  17.5659  17.8216  17.8216
    18.7633  18.7633  19.7186  19.7186  31.3188

     occupation numbers 
     1.0000   1.0000   1.0000   1.0000   1.0000   1.0000   1.0000   1.0000
     1.0000   1.0000   1.0000   1.0000   1.0000   1.0000   1.0000   1.0000
     1.0000   1.0000   0.0000   0.0000   0.0000

          k = 0.0000 0.4811 0.0000 (  2732 PWs)   bands (ev):

   -76.4097 -76.3838 -39.8255 -39.7714 -39.7380 -39.6344 -39.5903 -39.5543
    14.4224  14.8245  15.0583  16.7716  16.9265  17.0500  17.2930  18.9258
    19.0587  19.0803  19.8490  24.8953  28.0712

     occupation numbers 
     1.0000   1.0000   1.0000   1.0000   1.0000   1.0000   1.0000   1.0000
     1.0000   1.0000   1.0000   1.0000   1.0000   1.0000   1.0000   1.0000
     1.0000   1.0000   0.0000   0.0000   0.0000

          k = 0.0000 0.4811 0.1014 (  2737 PWs)   bands (ev):

   -76.4079 -76.3856 -39.8410 -39.7880 -39.7078 -39.6291 -39.5882 -39.5597
    14.3008  14.8064  15.3936  16.1127  17.0432  17.3045  17.9399  18.8303
    18.9529  19.1163  19.6755  24.0180  27.5717

     occupation numbers 
     1.0000   1.0000   1.0000   1.0000   1.0000   1.0000   1.0000   1.0000
     1.0000   1.0000   1.0000   1.0000   1.0000   1.0000   1.0000   1.0000
     1.0000   1.0000   0.0000   0.0000   0.0000

          k = 0.0000 0.4811 0.2027 (  2736 PWs)   bands (ev):

   -76.4032 -76.3903 -39.8548 -39.8204 -39.6572 -39.6145 -39.5923 -39.5744
    14.2560  14.7312  15.5723  15.8928  17.3744  17.5878  18.3948  18.9880
    18.9923  19.0907  19.2842  22.2369  27.7788

     occupation numbers 
     1.0000   1.0000   1.0000   1.0000   1.0000   1.0000   1.0000   1.0000
     1.0000   1.0000   1.0000   1.0000   1.0000   1.0000   1.0000   1.0000
     1.0000   1.0000   1.0000   0.0000   0.0000

          k = 0.0000 0.4811-0.3041 (  2730 PWs)   bands (ev):

   -76.3968 -76.3968 -39.8472 -39.8472 -39.6151 -39.6151 -39.5945 -39.5945
    14.4386  14.4386  15.7478  15.7478  17.8602  17.8602  18.3395  18.3395
    19.0406  19.0406  20.5484  20.5484  28.5539

     occupation numbers 
     1.0000   1.0000   1.0000   1.0000   1.0000   1.0000   1.0000   1.0000
     1.0000   1.0000   1.0000   1.0000   1.0000   1.0000   1.0000   1.0000
     1.0000   1.0000   0.0000   0.0000   0.0000

          k = 0.0000-0.5774 0.0000 (  2714 PWs)   bands (ev):

   -76.4041 -76.3834 -39.8452 -39.7899 -39.7206 -39.6400 -39.6025 -39.5581
    14.6554  14.6978  14.9504  16.8776  16.9959  17.0393  17.3710  19.0740
    19.0858  19.2200  21.0444  23.1668  29.4099

     occupation numbers 
     1.0000   1.0000   1.0000   1.0000   1.0000   1.0000   1.0000   1.0000
     1.0000   1.0000   1.0000   1.0000   1.0000   1.0000   1.0000   1.0000
     1.0000   1.0000   0.0000   0.0000   0.0000

          k = 0.0000-0.5774 0.1014 (  2740 PWs)   bands (ev):

   -76.4027 -76.3848 -39.8578 -39.8059 -39.6963 -39.6345 -39.5981 -39.5636
    14.3948  14.7040  15.4244  16.0843  17.0002  17.3948  18.1586  18.8818
    19.1083  19.2122  20.8035  22.9600  28.6222

     occupation numbers 
     1.0000   1.0000   1.0000   1.0000   1.0000   1.0000   1.0000   1.0000
     1.0000   1.0000   1.0000   1.0000   1.0000   1.0000   1.0000   1.0000
     1.0000   1.0000   0.0000   0.0000   0.0000

          k = 0.0000-0.5774 0.2027 (  2746 PWs)   bands (ev):

   -76.3989 -76.3886 -39.8709 -39.8384 -39.6512 -39.6196 -39.5970 -39.5787
    14.2708  14.6830  15.6037  15.7895  17.3486  17.7372  18.4252  19.1199
    19.1316  19.1909  20.3892  22.2848  27.6378

     occupation numbers 
     1.0000   1.0000   1.0000   1.0000   1.0000   1.0000   1.0000   1.0000
     1.0000   1.0000   1.0000   1.0000   1.0000   1.0000   1.0000   1.0000
     1.0000   1.0000   0.0000   0.0000   0.0000

          k = 0.0000-0.5774-0.3041 (  2732 PWs)   bands (ev):

   -76.3938 -76.3938 -39.8644 -39.8644 -39.6143 -39.6143 -39.5991 -39.5991
    14.4187  14.4187  15.6954  15.6954  17.8608  17.8608  18.5975  18.5975
    19.1615  19.1615  21.2006  21.2006  27.2805

     occupation numbers 
     1.0000   1.0000   1.0000   1.0000   1.0000   1.0000   1.0000   1.0000
     1.0000   1.0000   1.0000   1.0000   1.0000   1.0000   1.0000   1.0000
     1.0000   1.0000   0.0000   0.0000   0.0000

          k = 0.0833 0.1443 0.0000 (  2737 PWs)   bands (ev):

   -76.4586 -76.4010 -39.8586 -39.6061 -39.5808 -39.5521 -39.5271 -39.5164
    11.1437  14.6913  16.4979  16.9595  17.1372  17.2764  17.3707  17.4478
    17.6646  17.7789  18.9374  21.6855  26.2163

     occupation numbers 
     1.0000   1.0000   1.0000   1.0000   1.0000   1.0000   1.0000   1.0000
     1.0000   1.0000   1.0000   1.0000   1.0000   1.0000   1.0000   1.0000
     1.0000   1.0000   1.0000   0.0000   0.0000

          k = 0.0833 0.1443 0.1014 (  2738 PWs)   bands (ev):

   -76.4548 -76.4048 -39.8387 -39.6009 -39.5857 -39.5643 -39.5318 -39.5202
    11.4082  14.6590  16.5294  16.6105  16.9803  17.2241  17.3049  17.5295
    17.8315  17.9038  18.9009  20.7040  27.9192

     occupation numbers 
     1.0000   1.0000   1.0000   1.0000   1.0000   1.0000   1.0000   1.0000
     1.0000   1.0000   1.0000   1.0000   1.0000   1.0000   1.0000   1.0000
     1.0000   1.0000   1.0000   0.0000   0.0000

          k = 0.0833 0.1443 0.2027 (  2743 PWs)   bands (ev):

   -76.4442 -76.4154 -39.7842 -39.6347 -39.5870 -39.5625 -39.5438 -39.5304
    12.1638  14.2807  16.1980  16.5962  16.6443  17.1282  17.1920  17.3850
    18.1972  18.2695  18.7704  19.5229  31.2378

     occupation numbers 
     1.0000   1.0000   1.0000   1.0000   1.0000   1.0000   1.0000   1.0000
     1.0000   1.0000   1.0000   1.0000   1.0000   1.0000   1.0000   1.0000
     1.0000   1.0000   1.0000   1.0000   0.0000

          k = 0.0833 0.1443-0.3041 (  2750 PWs)   bands (ev):

   -76.4298 -76.4298 -39.7094 -39.7094 -39.5689 -39.5689 -39.5433 -39.5433
    13.2609  13.2609  16.2601  16.2601  16.8594  16.8594  17.2421  17.2421
    18.5141  18.5141  18.8062  18.8062  35.0975

     occupation numbers 
     1.0000   1.0000   1.0000   1.0000   1.0000   1.0000   1.0000   1.0000
     1.0000   1.0000   1.0000   1.0000   1.0000   1.0000   1.0000   1.0000
     1.0000   1.0000   1.0000   1.0000   0.0000

          k = 0.0833 0.2406 0.0000 (  2727 PWs)   bands (ev):

   -76.4454 -76.3949 -39.8294 -39.6642 -39.6326 -39.5829 -39.5395 -39.5314
    12.0662  15.0925  16.2102  16.2143  16.9883  17.1969  17.5563  17.6236
    17.8309  18.1185  18.9784  23.3320  26.4347

     occupation numbers 
     1.0000   1.0000   1.0000   1.0000   1.0000   1.0000   1.0000   1.0000
     1.0000   1.0000   1.0000   1.0000   1.0000   1.0000   1.0000   1.0000
     1.0000   1.0000   1.0000   0.0000   0.0000

          k = 0.0833 0.2406 0.1014 (  2737 PWs)   bands (ev):

   -76.4420 -76.3983 -39.8166 -39.6565 -39.6416 -39.5858 -39.5448 -39.5352
    12.3015  15.1203  15.9922  16.2688  16.8781  17.1644  17.4356  17.7352
    18.0303  18.0958  18.9367  21.9119  28.4388

     occupation numbers 
     1.0000   1.0000   1.0000   1.0000   1.0000   1.0000   1.0000   1.0000
     1.0000   1.0000   1.0000   1.0000   1.0000   1.0000   1.0000   1.0000
     1.0000   1.0000   1.0000   0.0000   0.0000

          k = 0.0833 0.2406 0.2027 (  2735 PWs)   bands (ev):

   -76.4328 -76.4076 -39.7812 -39.6804 -39.6294 -39.5849 -39.5592 -39.5461
    12.9661  14.8222  15.8140  16.3860  16.5867  17.0317  17.4022  17.7332
    18.2856  18.3945  18.8062  20.2278  31.8601

     occupation numbers 
     1.0000   1.0000   1.0000   1.0000   1.0000   1.0000   1.0000   1.0000
     1.0000   1.0000   1.0000   1.0000   1.0000   1.0000   1.0000   1.0000
     1.0000   1.0000   1.0000   0.0000   0.0000

          k = 0.0833 0.2406-0.3041 (  2732 PWs)   bands (ev):

   -76.4202 -76.4202 -39.7313 -39.7313 -39.5997 -39.5997 -39.5596 -39.5596
    13.9141  13.9141  16.1009  16.1009  16.7405  16.7405  17.5504  17.5504
    18.5573  18.5573  19.1094  19.1094  35.5870

     occupation numbers 
     1.0000   1.0000   1.0000   1.0000   1.0000   1.0000   1.0000   1.0000
     1.0000   1.0000   1.0000   1.0000   1.0000   1.0000   1.0000   1.0000
     1.0000   1.0000   1.0000   1.0000   0.0000

          k = 0.0833 0.3368 0.0000 (  2735 PWs)   bands (ev):

   -76.4293 -76.3887 -39.7914 -39.7353 -39.6950 -39.6122 -39.5582 -39.5477
    13.2476  15.2145  15.6112  16.1509  16.9858  16.9896  17.3999  18.0076
    18.3775  18.7320  19.0117  25.2215  26.7765

     occupation numbers 
     1.0000   1.0000   1.0000   1.0000   1.0000   1.0000   1.0000   1.0000
     1.0000   1.0000   1.0000   1.0000   1.0000   1.0000   1.0000   1.0000
     1.0000   1.0000   1.0000   0.0000   0.0000

          k = 0.0833 0.3368 0.1014 (  2732 PWs)   bands (ev):

   -76.4266 -76.3914 -39.7985 -39.7196 -39.6979 -39.6111 -39.5625 -39.5504
    13.4075  15.2711  15.5218  16.2002  16.7820  17.2254  17.3587  18.0489
    18.4663  18.5846  19.0245  23.2048  29.2013

     occupation numbers 
     1.0000   1.0000   1.0000   1.0000   1.0000   1.0000   1.0000   1.0000
     1.0000   1.0000   1.0000   1.0000   1.0000   1.0000   1.0000   1.0000
     1.0000   1.0000   1.0000   0.0000   0.0000

          k = 0.0833 0.3368 0.2027 (  2732 PWs)   bands (ev):

   -76.4192 -76.3989 -39.7966 -39.7427 -39.6593 -39.6048 -39.5761 -39.5607
    13.8420  15.0011  15.6538  16.2563  16.6996  17.2099  17.4629  18.0816
    18.5232  18.6986  18.9900  21.0963  31.8276

     occupation numbers 
     1.0000   1.0000   1.0000   1.0000   1.0000   1.0000   1.0000   1.0000
     1.0000   1.0000   1.0000   1.0000   1.0000   1.0000   1.0000   1.0000
     1.0000   1.0000   1.0000   0.0000   0.0000

          k = 0.0833 0.3368-0.3041 (  2728 PWs)   bands (ev):

   -76.4090 -76.4090 -39.7756 -39.7756 -39.6176 -39.6176 -39.5769 -39.5769
    14.4283  14.4283  16.0037  16.0037  16.9364  16.9364  17.7544  17.7544
    18.7798  18.7798  19.5768  19.5768  33.0615

     occupation numbers 
     1.0000   1.0000   1.0000   1.0000   1.0000   1.0000   1.0000   1.0000
     1.0000   1.0000   1.0000   1.0000   1.0000   1.0000   1.0000   1.0000
     1.0000   1.0000   1.0000   1.0000   0.0000

          k = 0.0833 0.4330 0.0000 (  2735 PWs)   bands (ev):

   -76.4142 -76.3845 -39.7981 -39.7512 -39.7489 -39.6359 -39.5816 -39.5618
    14.2712  15.0195  15.2083  16.3968  16.8626  17.1698  17.1980  18.5798
    18.8425  19.0309  19.5779  26.2068  27.2676

     occupation numbers 
     1.0000   1.0000   1.0000   1.0000   1.0000   1.0000   1.0000   1.0000
     1.0000   1.0000   1.0000   1.0000   1.0000   1.0000   1.0000   1.0000
     1.0000   1.0000   0.9999   0.0000   0.0000

          k = 0.0833 0.4330 0.1014 (  2738 PWs)   bands (ev):

   -76.4122 -76.3865 -39.8185 -39.7672 -39.7131 -39.6320 -39.5828 -39.5640
    14.2515  15.0289  15.3811  16.1269  16.9376  17.2655  17.5178  18.5308
    18.8417  18.9043  19.5749  24.3114  28.1471

     occupation numbers 
     1.0000   1.0000   1.0000   1.0000   1.0000   1.0000   1.0000   1.0000
     1.0000   1.0000   1.0000   1.0000   1.0000   1.0000   1.0000   1.0000
     1.0000   1.0000   1.0000   0.0000   0.0000

          k = 0.0833 0.4330 0.2027 (  2737 PWs)   bands (ev):

   -76.4068 -76.3919 -39.8327 -39.7975 -39.6634 -39.6193 -39.5932 -39.5713
    14.3183  14.8923  15.5797  16.0625  17.0447  17.5045  17.9376  18.2760
    18.7135  19.0617  19.6260  22.1320  28.9096

     occupation numbers 
     1.0000   1.0000   1.0000   1.0000   1.0000   1.0000   1.0000   1.0000
     1.0000   1.0000   1.0000   1.0000   1.0000   1.0000   1.0000   1.0000
     1.0000   1.0000   0.1136   0.0000   0.0000

          k = 0.0833 0.4330-0.3041 (  2738 PWs)   bands (ev):

   -76.3993 -76.3993 -39.8241 -39.8241 -39.6259 -39.6259 -39.5886 -39.5886
    14.5581  14.5581  15.8678  15.8678  17.4998  17.4998  17.9254  17.9254
    19.0065  19.0065  20.4436  20.4436  29.9451

     occupation numbers 
     1.0000   1.0000   1.0000   1.0000   1.0000   1.0000   1.0000   1.0000
     1.0000   1.0000   1.0000   1.0000   1.0000   1.0000   1.0000   1.0000
     1.0000   1.0000   0.0000   0.0000   0.0000

          k = 0.0833 0.5292 0.0000 (  2734 PWs)   bands (ev):

   -76.4041 -76.3834 -39.8345 -39.7800 -39.7208 -39.6492 -39.6023 -39.5699
    14.7098  14.8504  15.0074  16.7860  16.8288  17.0026  17.3683  18.9995
    19.0385  19.0846  20.8936  23.9536  29.2173

     occupation numbers 
     1.0000   1.0000   1.0000   1.0000   1.0000   1.0000   1.0000   1.0000
     1.0000   1.0000   1.0000   1.0000   1.0000   1.0000   1.0000   1.0000
     1.0000   1.0000   0.0000   0.0000   0.0000

          k = 0.0833 0.5292 0.1014 (  2739 PWs)   bands (ev):

   -76.4028 -76.3848 -39.8472 -39.7964 -39.6983 -39.6419 -39.6004 -39.5724
    14.4834  14.8456  15.4670  16.0681  16.8736  17.4507  17.8071  18.8194
    19.0136  19.1154  20.8098  23.6467  28.0588

     occupation numbers 
     1.0000   1.0000   1.0000   1.0000   1.0000   1.0000   1.0000   1.0000
     1.0000   1.0000   1.0000   1.0000   1.0000   1.0000   1.0000   1.0000
     1.0000   1.0000   0.0000   0.0000   0.0000

          k = 0.0833 0.5292 0.2027 (  2731 PWs)   bands (ev):

   -76.3989 -76.3886 -39.8604 -39.8287 -39.6609 -39.6212 -39.6073 -39.5777
    14.3824  14.8191  15.6132  15.9078  17.0490  17.8176  18.2405  18.5284
    18.9725  19.1812  20.8126  22.7109  27.4140

     occupation numbers 
     1.0000   1.0000   1.0000   1.0000   1.0000   1.0000   1.0000   1.0000
     1.0000   1.0000   1.0000   1.0000   1.0000   1.0000   1.0000   1.0000
     1.0000   1.0000   0.0000   0.0000   0.0000

          k = 0.0833 0.5292-0.3041 (  2740 PWs)   bands (ev):

   -76.3938 -76.3938 -39.8543 -39.8543 -39.6310 -39.6310 -39.5928 -39.5928
    14.5401  14.5401  15.7750  15.7750  17.6187  17.6187  18.3765  18.3765
    19.0505  19.0505  21.5459  21.5459  27.7002

     occupation numbers 
     1.0000   1.0000   1.0000   1.0000   1.0000   1.0000   1.0000   1.0000
     1.0000   1.0000   1.0000   1.0000   1.0000   1.0000   1.0000   1.0000
     1.0000   1.0000   0.0000   0.0000   0.0000

          k = 0.1667 0.2887 0.0000 (  2730 PWs)   bands (ev):

   -76.4316 -76.3894 -39.7969 -39.7071 -39.6975 -39.6046 -39.5573 -39.5553
    13.1018  15.4199  15.7319  15.8983  16.9055  16.9921  17.5138  17.7351
    18.3626  18.7590  18.9664  24.9580  26.8195

     occupation numbers 
     1.0000   1.0000   1.0000   1.0000   1.0000   1.0000   1.0000   1.0000
     1.0000   1.0000   1.0000   1.0000   1.0000   1.0000   1.0000   1.0000
     1.0000   1.0000   1.0000   0.0000   0.0000

          k = 0.1667 0.2887 0.1014 (  2734 PWs)   bands (ev):

   -76.4287 -76.3923 -39.7971 -39.7051 -39.6890 -39.6111 -39.5615 -39.5550
    13.2852  15.5162  15.5803  15.9548  16.8496  17.0021  17.4003  17.8515
    18.4829  18.5732  19.0372  23.0675  29.1816

     occupation numbers 
     1.0000   1.0000   1.0000   1.0000   1.0000   1.0000   1.0000   1.0000
     1.0000   1.0000   1.0000   1.0000   1.0000   1.0000   1.0000   1.0000
     1.0000   1.0000   1.0000   0.0000   0.0000

          k = 0.1667 0.2887 0.2027 (  2736 PWs)   bands (ev):

   -76.4210 -76.4000 -39.7880 -39.7302 -39.6509 -39.6151 -39.5715 -39.5633
    13.7882  15.1289  15.7801  16.1155  16.6372  16.8633  17.4081  18.0142
    18.5248  18.6898  19.0693  21.0227  32.5825

     occupation numbers 
     1.0000   1.0000   1.0000   1.0000   1.0000   1.0000   1.0000   1.0000
     1.0000   1.0000   1.0000   1.0000   1.0000   1.0000   1.0000   1.0000
     1.0000   1.0000   1.0000   0.0000   0.0000

          k = 0.1667 0.2887-0.3041 (  2730 PWs)   bands (ev):

   -76.4105 -76.4105 -39.7632 -39.7632 -39.6199 -39.6199 -39.5765 -39.5765
    14.4701  14.4701  16.1094  16.1094  16.5756  16.5756  17.6977  17.6977
    18.8328  18.8328  19.5596  19.5596  34.7881

     occupation numbers 
     1.0000   1.0000   1.0000   1.0000   1.0000   1.0000   1.0000   1.0000
     1.0000   1.0000   1.0000   1.0000   1.0000   1.0000   1.0000   1.0000
     1.0000   1.0000   1.0000   1.0000   0.0000

          k = 0.1667 0.3849 0.0000 (  2741 PWs)   bands (ev):

   -76.4167 -76.3850 -39.7628 -39.7583 -39.7387 -39.6375 -39.5823 -39.5771
    14.2305  15.3625  15.3892  15.8833  16.7289  17.1425  17.2947  18.0801
    18.8363  18.9519  19.6231  26.8678  27.2425

     occupation numbers 
     1.0000   1.0000   1.0000   1.0000   1.0000   1.0000   1.0000   1.0000
     1.0000   1.0000   1.0000   1.0000   1.0000   1.0000   1.0000   1.0000
     1.0000   1.0000   0.1810   0.0000   0.0000

          k = 0.1667 0.3849 0.1014 (  2738 PWs)   bands (ev):

   -76.4145 -76.3871 -39.7937 -39.7568 -39.7049 -39.6425 -39.5886 -39.5702
    14.2998  15.2936  15.4869  15.9683  16.7639  17.1462  17.2473  18.1305
    18.7350  18.9277  19.7046  24.3926  29.5659

     occupation numbers 
     1.0000   1.0000   1.0000   1.0000   1.0000   1.0000   1.0000   1.0000
     1.0000   1.0000   1.0000   1.0000   1.0000   1.0000   1.0000   1.0000
     1.0000   1.0000   0.0000   0.0000   0.0000

          k = 0.1667 0.3849 0.2027 (  2736 PWs)   bands (ev):

   -76.4088 -76.3929 -39.8085 -39.7781 -39.6622 -39.6408 -39.5966 -39.5703
    14.4955  15.0829  15.7406  16.1974  16.6655  16.9862  17.3990  18.1317
    18.6375  19.0837  19.8789  22.1653  30.6439

     occupation numbers 
     1.0000   1.0000   1.0000   1.0000   1.0000   1.0000   1.0000   1.0000
     1.0000   1.0000   1.0000   1.0000   1.0000   1.0000   1.0000   1.0000
     1.0000   1.0000   0.0000   0.0000   0.0000

          k = 0.1667 0.3849-0.3041 (  2740 PWs)   bands (ev):

   -76.4008 -76.4008 -39.8009 -39.8009 -39.6413 -39.6413 -39.5861 -39.5861
    14.7809  14.7809  16.0897  16.0897  16.7573  16.7573  17.6988  17.6988
    19.0602  19.0602  20.5583  20.5583  31.7869

     occupation numbers 
     1.0000   1.0000   1.0000   1.0000   1.0000   1.0000   1.0000   1.0000
     1.0000   1.0000   1.0000   1.0000   1.0000   1.0000   1.0000   1.0000
     1.0000   1.0000   0.0000   0.0000   0.0000

          k = 0.1667 0.4811 0.0000 (  2730 PWs)   bands (ev):

   -76.4042 -76.3833 -39.8065 -39.7607 -39.7213 -39.6676 -39.6018 -39.5995
    14.9291  15.1366  15.1692  16.2198  16.6858  17.0498  17.3615  18.5404
    18.9411  19.0613  20.8527  25.6551  28.9330

     occupation numbers 
     1.0000   1.0000   1.0000   1.0000   1.0000   1.0000   1.0000   1.0000
     1.0000   1.0000   1.0000   1.0000   1.0000   1.0000   1.0000   1.0000
     1.0000   1.0000   0.0000   0.0000   0.0000

          k = 0.1667 0.4811 0.1014 (  2740 PWs)   bands (ev):

   -76.4028 -76.3847 -39.8191 -39.7789 -39.7009 -39.6604 -39.6120 -39.5860
    14.7450  15.2206  15.4353  16.0140  16.7340  17.1916  17.4595  18.5312
    18.7411  19.1251  20.9294  25.0083  27.9073

     occupation numbers 
     1.0000   1.0000   1.0000   1.0000   1.0000   1.0000   1.0000   1.0000
     1.0000   1.0000   1.0000   1.0000   1.0000   1.0000   1.0000   1.0000
     1.0000   1.0000   0.0000   0.0000   0.0000

          k = 0.1667 0.4811 0.2027 (  2733 PWs)   bands (ev):

   -76.3990 -76.3885 -39.8338 -39.8080 -39.6807 -39.6442 -39.6126 -39.5777
    14.6913  15.1372  15.6338  16.1859  16.6230  17.3310  17.7129  18.2150
    18.7376  19.2038  21.2246  23.4238  28.0510

     occupation numbers 
     1.0000   1.0000   1.0000   1.0000   1.0000   1.0000   1.0000   1.0000
     1.0000   1.0000   1.0000   1.0000   1.0000   1.0000   1.0000   1.0000
     1.0000   1.0000   0.0000   0.0000   0.0000

          k = 0.1667 0.4811-0.3041 (  2742 PWs)   bands (ev):

   -76.3938 -76.3938 -39.8302 -39.8302 -39.6601 -39.6601 -39.5882 -39.5882
    14.8473  14.8473  15.9776  15.9776  17.0433  17.0433  17.8878  17.8878
    19.0645  19.0645  22.0150  22.0150  28.9256

     occupation numbers 
     1.0000   1.0000   1.0000   1.0000   1.0000   1.0000   1.0000   1.0000
     1.0000   1.0000   1.0000   1.0000   1.0000   1.0000   1.0000   1.0000
     1.0000   1.0000   0.0000   0.0000   0.0000

          k = 0.1667 0.5774 0.0000 (  2732 PWs)   bands (ev):

   -76.3988 -76.3836 -39.8224 -39.7678 -39.7026 -39.6799 -39.6160 -39.6056
    15.0585  15.0613  15.1035  16.4568  16.7227  16.9078  17.4555  18.8548
    18.9369  19.0245  22.1342  23.8103  30.4066

     occupation numbers 
     1.0000   1.0000   1.0000   1.0000   1.0000   1.0000   1.0000   1.0000
     1.0000   1.0000   1.0000   1.0000   1.0000   1.0000   1.0000   1.0000
     1.0000   1.0000   0.0000   0.0000   0.0000

          k = 0.1667 0.5774 0.1014 (  2738 PWs)   bands (ev):

   -76.3977 -76.3846 -39.8325 -39.7848 -39.7029 -39.6550 -39.6256 -39.5933
    14.7600  15.1315  15.6064  15.9953  16.6516  17.3179  17.5603  18.7138
    18.8527  19.0761  22.2179  23.7390  29.1625

     occupation numbers 
     1.0000   1.0000   1.0000   1.0000   1.0000   1.0000   1.0000   1.0000
     1.0000   1.0000   1.0000   1.0000   1.0000   1.0000   1.0000   1.0000
     1.0000   1.0000   0.0000   0.0000   0.0000

          k = 0.1667 0.5774 0.2027 (  2732 PWs)   bands (ev):

   -76.3950 -76.3874 -39.8452 -39.8174 -39.6896 -39.6440 -39.6159 -39.5816
    14.6839  15.1456  15.6778  16.1352  16.5372  17.5379  17.8515  18.2864
    18.8746  19.1195  22.4939  23.4780  27.9339

     occupation numbers 
     1.0000   1.0000   1.0000   1.0000   1.0000   1.0000   1.0000   1.0000
     1.0000   1.0000   1.0000   1.0000   1.0000   1.0000   1.0000   1.0000
     1.0000   1.0000   0.0000   0.0000   0.0000

          k = 0.1667 0.5774-0.3041 (  2728 PWs)   bands (ev):

   -76.3912 -76.3912 -39.8411 -39.8411 -39.6674 -39.6674 -39.5882 -39.5882
    14.8487  14.8487  15.9350  15.9350  17.0849  17.0849  18.1044  18.1044
    18.9983  18.9983  22.9892  22.9892  27.4767

     occupation numbers 
     1.0000   1.0000   1.0000   1.0000   1.0000   1.0000   1.0000   1.0000
     1.0000   1.0000   1.0000   1.0000   1.0000   1.0000   1.0000   1.0000
     1.0000   1.0000   0.0000   0.0000   0.0000

          k = 0.2500 0.4330 0.0000 (  2728 PWs)   bands (ev):

   -76.4042 -76.3833 -39.7824 -39.7594 -39.7215 -39.6714 -39.6215 -39.6016
    15.0873  15.2120  15.6156  15.6305  16.5997  17.0792  17.3679  18.2760
    18.8906  19.0629  20.8737  27.4014  28.2982

     occupation numbers 
     1.0000   1.0000   1.0000   1.0000   1.0000   1.0000   1.0000   1.0000
     1.0000   1.0000   1.0000   1.0000   1.0000   1.0000   1.0000   1.0000
     1.0000   1.0000   0.0000   0.0000   0.0000

          k = 0.2500 0.4330 0.1014 (  2733 PWs)   bands (ev):

   -76.4028 -76.3847 -39.7884 -39.7864 -39.6873 -39.6829 -39.6236 -39.5891
    15.0818  15.1612  15.6420  15.7993  16.7520  16.9182  17.3763  18.3276
    18.6800  19.1317  20.9946  25.7584  28.5788

     occupation numbers 
     1.0000   1.0000   1.0000   1.0000   1.0000   1.0000   1.0000   1.0000
     1.0000   1.0000   1.0000   1.0000   1.0000   1.0000   1.0000   1.0000
     1.0000   1.0000   0.0000   0.0000   0.0000

          k = 0.2500 0.4330 0.2027 (  2740 PWs)   bands (ev):

   -76.3990 -76.3885 -39.8126 -39.8007 -39.6883 -39.6653 -39.6127 -39.5779
    15.0575  15.1021  15.8166  16.1906  16.5701  16.8575  17.4343  18.1148
    18.7027  19.2126  21.3598  23.7122  29.3536

     occupation numbers 
     1.0000   1.0000   1.0000   1.0000   1.0000   1.0000   1.0000   1.0000
     1.0000   1.0000   1.0000   1.0000   1.0000   1.0000   1.0000   1.0000
     1.0000   1.0000   0.0000   0.0000   0.0000

          k = 0.2500 0.4330-0.3041 (  2746 PWs)   bands (ev):

   -76.3938 -76.3938 -39.8150 -39.8150 -39.6768 -39.6768 -39.5869 -39.5869
    15.0628  15.0628  16.1498  16.1498  16.6364  16.6364  17.6670  17.6670
    19.0860  19.0860  22.1908  22.1908  30.3709

     occupation numbers 
     1.0000   1.0000   1.0000   1.0000   1.0000   1.0000   1.0000   1.0000
     1.0000   1.0000   1.0000   1.0000   1.0000   1.0000   1.0000   1.0000
     1.0000   1.0000   0.0000   0.0000   0.0000

          k = 0.2500 0.5292 0.0000 (  2749 PWs)   bands (ev):

   -76.3951 -76.3843 -39.7966 -39.7500 -39.7067 -39.6889 -39.6469 -39.6272
    15.1459  15.3756  15.4593  15.9849  16.6169  16.8517  17.5473  18.5845
    18.8548  18.9818  22.5818  25.2415  27.6273

     occupation numbers 
     1.0000   1.0000   1.0000   1.0000   1.0000   1.0000   1.0000   1.0000
     1.0000   1.0000   1.0000   1.0000   1.0000   1.0000   1.0000   1.0000
     1.0000   1.0000   0.0000   0.0000   0.0000

          k = 0.2500 0.5292 0.1014 (  2742 PWs)   bands (ev):

   -76.3944 -76.3850 -39.8018 -39.7710 -39.7231 -39.6667 -39.6459 -39.6076
    15.0898  15.4943  15.5868  15.8731  16.6372  16.8544  17.5660  18.5925
    18.6566  19.0321  22.7658  25.2334  27.6278

     occupation numbers 
     1.0000   1.0000   1.0000   1.0000   1.0000   1.0000   1.0000   1.0000
     1.0000   1.0000   1.0000   1.0000   1.0000   1.0000   1.0000   1.0000
     1.0000   1.0000   0.0000   0.0000   0.0000

          k = 0.2500 0.5292 0.2027 (  2731 PWs)   bands (ev):

   -76.3924 -76.3870 -39.8156 -39.7999 -39.7233 -39.6811 -39.6094 -39.5863
    15.1032  15.4758  15.7421  16.0763  16.4745  16.8755  17.6332  18.1330
    18.7859  19.0836  23.2516  24.8660  27.5439

     occupation numbers 
     1.0000   1.0000   1.0000   1.0000   1.0000   1.0000   1.0000   1.0000
     1.0000   1.0000   1.0000   1.0000   1.0000   1.0000   1.0000   1.0000
     1.0000   1.0000   0.0000   0.0000   0.0000

          k = 0.2500 0.5292-0.3041 (  2712 PWs)   bands (ev):

   -76.3897 -76.3897 -39.8176 -39.8176 -39.7043 -39.7043 -39.5858 -39.5858
    15.2440  15.2440  16.0474  16.0474  16.6379  16.6379  17.7784  17.7784
    18.9925  18.9925  24.0066  24.0066  28.0980

     occupation numbers 
     1.0000   1.0000   1.0000   1.0000   1.0000   1.0000   1.0000   1.0000
     1.0000   1.0000   1.0000   1.0000   1.0000   1.0000   1.0000   1.0000
     1.0000   1.0000   0.0000   0.0000   0.0000

          k = 0.3333 0.5774 0.0000 (  2772 PWs)   bands (ev):

   -76.3882 -76.3882 -39.7833 -39.7318 -39.7318 -39.6775 -39.6567 -39.6567
    15.1642  15.5851  15.5851  15.8411  16.6787  16.6787  17.6507  18.7469
    18.7469  18.8204  24.3431  25.2629  25.2629

     occupation numbers 
     1.0000   1.0000   1.0000   1.0000   1.0000   1.0000   1.0000   1.0000
     1.0000   1.0000   1.0000   1.0000   1.0000   1.0000   1.0000   1.0000
     1.0000   1.0000   0.0000   0.0000   0.0000

          k = 0.3333 0.5774 0.1014 (  2742 PWs)   bands (ev):

   -76.3882 -76.3882 -39.7762 -39.7577 -39.7577 -39.6846 -39.6306 -39.6306
    15.2611  15.6020  15.6020  15.8587  16.6507  16.6507  17.6258  18.5828
    18.7981  18.7981  24.7444  25.3226  25.3226

     occupation numbers 
     1.0000   1.0000   1.0000   1.0000   1.0000   1.0000   1.0000   1.0000
     1.0000   1.0000   1.0000   1.0000   1.0000   1.0000   1.0000   1.0000
     1.0000   1.0000   0.0000   0.0000   0.0000

          k = 0.3333 0.5774 0.2027 (  2736 PWs)   bands (ev):

   -76.3882 -76.3882 -39.7904 -39.7904 -39.7569 -39.7041 -39.5976 -39.5976
    15.5075  15.6337  15.6337  15.8687  16.6017  16.6017  17.5990  18.0922
    18.8967  18.8967  25.4689  25.4689  25.7736

     occupation numbers 
     1.0000   1.0000   1.0000   1.0000   1.0000   1.0000   1.0000   1.0000
     1.0000   1.0000   1.0000   1.0000   1.0000   1.0000   1.0000   1.0000
     1.0000   1.0000   0.0000   0.0000   0.0000

          k = 0.3333 0.5774-0.3041 (  2706 PWs)   bands (ev):

   -76.3882 -76.3882 -39.8031 -39.8031 -39.7305 -39.7305 -39.5847 -39.5847
    15.6484  15.6484  15.7615  15.7615  16.5807  16.5807  17.7137  17.7137
    18.9443  18.9443  25.5615  25.5615  27.1888

     occupation numbers 
     1.0000   1.0000   1.0000   1.0000   1.0000   1.0000   1.0000   1.0000
     1.0000   1.0000   1.0000   1.0000   1.0000   1.0000   1.0000   1.0000
     1.0000   1.0000   0.0000   0.0000   0.0000

 ------ SPIN DOWN ----------


          k = 0.0000 0.0000 0.0000 (  2767 PWs)   bands (ev):

   -74.4490 -74.3810 -37.9211 -37.5897 -37.5897 -37.5363 -37.5363 -37.5250
    10.3992  15.1569  18.4741  18.6008  18.6008  18.9708  18.9708  19.1443
    19.5211  19.5211  20.7549  20.7549  27.1299

     occupation numbers 
     1.0000   1.0000   1.0000   1.0000   1.0000   1.0000   1.0000   1.0000
     1.0000   1.0000   1.0000   1.0000   1.0000   1.0000   1.0000   1.0000
     1.0000   1.0000   0.0000   0.0000   0.0000

          k = 0.0000 0.0000 0.1014 (  2755 PWs)   bands (ev):

   -74.4445 -74.3856 -37.8950 -37.5862 -37.5862 -37.5520 -37.5399 -37.5399
    10.6803  14.9258  18.3808  18.5438  18.5438  18.5749  18.8908  18.8908
    19.6904  19.6904  20.7343  20.7343  28.4239

     occupation numbers 
     1.0000   1.0000   1.0000   1.0000   1.0000   1.0000   1.0000   1.0000
     1.0000   1.0000   1.0000   1.0000   1.0000   1.0000   1.0000   1.0000
     0.0000   0.0000   0.0000   0.0000   0.0000

          k = 0.0000 0.0000 0.2027 (  2744 PWs)   bands (ev):

   -74.4321 -74.3981 -37.8233 -37.6253 -37.5764 -37.5764 -37.5497 -37.5497
    11.4916  14.0497  17.9401  18.1452  18.4946  18.4946  18.7135  18.7135
    20.0439  20.0440  20.6303  20.6303  31.3783

     occupation numbers 
     1.0000   1.0000   1.0000   1.0000   1.0000   1.0000   1.0000   1.0000
[...]
    20.9323  20.9486  22.1985  24.8380  29.7220

     occupation numbers 
     1.0000   1.0000   1.0000   1.0000   1.0000   1.0000   1.0000   1.0000
     1.0000   1.0000   1.0000   1.0000   1.0000   1.0000   1.0000   0.0000
     0.0000   0.0000   0.0000   0.0000   0.0000

          k = 0.0833 0.5292 0.1014 (  2739 PWs)   bands (ev):

   -74.3769 -74.3576 -37.9058 -37.8512 -37.7242 -37.6830 -37.6217 -37.6032
    15.3976  15.9782  16.5690  17.1712  18.4557  18.9581  18.9894  20.6829
    20.8508  20.9717  22.0523  24.4627  28.7679

     occupation numbers 
     1.0000   1.0000   1.0000   1.0000   1.0000   1.0000   1.0000   1.0000
     1.0000   1.0000   1.0000   1.0000   1.0000   1.0000   1.0000   0.0000
     0.0000   0.0000   0.0000   0.0000   0.0000

          k = 0.0833 0.5292 0.2027 (  2731 PWs)   bands (ev):

   -74.3728 -74.3617 -37.9180 -37.8843 -37.6918 -37.6541 -37.6379 -37.6025
    15.3507  15.8287  16.8768  17.1870  18.5047  19.3113  19.5148  20.2086
    20.8055  21.0557  21.8236  23.4656  28.2892

     occupation numbers 
     1.0000   1.0000   1.0000   1.0000   1.0000   1.0000   1.0000   1.0000
     1.0000   1.0000   1.0000   1.0000   1.0000   1.0000   1.0000   0.0000
     0.0000   0.0000   0.0000   0.0000   0.0000

          k = 0.0833 0.5292-0.3041 (  2740 PWs)   bands (ev):

   -74.3672 -74.3672 -37.9111 -37.9111 -37.6641 -37.6641 -37.6191 -37.6191
    15.5241  15.5241  17.1241  17.1241  19.0404  19.0404  19.8524  19.8524
    20.8986  20.8986  22.3694  22.3694  28.5575

     occupation numbers 
     1.0000   1.0000   1.0000   1.0000   1.0000   1.0000   1.0000   1.0000
     1.0000   1.0000   1.0000   1.0000   1.0000   1.0000   0.0000   0.0000
     0.0000   0.0000   0.0000   0.0000   0.0000

          k = 0.1667 0.2887 0.0000 (  2730 PWs)   bands (ev):

   -74.4078 -74.3626 -37.8275 -37.7556 -37.7460 -37.6444 -37.5934 -37.5651
    13.1724  16.5576  16.8331  17.2384  18.4966  18.5086  19.1253  19.4290
    20.0981  20.4752  20.8659  25.7394  27.5654

     occupation numbers 
     1.0000   1.0000   1.0000   1.0000   1.0000   1.0000   1.0000   1.0000
     1.0000   1.0000   1.0000   1.0000   1.0000   1.0000   1.0000   1.0000
     0.0000   0.0000   0.0000   0.0000   0.0000

          k = 0.1667 0.2887 0.1014 (  2734 PWs)   bands (ev):

   -74.4048 -74.3657 -37.8326 -37.7529 -37.7313 -37.6490 -37.5979 -37.5686
    13.3824  16.4605  16.7644  17.3072  18.3930  18.5211  19.0200  19.5540
    20.2300  20.3392  20.8789  24.0691  29.7743

     occupation numbers 
     1.0000   1.0000   1.0000   1.0000   1.0000   1.0000   1.0000   1.0000
     1.0000   1.0000   1.0000   1.0000   1.0000   1.0000   1.0000   1.0000
     0.0000   0.0000   0.0000   0.0000   0.0000

          k = 0.1667 0.2887 0.2027 (  2736 PWs)   bands (ev):

   -74.3965 -74.3739 -37.8288 -37.7760 -37.6844 -37.6509 -37.6084 -37.5842
    13.9767  15.7679  17.0361  17.4835  18.0968  18.3590  19.0747  19.6941
    20.3167  20.4638  20.8348  22.3109  33.0598

     occupation numbers 
     1.0000   1.0000   1.0000   1.0000   1.0000   1.0000   1.0000   1.0000
     1.0000   1.0000   1.0000   1.0000   1.0000   1.0000   1.0000   0.0000
     0.0000   0.0000   0.0000   0.0000   0.0000

          k = 0.1667 0.2887-0.3041 (  2730 PWs)   bands (ev):

   -74.3852 -74.3852 -37.8069 -37.8069 -37.6509 -37.6509 -37.6087 -37.6087
    14.8410  14.8410  17.4225  17.4225  18.0414  18.0414  19.3917  19.3917
    20.6588  20.6588  21.0812  21.0812  35.1998

     occupation numbers 
     1.0000   1.0000   1.0000   1.0000   1.0000   1.0000   1.0000   1.0000
     1.0000   1.0000   1.0000   1.0000   1.0000   1.0000   1.0000   1.0000
     0.0000   0.0000   0.0000   0.0000   0.0000

          k = 0.1667 0.3849 0.0000 (  2741 PWs)   bands (ev):

   -74.3918 -74.3579 -37.8166 -37.7902 -37.7854 -37.6800 -37.6204 -37.5886
    14.4545  16.5262  16.6129  17.0666  18.2859  18.6393  18.8633  19.8056
    20.6360  20.8494  21.2639  27.5614  27.8491

     occupation numbers 
     1.0000   1.0000   1.0000   1.0000   1.0000   1.0000   1.0000   1.0000
     1.0000   1.0000   1.0000   1.0000   1.0000   1.0000   1.0000   0.0000
     0.0000   0.0000   0.0000   0.0000   0.0000

          k = 0.1667 0.3849 0.1014 (  2738 PWs)   bands (ev):

   -74.3895 -74.3602 -37.8403 -37.8077 -37.7386 -37.6832 -37.6259 -37.5856
    14.5936  16.3891  16.7165  17.1733  18.2425  18.6255  18.8158  19.8653
    20.5820  20.7425  21.3642  25.2013  30.1632

     occupation numbers 
     1.0000   1.0000   1.0000   1.0000   1.0000   1.0000   1.0000   1.0000
     1.0000   1.0000   1.0000   1.0000   1.0000   1.0000   1.0000   0.0000
     0.0000   0.0000   0.0000   0.0000   0.0000

          k = 0.1667 0.3849 0.2027 (  2736 PWs)   bands (ev):

   -74.3833 -74.3664 -37.8572 -37.8290 -37.6952 -37.6767 -37.6330 -37.5901
    14.9748  16.0173  17.0031  17.3918  18.0844  18.3551  19.0128  19.8700
    20.4275  20.9339  21.4482  23.1714  31.2285

     occupation numbers 
     1.0000   1.0000   1.0000   1.0000   1.0000   1.0000   1.0000   1.0000
     1.0000   1.0000   1.0000   1.0000   1.0000   1.0000   1.0000   0.0000
     0.0000   0.0000   0.0000   0.0000   0.0000

          k = 0.1667 0.3849-0.3041 (  2740 PWs)   bands (ev):

   -74.3749 -74.3749 -37.8509 -37.8509 -37.6771 -37.6771 -37.6125 -37.6125
    15.4975  15.4975  17.3567  17.3567  18.0706  18.0706  19.3994  19.3994
    20.9214  20.9214  21.8100  21.8100  32.3314

     occupation numbers 
     1.0000   1.0000   1.0000   1.0000   1.0000   1.0000   1.0000   1.0000
     1.0000   1.0000   1.0000   1.0000   1.0000   1.0000   1.0000   1.0000
     0.0000   0.0000   0.0000   0.0000   0.0000

          k = 0.1667 0.4811 0.0000 (  2730 PWs)   bands (ev):

   -74.3785 -74.3560 -37.8641 -37.8139 -37.7451 -37.7126 -37.6389 -37.6154
    15.5501  16.3490  16.3660  17.1592  18.2212  18.5680  18.8924  20.3073
    20.8367  20.9020  22.2448  26.3735  29.5202

     occupation numbers 
     1.0000   1.0000   1.0000   1.0000   1.0000   1.0000   1.0000   1.0000
     1.0000   1.0000   1.0000   1.0000   1.0000   1.0000   1.0000   0.0000
     0.0000   0.0000   0.0000   0.0000   0.0000

          k = 0.1667 0.4811 0.1014 (  2740 PWs)   bands (ev):

   -74.3770 -74.3575 -37.8747 -37.8314 -37.7333 -37.6975 -37.6480 -37.6050
    15.5400  16.3111  16.5506  17.1719  18.2325  18.5409  18.9897  20.3078
    20.5955  20.9803  22.2925  25.6814  28.6504

     occupation numbers 
     1.0000   1.0000   1.0000   1.0000   1.0000   1.0000   1.0000   1.0000
     1.0000   1.0000   1.0000   1.0000   1.0000   1.0000   1.0000   0.0000
     0.0000   0.0000   0.0000   0.0000   0.0000

          k = 0.1667 0.4811 0.2027 (  2733 PWs)   bands (ev):

   -74.3728 -74.3616 -37.8882 -37.8612 -37.7199 -37.6794 -37.6429 -37.5979
    15.6079  16.1149  16.8889  17.4254  18.0507  18.5335  19.2429  19.9849
    20.5461  21.0825  22.4409  24.1791  28.8299

     occupation numbers 
     1.0000   1.0000   1.0000   1.0000   1.0000   1.0000   1.0000   1.0000
     1.0000   1.0000   1.0000   1.0000   1.0000   1.0000   1.0000   0.0000
     0.0000   0.0000   0.0000   0.0000   0.0000

          k = 0.1667 0.4811-0.3041 (  2742 PWs)   bands (ev):

   -74.3672 -74.3672 -37.8842 -37.8842 -37.6993 -37.6993 -37.6113 -37.6113
    15.8191  15.8191  17.3016  17.3016  18.2636  18.2636  19.5361  19.5361
    20.9146  20.9146  22.9775  22.9775  29.6403

     occupation numbers 
     1.0000   1.0000   1.0000   1.0000   1.0000   1.0000   1.0000   1.0000
     1.0000   1.0000   1.0000   1.0000   1.0000   1.0000   1.0000   1.0000
     0.0000   0.0000   0.0000   0.0000   0.0000

          k = 0.1667 0.5774 0.0000 (  2732 PWs)   bands (ev):

   -74.3726 -74.3563 -37.8813 -37.8216 -37.7259 -37.7247 -37.6455 -37.6308
    15.9911  16.2183  16.2921  17.2568  18.2902  18.3664  19.0049  20.6605
    20.8318  20.8683  23.1959  24.7841  30.8166

     occupation numbers 
     1.0000   1.0000   1.0000   1.0000   1.0000   1.0000   1.0000   1.0000
     1.0000   1.0000   1.0000   1.0000   1.0000   1.0000   1.0000   0.0000
     0.0000   0.0000   0.0000   0.0000   0.0000

          k = 0.1667 0.5774 0.1014 (  2738 PWs)   bands (ev):

   -74.3715 -74.3574 -37.8901 -37.8383 -37.7401 -37.6860 -37.6598 -37.6153
    15.7941  16.2658  16.7144  17.0364  18.1879  18.5787  19.1112  20.5683
    20.6616  20.9316  23.2174  24.6687  29.7547

     occupation numbers 
     1.0000   1.0000   1.0000   1.0000   1.0000   1.0000   1.0000   1.0000
     1.0000   1.0000   1.0000   1.0000   1.0000   1.0000   1.0000   0.0000
     0.0000   0.0000   0.0000   0.0000   0.0000

          k = 0.1667 0.5774 0.2027 (  2732 PWs)   bands (ev):

   -74.3685 -74.3604 -37.9014 -37.8715 -37.7304 -37.6821 -37.6413 -37.6025
    15.7332  16.1739  16.9660  17.3366  17.9584  18.7193  19.4016  20.0546
    20.6984  20.9870  23.3334  24.2967  28.7016

     occupation numbers 
     1.0000   1.0000   1.0000   1.0000   1.0000   1.0000   1.0000   1.0000
     1.0000   1.0000   1.0000   1.0000   1.0000   1.0000   1.0000   0.0000
     0.0000   0.0000   0.0000   0.0000   0.0000

          k = 0.1667 0.5774-0.3041 (  2728 PWs)   bands (ev):

   -74.3645 -74.3645 -37.8964 -37.8964 -37.7077 -37.7077 -37.6103 -37.6103
    15.8912  15.8912  17.2880  17.2880  18.3231  18.3231  19.7095  19.7095
    20.8474  20.8474  23.7411  23.7411  28.3430

     occupation numbers 
     1.0000   1.0000   1.0000   1.0000   1.0000   1.0000   1.0000   1.0000
     1.0000   1.0000   1.0000   1.0000   1.0000   1.0000   0.0000   0.0000
     0.0000   0.0000   0.0000   0.0000   0.0000

          k = 0.2500 0.4330 0.0000 (  2728 PWs)   bands (ev):

   -74.3785 -74.3560 -37.8379 -37.8124 -37.7454 -37.7169 -37.6628 -37.6151
    15.5834  16.4326  16.7347  16.7959  18.1160  18.6006  18.8932  20.0334
    20.7795  20.9015  22.2937  27.9479  28.8918

     occupation numbers 
     1.0000   1.0000   1.0000   1.0000   1.0000   1.0000   1.0000   1.0000
     1.0000   1.0000   1.0000   1.0000   1.0000   1.0000   1.0000   0.0000
     0.0000   0.0000   0.0000   0.0000   0.0000

          k = 0.2500 0.4330 0.1014 (  2733 PWs)   bands (ev):

   -74.3770 -74.3575 -37.8413 -37.8378 -37.7267 -37.7157 -37.6637 -37.6053
    15.6497  16.3500  16.8032  16.9848  18.1605  18.4053  18.9141  20.0919
    20.5291  20.9878  22.3956  26.4018  29.1780

     occupation numbers 
     1.0000   1.0000   1.0000   1.0000   1.0000   1.0000   1.0000   1.0000
     1.0000   1.0000   1.0000   1.0000   1.0000   1.0000   1.0000   0.0000
     0.0000   0.0000   0.0000   0.0000   0.0000

          k = 0.2500 0.4330 0.2027 (  2740 PWs)   bands (ev):

   -74.3729 -74.3616 -37.8631 -37.8539 -37.7316 -37.7030 -37.6416 -37.5968
    15.8190  16.2109  17.0305  17.3506  17.9961  18.1310  19.0232  19.8750
    20.5029  21.0928  22.6333  24.5049  29.9540

     occupation numbers 
     1.0000   1.0000   1.0000   1.0000   1.0000   1.0000   1.0000   1.0000
     1.0000   1.0000   1.0000   1.0000   1.0000   1.0000   1.0000   0.0000
     0.0000   0.0000   0.0000   0.0000   0.0000

          k = 0.2500 0.4330-0.3041 (  2746 PWs)   bands (ev):

   -74.3672 -74.3672 -37.8669 -37.8669 -37.7191 -37.7191 -37.6090 -37.6090
    16.0271  16.0271  17.3859  17.3859  17.8973  17.8973  19.3479  19.3479
    20.9411  20.9411  23.2067  23.2067  30.9599

     occupation numbers 
     1.0000   1.0000   1.0000   1.0000   1.0000   1.0000   1.0000   1.0000
     1.0000   1.0000   1.0000   1.0000   1.0000   1.0000   1.0000   1.0000
     0.0000   0.0000   0.0000   0.0000   0.0000

          k = 0.2500 0.5292 0.0000 (  2749 PWs)   bands (ev):

   -74.3687 -74.3571 -37.8531 -37.8023 -37.7552 -37.7098 -37.6903 -37.6429
    16.2800  16.4088  16.5776  16.9062  18.1156  18.3283  19.1037  20.3723
    20.7385  20.8177  23.6530  26.0167  28.1871

     occupation numbers 
     1.0000   1.0000   1.0000   1.0000   1.0000   1.0000   1.0000   1.0000
     1.0000   1.0000   1.0000   1.0000   1.0000   1.0000   1.0000   0.0000
     0.0000   0.0000   0.0000   0.0000   0.0000

          k = 0.2500 0.5292 0.1014 (  2742 PWs)   bands (ev):

   -74.3679 -74.3579 -37.8570 -37.8218 -37.7690 -37.7047 -37.6748 -37.6261
    16.1958  16.5715  16.6607  16.9601  18.0865  18.2253  19.1267  20.4016
    20.4873  20.8804  23.8142  25.9689  28.2196

     occupation numbers 
     1.0000   1.0000   1.0000   1.0000   1.0000   1.0000   1.0000   1.0000
     1.0000   1.0000   1.0000   1.0000   1.0000   1.0000   1.0000   0.0000
     0.0000   0.0000   0.0000   0.0000   0.0000

          k = 0.2500 0.5292 0.2027 (  2731 PWs)   bands (ev):

   -74.3658 -74.3600 -37.8684 -37.8513 -37.7700 -37.7250 -37.6324 -37.6057
    16.2112  16.5163  16.9511  17.3085  17.8098  18.0909  19.2179  19.8984
    20.6071  20.9449  24.1966  25.5460  28.2729

     occupation numbers 
     1.0000   1.0000   1.0000   1.0000   1.0000   1.0000   1.0000   1.0000
     1.0000   1.0000   1.0000   1.0000   1.0000   1.0000   1.0000   0.0000
     0.0000   0.0000   0.0000   0.0000   0.0000

          k = 0.2500 0.5292-0.3041 (  2712 PWs)   bands (ev):

   -74.3629 -74.3629 -37.8696 -37.8696 -37.7503 -37.7503 -37.6063 -37.6063
    16.3425  16.3425  17.3547  17.3547  17.7998  17.7998  19.4439  19.4439
    20.8401  20.8401  24.7908  24.7908  28.8280

     occupation numbers 
     1.0000   1.0000   1.0000   1.0000   1.0000   1.0000   1.0000   1.0000
     1.0000   1.0000   1.0000   1.0000   1.0000   1.0000   1.0000   1.0000
     0.0000   0.0000   0.0000   0.0000   0.0000

          k = 0.3333 0.5774 0.0000 (  2772 PWs)   bands (ev):

   -74.3613 -74.3613 -37.8385 -37.7827 -37.7827 -37.7233 -37.6749 -37.6749
    16.4529  16.6240  16.6240  16.7958  18.1477  18.1477  19.2147  20.5583
    20.5583  20.6996  25.1436  26.0327  26.0327

     occupation numbers 
     1.0000   1.0000   1.0000   1.0000   1.0000   1.0000   1.0000   1.0000
     1.0000   1.0000   1.0000   1.0000   1.0000   1.0000   1.0000   0.0000
     0.0000   0.0000   0.0000   0.0000   0.0000

          k = 0.3333 0.5774 0.1014 (  2742 PWs)   bands (ev):

   -74.3613 -74.3613 -37.8308 -37.8062 -37.8062 -37.7311 -37.6511 -37.6511
    16.5302  16.6919  16.6919  16.8258  18.0582  18.0582  19.1976  20.4209
    20.6197  20.6197  25.5606  26.0693  26.0693

     occupation numbers 
     1.0000   1.0000   1.0000   1.0000   1.0000   1.0000   1.0000   1.0000
     1.0000   1.0000   1.0000   1.0000   1.0000   1.0000   1.0000   0.0000
     0.0000   0.0000   0.0000   0.0000   0.0000

          k = 0.3333 0.5774 0.2027 (  2736 PWs)   bands (ev):

   -74.3613 -74.3613 -37.8391 -37.8391 -37.8098 -37.7523 -37.6179 -37.6179
    16.7112  16.8530  16.8530  16.8793  17.8625  17.8625  19.2075  19.8584
    20.7341  20.7341  26.1593  26.1593  26.5804

     occupation numbers 
     1.0000   1.0000   1.0000   1.0000   1.0000   1.0000   1.0000   1.0000
     1.0000   1.0000   1.0000   1.0000   1.0000   1.0000   1.0000   0.0000
     0.0000   0.0000   0.0000   0.0000   0.0000

          k = 0.3333 0.5774-0.3041 (  2706 PWs)   bands (ev):

   -74.3612 -74.3612 -37.8522 -37.8522 -37.7811 -37.7811 -37.6045 -37.6045
    16.8600  16.8600  16.9569  16.9569  17.7452  17.7452  19.3989  19.3989
    20.7878  20.7878  26.2157  26.2157  27.9277

     occupation numbers 
     1.0000   1.0000   1.0000   1.0000   1.0000   1.0000   1.0000   1.0000
     1.0000   1.0000   1.0000   1.0000   1.0000   1.0000   1.0000   1.0000
     0.0000   0.0000   0.0000   0.0000   0.0000

     the Fermi energy is    19.6144 ev

!    total energy              =    -753.45327294 Ry
     total all-electron energy =     -5573.809964 Ry
     estimated scf accuracy    <       0.00000044 Ry
     smearing contrib. (-TS)   =      -0.00001471 Ry
     internal energy E=F+TS    =    -753.45325823 Ry

     The total energy is F=E-TS. E is the sum of the following terms:
     one-electron contribution =    -273.97392122 Ry
     hartree contribution      =     161.77632007 Ry
     xc contribution           =     -61.45221145 Ry
     ewald contribution        =    -404.62718881 Ry
     one-center paw contrib.   =    -175.17625682 Ry
      -> PAW hartree energy AE =     222.34021215 Ry
      -> PAW hartree energy PS =    -221.28332521 Ry
      -> PAW xc energy AE      =    -117.68489473 Ry
      -> PAW xc energy PS      =      29.03987938 Ry
      -> total E_H with PAW    =     162.83320701 Ry
      -> total E_XC with PAW   =    -150.09722680 Ry

     total magnetization       =     3.15 Bohr mag/cell
     absolute magnetization    =     3.46 Bohr mag/cell

     convergence has been achieved in  14 iterations

     Writing all to output data dir ./out/Co.save/
 
     init_run     :      0.40s CPU      0.52s WALL (       1 calls)
     electrons    :     25.54s CPU     27.14s WALL (       1 calls)

     Called by init_run:
     wfcinit      :      0.27s CPU      0.36s WALL (       1 calls)
     potinit      :      0.09s CPU      0.11s WALL (       1 calls)
     hinit0       :      0.03s CPU      0.03s WALL (       1 calls)

     Called by electrons:
     c_bands      :     21.76s CPU     22.97s WALL (      14 calls)
     sum_band     :      2.55s CPU      2.69s WALL (      14 calls)
     v_of_rho     :      0.04s CPU      0.04s WALL (      15 calls)
     v_h          :      0.00s CPU      0.00s WALL (      15 calls)
     v_xc         :      0.04s CPU      0.04s WALL (      15 calls)
     newd         :      0.05s CPU      0.06s WALL (      15 calls)
     PAW_pot      :      1.21s CPU      1.43s WALL (      15 calls)
     mix_rho      :      0.01s CPU      0.01s WALL (      14 calls)

     Called by c_bands:
     init_us_2    :      0.14s CPU      0.16s WALL (    4256 calls)
     init_us_2:cp :      0.14s CPU      0.15s WALL (    4256 calls)
     cegterg      :     20.81s CPU     21.76s WALL (    2128 calls)

     Called by sum_band:
     sum_band:wei :      0.02s CPU      0.02s WALL (      14 calls)
     sum_band:loo :      2.42s CPU      2.56s WALL (      14 calls)
     sum_band:buf :      0.01s CPU      0.02s WALL (    2128 calls)
     sum_band:ini :      0.09s CPU      0.08s WALL (    2128 calls)
     sum_band:cal :      0.21s CPU      0.20s WALL (    2128 calls)
     sum_band:bec :      0.00s CPU      0.02s WALL (    2128 calls)
     addusdens    :      0.09s CPU      0.09s WALL (      14 calls)
                                        0.00s GPU  (      14 calls)
     addusd:skk   :      0.00s CPU      0.00s WALL (      14 calls)
                                        0.00s GPU  (      14 calls)

     Called by *egterg:
     cdiaghg      :      4.86s CPU      4.98s WALL (   10485 calls)
     cegterg:over :      0.68s CPU      0.64s WALL (    8509 calls)
     cegterg:upda :      0.07s CPU      0.16s WALL (    8509 calls)
     cegterg:last :      0.25s CPU      0.29s WALL (    5967 calls)
     h_psi        :     14.12s CPU     14.86s WALL (   10637 calls)
     s_psi        :      0.28s CPU      0.23s WALL (   10637 calls)
     g_psi        :      0.03s CPU      0.05s WALL (    8509 calls)

     Called by h_psi:
     h_psi:calbec :      0.73s CPU      0.71s WALL (   10637 calls)
     vloc_psi     :     13.21s CPU     13.83s WALL (   10637 calls)
     add_vuspsi   :      0.14s CPU      0.25s WALL (   10637 calls)

     General routines
     calbec       :      0.94s CPU      0.89s WALL (   12765 calls)
     fft          :      0.03s CPU      0.03s WALL (     369 calls)
     ffts         :      0.00s CPU      0.00s WALL (      58 calls)
     fftw         :     14.48s CPU     14.97s WALL (  335480 calls)
     interpolate  :      0.00s CPU      0.01s WALL (      30 calls)
 
     Parallel routines

     PAW routines
     PAW_pot      :      1.21s CPU      1.43s WALL (      15 calls)
     PAW_symme    :      0.01s CPU      0.01s WALL (      28 calls)
 
     PWSCF        :     26.30s CPU     28.45s WALL

 
   This run was terminated on:   9:25:53  22Mar2024            

=------------------------------------------------------------------------------=
   JOB DONE.
=------------------------------------------------------------------------------=
