
     Program PWSCF v.7.2 starts on 22Mar2024 at  8:30: 7 

     This program is part of the open-source Quantum ESPRESSO suite
     for quantum simulation of materials; please cite
         "P. Giannozzi et al., J. Phys.:Condens. Matter 21 395502 (2009);
         "P. Giannozzi et al., J. Phys.:Condens. Matter 29 465901 (2017);
         "P. Giannozzi et al., J. Chem. Phys. 152 154105 (2020);
          URL http://www.quantum-espresso.org", 
     in publications or presentations arising from this work. More details at
     http://www.quantum-espresso.org/quote

     Parallel version (MPI), running on    20 processors

     MPI processes distributed on     1 nodes
     352597 MiB available memory on the printing compute node when the environment starts
 
     Waiting for input...
     Reading input from standard input

     Current dimensions of program PWSCF are:
     Max number of different atomic species (ntypx) = 10
     Max number of k-points (npk) = 120000
     Max angular momentum in pseudopotentials (lmaxx) =  4
     file Co.pbe-spn-kjpaw_psl.0.3.1.UPF: wavefunction(s)  3P 3D renormalized
 
     R & G space division:  proc/nbgrp/npool/nimage =      20
     Subspace diagonalization in iterative solution of the eigenvalue problem:
     a serial algorithm will be used

 
     Parallelization info
     --------------------
     sticks:   dense  smooth     PW     G-vecs:    dense   smooth      PW
     Min          33      33      9                 1157     1131     179
     Max          34      34     10                 1184     1136     186
     Sum         673     673    199                23391    22671    3693
 
     Using Slab Decomposition
 


     bravais-lattice index     =            4
     lattice parameter (alat)  =       4.6960  a.u.
     unit-cell volume          =     145.2600 (a.u.)^3
     number of atoms/cell      =            2
     number of atomic types    =            1
     number of electrons       =        34.00
     number of Kohn-Sham states=           21
     kinetic-energy cutoff     =     110.0000  Ry
     charge density cutoff     =     450.0000  Ry
     scf convergence threshold =      1.0E-06
     mixing beta               =       0.7000
     number of iterations used =            8  plain     mixing
     Exchange-correlation= SLA  PW   PBX  PBC
                           (   1   4   3   4   0   0   0)

     celldm(1)=   4.695969  celldm(2)=   0.000000  celldm(3)=   1.619718
     celldm(4)=   0.000000  celldm(5)=   0.000000  celldm(6)=   0.000000

     crystal axes: (cart. coord. in units of alat)
               a(1) = (   1.000000   0.000000   0.000000 )  
               a(2) = (  -0.500000   0.866025   0.000000 )  
               a(3) = (   0.000000   0.000000   1.619718 )  

     reciprocal axes: (cart. coord. in units 2 pi/alat)
               b(1) = (  1.000000  0.577350  0.000000 )  
               b(2) = (  0.000000  1.154701  0.000000 )  
               b(3) = (  0.000000  0.000000  0.617391 )  


     PseudoPot. # 1 for Co read from file:
     /truba/home/amuhaymin/ZnS/pseudo/QE/Co.pbe-spn-kjpaw_psl.0.3.1.UPF
     MD5 check sum: b0a1ad65bf214e88c1f3d33b20c7d919
     Pseudo is Projector augmented-wave + core cor, Zval = 17.0
     Generated using &quot;atomic&quot; code by A. Dal Corso  v.6.2.2
     Shape of augmentation charge: PSQ
     Using radial grid of 1193 points,  6 beta functions with: 
                l(1) =   0
                l(2) =   0
                l(3) =   1
                l(4) =   1
                l(5) =   2
                l(6) =   2
     Q(r) pseudized with 0 coefficients 


     atomic species   valence    mass     pseudopotential
        Co            17.00    58.93300     Co( 1.00)

     Starting magnetic structure 
     atomic species   magnetization
        Co           0.294

     24 Sym. Ops., with inversion, found (12 have fractional translation)


                                    s                        frac. trans.

      isym =  1     identity                                     

 cryst.   s( 1) = (     1          0          0      )
                  (     0          1          0      )
                  (     0          0          1      )

 cart.    s( 1) = (  1.0000000  0.0000000  0.0000000 )
                  (  0.0000000  1.0000000  0.0000000 )
                  (  0.0000000  0.0000000  1.0000000 )


      isym =  2     180 deg rotation - cart. axis [0,0,1]        

 cryst.   s( 2) = (    -1          0          0      )    f =(  0.0000000 )
                  (     0         -1          0      )       ( -0.0000000 )
                  (     0          0          1      )       ( -0.5000000 )

 cart.    s( 2) = ( -1.0000000  0.0000000  0.0000000 )    f =(  0.0000000 )
                  (  0.0000000 -1.0000000  0.0000000 )       ( -0.0000000 )
                  (  0.0000000  0.0000000  1.0000000 )       ( -0.8098592 )


      isym =  3     180 deg rotation - cart. axis [0,1,0]        

 cryst.   s( 3) = (    -1          0          0      )    f =(  0.0000000 )
                  (     1          1          0      )       (  0.0000000 )
                  (     0          0         -1      )       (  0.5000000 )

 cart.    s( 3) = ( -1.0000000  0.0000000  0.0000000 )    f =(  0.0000000 )
                  (  0.0000000  1.0000000  0.0000000 )       (  0.0000000 )
                  (  0.0000000  0.0000000 -1.0000000 )       (  0.8098592 )


      isym =  4     180 deg rotation - cart. axis [1,0,0]        

 cryst.   s( 4) = (     1          0          0      )
                  (    -1         -1          0      )
                  (     0          0         -1      )

 cart.    s( 4) = (  1.0000000  0.0000000  0.0000000 )
                  (  0.0000000 -1.0000000  0.0000000 )
                  (  0.0000000  0.0000000 -1.0000000 )


      isym =  5      60 deg rotation - cryst. axis [0,0,1]       

 cryst.   s( 5) = (     1          1          0      )    f =(  0.0000000 )
                  (    -1          0          0      )       ( -0.0000000 )
                  (     0          0          1      )       ( -0.5000000 )

 cart.    s( 5) = (  0.5000000 -0.8660254  0.0000000 )    f =(  0.0000000 )
                  (  0.8660254  0.5000000  0.0000000 )       ( -0.0000000 )
                  (  0.0000000  0.0000000  1.0000000 )       ( -0.8098592 )


      isym =  6      60 deg rotation - cryst. axis [0,0,-1]      

 cryst.   s( 6) = (     0         -1          0      )    f =(  0.0000000 )
                  (     1          1          0      )       ( -0.0000000 )
                  (     0          0          1      )       ( -0.5000000 )

 cart.    s( 6) = (  0.5000000  0.8660254  0.0000000 )    f =(  0.0000000 )
                  ( -0.8660254  0.5000000  0.0000000 )       ( -0.0000000 )
                  (  0.0000000  0.0000000  1.0000000 )       ( -0.8098592 )


      isym =  7     120 deg rotation - cryst. axis [0,0,1]       

 cryst.   s( 7) = (     0          1          0      )
                  (    -1         -1          0      )
                  (     0          0          1      )

 cart.    s( 7) = ( -0.5000000 -0.8660254  0.0000000 )
                  (  0.8660254 -0.5000000  0.0000000 )
                  (  0.0000000  0.0000000  1.0000000 )


      isym =  8     120 deg rotation - cryst. axis [0,0,-1]      

 cryst.   s( 8) = (    -1         -1          0      )
                  (     1          0          0      )
                  (     0          0          1      )

 cart.    s( 8) = ( -0.5000000  0.8660254  0.0000000 )
                  ( -0.8660254 -0.5000000  0.0000000 )
                  (  0.0000000  0.0000000  1.0000000 )


      isym =  9     180 deg rotation - cryst. axis [1,-1,0]      

 cryst.   s( 9) = (     0         -1          0      )    f =( -0.0000000 )
                  (    -1          0          0      )       ( -0.0000000 )
                  (     0          0         -1      )       (  0.5000000 )

 cart.    s( 9) = (  0.5000000 -0.8660254  0.0000000 )    f =( -0.0000000 )
                  ( -0.8660254 -0.5000000  0.0000000 )       ( -0.0000000 )
                  (  0.0000000  0.0000000 -1.0000000 )       (  0.8098592 )


      isym = 10     180 deg rotation - cryst. axis [2,1,0]       

 cryst.   s(10) = (     1          1          0      )    f =(  0.0000000 )
                  (     0         -1          0      )       ( -0.0000000 )
                  (     0          0         -1      )       (  0.5000000 )

 cart.    s(10) = (  0.5000000  0.8660254  0.0000000 )    f =(  0.0000000 )
                  (  0.8660254 -0.5000000  0.0000000 )       ( -0.0000000 )
                  (  0.0000000  0.0000000 -1.0000000 )       (  0.8098592 )


      isym = 11     180 deg rotation - cryst. axis [0,1,0]       

 cryst.   s(11) = (    -1         -1          0      )
                  (     0          1          0      )
                  (     0          0         -1      )

 cart.    s(11) = ( -0.5000000 -0.8660254  0.0000000 )
                  ( -0.8660254  0.5000000  0.0000000 )
                  (  0.0000000  0.0000000 -1.0000000 )


      isym = 12     180 deg rotation - cryst. axis [1,1,0]       

 cryst.   s(12) = (     0          1          0      )
                  (     1          0          0      )
                  (     0          0         -1      )

 cart.    s(12) = ( -0.5000000  0.8660254  0.0000000 )
                  (  0.8660254  0.5000000  0.0000000 )
                  (  0.0000000  0.0000000 -1.0000000 )


      isym = 13     inversion                                    

 cryst.   s(13) = (    -1          0          0      )
                  (     0         -1          0      )
                  (     0          0         -1      )

 cart.    s(13) = ( -1.0000000  0.0000000  0.0000000 )
                  (  0.0000000 -1.0000000  0.0000000 )
                  (  0.0000000  0.0000000 -1.0000000 )


      isym = 14     inv. 180 deg rotation - cart. axis [0,0,1]   

 cryst.   s(14) = (     1          0          0      )    f =(  0.0000000 )
                  (     0          1          0      )       (  0.0000000 )
                  (     0          0         -1      )       (  0.5000000 )

 cart.    s(14) = (  1.0000000  0.0000000  0.0000000 )    f =(  0.0000000 )
                  (  0.0000000  1.0000000  0.0000000 )       (  0.0000000 )
                  (  0.0000000  0.0000000 -1.0000000 )       (  0.8098592 )


      isym = 15     inv. 180 deg rotation - cart. axis [0,1,0]   

 cryst.   s(15) = (     1          0          0      )    f =(  0.0000000 )
                  (    -1         -1          0      )       ( -0.0000000 )
                  (     0          0          1      )       ( -0.5000000 )

 cart.    s(15) = (  1.0000000  0.0000000  0.0000000 )    f =(  0.0000000 )
                  (  0.0000000 -1.0000000  0.0000000 )       ( -0.0000000 )
                  (  0.0000000  0.0000000  1.0000000 )       ( -0.8098592 )


      isym = 16     inv. 180 deg rotation - cart. axis [1,0,0]   

 cryst.   s(16) = (    -1          0          0      )
                  (     1          1          0      )
                  (     0          0          1      )

 cart.    s(16) = ( -1.0000000  0.0000000  0.0000000 )
                  (  0.0000000  1.0000000  0.0000000 )
                  (  0.0000000  0.0000000  1.0000000 )


      isym = 17     inv.  60 deg rotation - cryst. axis [0,0,1]  

 cryst.   s(17) = (    -1         -1          0      )    f =(  0.0000000 )
                  (     1          0          0      )       ( -0.0000000 )
                  (     0          0         -1      )       (  0.5000000 )

 cart.    s(17) = ( -0.5000000  0.8660254  0.0000000 )    f =(  0.0000000 )
                  ( -0.8660254 -0.5000000  0.0000000 )       ( -0.0000000 )
                  (  0.0000000  0.0000000 -1.0000000 )       (  0.8098592 )


      isym = 18     inv.  60 deg rotation - cryst. axis [0,0,-1] 

 cryst.   s(18) = (     0          1          0      )    f =( -0.0000000 )
                  (    -1         -1          0      )       ( -0.0000000 )
                  (     0          0         -1      )       (  0.5000000 )

 cart.    s(18) = ( -0.5000000 -0.8660254  0.0000000 )    f =(  0.0000000 )
                  (  0.8660254 -0.5000000  0.0000000 )       ( -0.0000000 )
                  (  0.0000000  0.0000000 -1.0000000 )       (  0.8098592 )


      isym = 19     inv. 120 deg rotation - cryst. axis [0,0,1]  

 cryst.   s(19) = (     0         -1          0      )
                  (     1          1          0      )
                  (     0          0         -1      )

 cart.    s(19) = (  0.5000000  0.8660254  0.0000000 )
                  ( -0.8660254  0.5000000  0.0000000 )
                  (  0.0000000  0.0000000 -1.0000000 )


      isym = 20     inv. 120 deg rotation - cryst. axis [0,0,-1] 

 cryst.   s(20) = (     1          1          0      )
                  (    -1          0          0      )
                  (     0          0         -1      )

 cart.    s(20) = (  0.5000000 -0.8660254  0.0000000 )
                  (  0.8660254  0.5000000  0.0000000 )
                  (  0.0000000  0.0000000 -1.0000000 )


      isym = 21     inv. 180 deg rotation - cryst. axis [1,-1,0] 

 cryst.   s(21) = (     0          1          0      )    f =(  0.0000000 )
                  (     1          0          0      )       ( -0.0000000 )
                  (     0          0          1      )       ( -0.5000000 )

 cart.    s(21) = ( -0.5000000  0.8660254  0.0000000 )    f =(  0.0000000 )
                  (  0.8660254  0.5000000  0.0000000 )       ( -0.0000000 )
                  (  0.0000000  0.0000000  1.0000000 )       ( -0.8098592 )


      isym = 22     inv. 180 deg rotation - cryst. axis [2,1,0]  

 cryst.   s(22) = (    -1         -1          0      )    f =(  0.0000000 )
                  (     0          1          0      )       ( -0.0000000 )
                  (     0          0          1      )       ( -0.5000000 )

 cart.    s(22) = ( -0.5000000 -0.8660254  0.0000000 )    f =(  0.0000000 )
                  ( -0.8660254  0.5000000  0.0000000 )       ( -0.0000000 )
                  (  0.0000000  0.0000000  1.0000000 )       ( -0.8098592 )


      isym = 23     inv. 180 deg rotation - cryst. axis [0,1,0]  

 cryst.   s(23) = (     1          1          0      )
                  (     0         -1          0      )
                  (     0          0          1      )

 cart.    s(23) = (  0.5000000  0.8660254  0.0000000 )
                  (  0.8660254 -0.5000000  0.0000000 )
                  (  0.0000000  0.0000000  1.0000000 )


      isym = 24     inv. 180 deg rotation - cryst. axis [1,1,0]  

 cryst.   s(24) = (     0         -1          0      )
                  (    -1          0          0      )
                  (     0          0          1      )

 cart.    s(24) = (  0.5000000 -0.8660254  0.0000000 )
                  ( -0.8660254 -0.5000000  0.0000000 )
                  (  0.0000000  0.0000000  1.0000000 )


     point group D_6h(6/mmm)
     there are 12 classes
     the character table:

       E     2C6   2C3   C2    3C2'  3C2'' i     2S3   2S6   s_h   3s_d  3s_v 
A_1g   1.00  1.00  1.00  1.00  1.00  1.00  1.00  1.00  1.00  1.00  1.00  1.00
A_2g   1.00  1.00  1.00  1.00 -1.00 -1.00  1.00  1.00  1.00  1.00 -1.00 -1.00
B_1g   1.00 -1.00  1.00 -1.00  1.00 -1.00  1.00 -1.00  1.00 -1.00  1.00 -1.00
B_2g   1.00 -1.00  1.00 -1.00 -1.00  1.00  1.00 -1.00  1.00 -1.00 -1.00  1.00
E_1g   2.00  1.00 -1.00 -2.00  0.00  0.00  2.00  1.00 -1.00 -2.00  0.00  0.00
E_2g   2.00 -1.00 -1.00  2.00  0.00  0.00  2.00 -1.00 -1.00  2.00  0.00  0.00
A_1u   1.00  1.00  1.00  1.00  1.00  1.00 -1.00 -1.00 -1.00 -1.00 -1.00 -1.00
A_2u   1.00  1.00  1.00  1.00 -1.00 -1.00 -1.00 -1.00 -1.00 -1.00  1.00  1.00
B_1u   1.00 -1.00  1.00 -1.00  1.00 -1.00 -1.00  1.00 -1.00  1.00 -1.00  1.00
B_2u   1.00 -1.00  1.00 -1.00 -1.00  1.00 -1.00  1.00 -1.00  1.00  1.00 -1.00
E_1u   2.00  1.00 -1.00 -2.00  0.00  0.00 -2.00 -1.00  1.00  2.00  0.00  0.00
E_2u   2.00 -1.00 -1.00  2.00  0.00  0.00 -2.00  1.00  1.00 -2.00  0.00  0.00

     the symmetry operations in each class and the name of the first element:

     E        1
          identity                                               
     2C6      5    6
           60 deg rotation - cryst. axis [0,0,1]                 
     2C3      7    8
          120 deg rotation - cryst. axis [0,0,1]                 
     C2       2
          180 deg rotation - cart. axis [0,0,1]                  
     3C2'     4   12   11
          180 deg rotation - cart. axis [1,0,0]                  
     3C2''    3    9   10
          180 deg rotation - cart. axis [0,1,0]                  
     i       13
          inversion                                              
     2S3     17   18
          inv.  60 deg rotation - cryst. axis [0,0,1]            
     2S6     19   20
          inv. 120 deg rotation - cryst. axis [0,0,1]            
     s_h     14
          inv. 180 deg rotation - cart. axis [0,0,1]             
     3s_d    16   24   23
          inv. 180 deg rotation - cart. axis [1,0,0]             
     3s_v    15   21   22
          inv. 180 deg rotation - cart. axis [0,1,0]             

   Cartesian axes

     site n.     atom                  positions (alat units)
         1           Co  tau(   1) = (  -0.0000000   0.5773503   0.4049296  )
         2           Co  tau(   2) = (   0.5000000   0.2886751   1.2147887  )

   Crystallographic axes

     site n.     atom                  positions (cryst. coord.)
         1           Co  tau(   1) = (  0.3333333  0.6666667  0.2500000  )
         2           Co  tau(   2) = (  0.6666667  0.3333333  0.7500000  )

     number of k points=    76  Gaussian smearing, width (Ry)=  0.0010
                       cart. coord. in units 2pi/alat
        k(    1) = (   0.0000000   0.0000000   0.0000000), wk =   0.0011574
        k(    2) = (   0.0000000   0.0000000   0.1028986), wk =   0.0023148
        k(    3) = (   0.0000000   0.0000000   0.2057971), wk =   0.0023148
        k(    4) = (   0.0000000   0.0000000  -0.3086957), wk =   0.0011574
        k(    5) = (   0.0000000   0.0962250   0.0000000), wk =   0.0069444
        k(    6) = (   0.0000000   0.0962250   0.1028986), wk =   0.0138889
        k(    7) = (   0.0000000   0.0962250   0.2057971), wk =   0.0138889
        k(    8) = (   0.0000000   0.0962250  -0.3086957), wk =   0.0069444
        k(    9) = (   0.0000000   0.1924501   0.0000000), wk =   0.0069444
        k(   10) = (   0.0000000   0.1924501   0.1028986), wk =   0.0138889
        k(   11) = (   0.0000000   0.1924501   0.2057971), wk =   0.0138889
        k(   12) = (   0.0000000   0.1924501  -0.3086957), wk =   0.0069444
        k(   13) = (   0.0000000   0.2886751   0.0000000), wk =   0.0069444
        k(   14) = (   0.0000000   0.2886751   0.1028986), wk =   0.0138889
        k(   15) = (   0.0000000   0.2886751   0.2057971), wk =   0.0138889
        k(   16) = (   0.0000000   0.2886751  -0.3086957), wk =   0.0069444
        k(   17) = (   0.0000000   0.3849002   0.0000000), wk =   0.0069444
        k(   18) = (   0.0000000   0.3849002   0.1028986), wk =   0.0138889
        k(   19) = (   0.0000000   0.3849002   0.2057971), wk =   0.0138889
        k(   20) = (   0.0000000   0.3849002  -0.3086957), wk =   0.0069444
        k(   21) = (   0.0000000   0.4811252   0.0000000), wk =   0.0069444
        k(   22) = (   0.0000000   0.4811252   0.1028986), wk =   0.0138889
        k(   23) = (   0.0000000   0.4811252   0.2057971), wk =   0.0138889
        k(   24) = (   0.0000000   0.4811252  -0.3086957), wk =   0.0069444
        k(   25) = (   0.0000000  -0.5773503   0.0000000), wk =   0.0034722
        k(   26) = (   0.0000000  -0.5773503   0.1028986), wk =   0.0069444
        k(   27) = (   0.0000000  -0.5773503   0.2057971), wk =   0.0069444
        k(   28) = (   0.0000000  -0.5773503  -0.3086957), wk =   0.0034722
        k(   29) = (   0.0833333   0.1443376   0.0000000), wk =   0.0069444
        k(   30) = (   0.0833333   0.1443376   0.1028986), wk =   0.0138889
        k(   31) = (   0.0833333   0.1443376   0.2057971), wk =   0.0138889
        k(   32) = (   0.0833333   0.1443376  -0.3086957), wk =   0.0069444
        k(   33) = (   0.0833333   0.2405626   0.0000000), wk =   0.0138889
        k(   34) = (   0.0833333   0.2405626   0.1028986), wk =   0.0277778
        k(   35) = (   0.0833333   0.2405626   0.2057971), wk =   0.0277778
        k(   36) = (   0.0833333   0.2405626  -0.3086957), wk =   0.0138889
        k(   37) = (   0.0833333   0.3367877   0.0000000), wk =   0.0138889
        k(   38) = (   0.0833333   0.3367877   0.1028986), wk =   0.0277778
        k(   39) = (   0.0833333   0.3367877   0.2057971), wk =   0.0277778
        k(   40) = (   0.0833333   0.3367877  -0.3086957), wk =   0.0138889
        k(   41) = (   0.0833333   0.4330127   0.0000000), wk =   0.0138889
        k(   42) = (   0.0833333   0.4330127   0.1028986), wk =   0.0277778
        k(   43) = (   0.0833333   0.4330127   0.2057971), wk =   0.0277778
        k(   44) = (   0.0833333   0.4330127  -0.3086957), wk =   0.0138889
        k(   45) = (   0.0833333   0.5292377   0.0000000), wk =   0.0138889
        k(   46) = (   0.0833333   0.5292377   0.1028986), wk =   0.0277778
        k(   47) = (   0.0833333   0.5292377   0.2057971), wk =   0.0277778
        k(   48) = (   0.0833333   0.5292377  -0.3086957), wk =   0.0138889
        k(   49) = (   0.1666667   0.2886751   0.0000000), wk =   0.0069444
        k(   50) = (   0.1666667   0.2886751   0.1028986), wk =   0.0138889
        k(   51) = (   0.1666667   0.2886751   0.2057971), wk =   0.0138889
        k(   52) = (   0.1666667   0.2886751  -0.3086957), wk =   0.0069444
        k(   53) = (   0.1666667   0.3849002   0.0000000), wk =   0.0138889
        k(   54) = (   0.1666667   0.3849002   0.1028986), wk =   0.0277778
        k(   55) = (   0.1666667   0.3849002   0.2057971), wk =   0.0277778
        k(   56) = (   0.1666667   0.3849002  -0.3086957), wk =   0.0138889
        k(   57) = (   0.1666667   0.4811252   0.0000000), wk =   0.0138889
        k(   58) = (   0.1666667   0.4811252   0.1028986), wk =   0.0277778
        k(   59) = (   0.1666667   0.4811252   0.2057971), wk =   0.0277778
        k(   60) = (   0.1666667   0.4811252  -0.3086957), wk =   0.0138889
        k(   61) = (   0.1666667   0.5773503   0.0000000), wk =   0.0069444
        k(   62) = (   0.1666667   0.5773503   0.1028986), wk =   0.0138889
        k(   63) = (   0.1666667   0.5773503   0.2057971), wk =   0.0138889
        k(   64) = (   0.1666667   0.5773503  -0.3086957), wk =   0.0069444
        k(   65) = (   0.2500000   0.4330127   0.0000000), wk =   0.0069444
        k(   66) = (   0.2500000   0.4330127   0.1028986), wk =   0.0138889
        k(   67) = (   0.2500000   0.4330127   0.2057971), wk =   0.0138889
        k(   68) = (   0.2500000   0.4330127  -0.3086957), wk =   0.0069444
        k(   69) = (   0.2500000   0.5292377   0.0000000), wk =   0.0138889
        k(   70) = (   0.2500000   0.5292377   0.1028986), wk =   0.0277778
        k(   71) = (   0.2500000   0.5292377   0.2057971), wk =   0.0277778
        k(   72) = (   0.2500000   0.5292377  -0.3086957), wk =   0.0138889
        k(   73) = (   0.3333333   0.5773503   0.0000000), wk =   0.0023148
        k(   74) = (   0.3333333   0.5773503   0.1028986), wk =   0.0046296
        k(   75) = (   0.3333333   0.5773503   0.2057971), wk =   0.0046296
        k(   76) = (   0.3333333   0.5773503  -0.3086957), wk =   0.0023148

                       cryst. coord.
        k(    1) = (   0.0000000   0.0000000   0.0000000), wk =   0.0011574
        k(    2) = (   0.0000000   0.0000000   0.1666667), wk =   0.0023148
        k(    3) = (   0.0000000   0.0000000   0.3333333), wk =   0.0023148
        k(    4) = (   0.0000000   0.0000000  -0.5000000), wk =   0.0011574
        k(    5) = (   0.0000000   0.0833333   0.0000000), wk =   0.0069444
        k(    6) = (   0.0000000   0.0833333   0.1666667), wk =   0.0138889
        k(    7) = (   0.0000000   0.0833333   0.3333333), wk =   0.0138889
        k(    8) = (   0.0000000   0.0833333  -0.5000000), wk =   0.0069444
        k(    9) = (   0.0000000   0.1666667   0.0000000), wk =   0.0069444
        k(   10) = (   0.0000000   0.1666667   0.1666667), wk =   0.0138889
        k(   11) = (   0.0000000   0.1666667   0.3333333), wk =   0.0138889
        k(   12) = (   0.0000000   0.1666667  -0.5000000), wk =   0.0069444
        k(   13) = (   0.0000000   0.2500000   0.0000000), wk =   0.0069444
        k(   14) = (   0.0000000   0.2500000   0.1666667), wk =   0.0138889
        k(   15) = (   0.0000000   0.2500000   0.3333333), wk =   0.0138889
        k(   16) = (   0.0000000   0.2500000  -0.5000000), wk =   0.0069444
        k(   17) = (   0.0000000   0.3333333   0.0000000), wk =   0.0069444
        k(   18) = (   0.0000000   0.3333333   0.1666667), wk =   0.0138889
        k(   19) = (   0.0000000   0.3333333   0.3333333), wk =   0.0138889
        k(   20) = (   0.0000000   0.3333333  -0.5000000), wk =   0.0069444
        k(   21) = (   0.0000000   0.4166667   0.0000000), wk =   0.0069444
        k(   22) = (   0.0000000   0.4166667   0.1666667), wk =   0.0138889
        k(   23) = (   0.0000000   0.4166667   0.3333333), wk =   0.0138889
        k(   24) = (   0.0000000   0.4166667  -0.5000000), wk =   0.0069444
        k(   25) = (   0.0000000  -0.5000000   0.0000000), wk =   0.0034722
        k(   26) = (   0.0000000  -0.5000000   0.1666667), wk =   0.0069444
        k(   27) = (   0.0000000  -0.5000000   0.3333333), wk =   0.0069444
        k(   28) = (   0.0000000  -0.5000000  -0.5000000), wk =   0.0034722
        k(   29) = (   0.0833333   0.0833333   0.0000000), wk =   0.0069444
        k(   30) = (   0.0833333   0.0833333   0.1666667), wk =   0.0138889
        k(   31) = (   0.0833333   0.0833333   0.3333333), wk =   0.0138889
        k(   32) = (   0.0833333   0.0833333  -0.5000000), wk =   0.0069444
        k(   33) = (   0.0833333   0.1666667   0.0000000), wk =   0.0138889
        k(   34) = (   0.0833333   0.1666667   0.1666667), wk =   0.0277778
        k(   35) = (   0.0833333   0.1666667   0.3333333), wk =   0.0277778
        k(   36) = (   0.0833333   0.1666667  -0.5000000), wk =   0.0138889
        k(   37) = (   0.0833333   0.2500000   0.0000000), wk =   0.0138889
        k(   38) = (   0.0833333   0.2500000   0.1666667), wk =   0.0277778
        k(   39) = (   0.0833333   0.2500000   0.3333333), wk =   0.0277778
        k(   40) = (   0.0833333   0.2500000  -0.5000000), wk =   0.0138889
        k(   41) = (   0.0833333   0.3333333   0.0000000), wk =   0.0138889
        k(   42) = (   0.0833333   0.3333333   0.1666667), wk =   0.0277778
        k(   43) = (   0.0833333   0.3333333   0.3333333), wk =   0.0277778
        k(   44) = (   0.0833333   0.3333333  -0.5000000), wk =   0.0138889
        k(   45) = (   0.0833333   0.4166667   0.0000000), wk =   0.0138889
        k(   46) = (   0.0833333   0.4166667   0.1666667), wk =   0.0277778
        k(   47) = (   0.0833333   0.4166667   0.3333333), wk =   0.0277778
        k(   48) = (   0.0833333   0.4166667  -0.5000000), wk =   0.0138889
        k(   49) = (   0.1666667   0.1666667   0.0000000), wk =   0.0069444
        k(   50) = (   0.1666667   0.1666667   0.1666667), wk =   0.0138889
        k(   51) = (   0.1666667   0.1666667   0.3333333), wk =   0.0138889
        k(   52) = (   0.1666667   0.1666667  -0.5000000), wk =   0.0069444
        k(   53) = (   0.1666667   0.2500000   0.0000000), wk =   0.0138889
        k(   54) = (   0.1666667   0.2500000   0.1666667), wk =   0.0277778
        k(   55) = (   0.1666667   0.2500000   0.3333333), wk =   0.0277778
        k(   56) = (   0.1666667   0.2500000  -0.5000000), wk =   0.0138889
        k(   57) = (   0.1666667   0.3333333   0.0000000), wk =   0.0138889
        k(   58) = (   0.1666667   0.3333333   0.1666667), wk =   0.0277778
        k(   59) = (   0.1666667   0.3333333   0.3333333), wk =   0.0277778
        k(   60) = (   0.1666667   0.3333333  -0.5000000), wk =   0.0138889
        k(   61) = (   0.1666667   0.4166667   0.0000000), wk =   0.0069444
        k(   62) = (   0.1666667   0.4166667   0.1666667), wk =   0.0138889
        k(   63) = (   0.1666667   0.4166667   0.3333333), wk =   0.0138889
        k(   64) = (   0.1666667   0.4166667  -0.5000000), wk =   0.0069444
        k(   65) = (   0.2500000   0.2500000   0.0000000), wk =   0.0069444
        k(   66) = (   0.2500000   0.2500000   0.1666667), wk =   0.0138889
        k(   67) = (   0.2500000   0.2500000   0.3333333), wk =   0.0138889
        k(   68) = (   0.2500000   0.2500000  -0.5000000), wk =   0.0069444
        k(   69) = (   0.2500000   0.3333333   0.0000000), wk =   0.0138889
        k(   70) = (   0.2500000   0.3333333   0.1666667), wk =   0.0277778
        k(   71) = (   0.2500000   0.3333333   0.3333333), wk =   0.0277778
        k(   72) = (   0.2500000   0.3333333  -0.5000000), wk =   0.0138889
        k(   73) = (   0.3333333   0.3333333   0.0000000), wk =   0.0023148
        k(   74) = (   0.3333333   0.3333333   0.1666667), wk =   0.0046296
        k(   75) = (   0.3333333   0.3333333   0.3333333), wk =   0.0046296
        k(   76) = (   0.3333333   0.3333333  -0.5000000), wk =   0.0023148

     Dense  grid:    23391 G-vectors     FFT dimensions: (  32,  32,  54)

     Smooth grid:    22671 G-vectors     FFT dimensions: (  32,  32,  54)

     Dynamical RAM for                 wfc:       0.05 MB

     Dynamical RAM for     wfc (w. buffer):       6.91 MB

     Dynamical RAM for           str. fact:       0.02 MB

     Dynamical RAM for           local pot:       0.00 MB

     Dynamical RAM for          nlocal pot:       0.08 MB

     Dynamical RAM for                qrad:       1.70 MB

     Dynamical RAM for          rho,v,vnew:       0.25 MB

     Dynamical RAM for               rhoin:       0.08 MB

     Dynamical RAM for            rho*nmix:       0.57 MB

     Dynamical RAM for           G-vectors:       0.08 MB

     Dynamical RAM for          h,s,v(r/c):       0.08 MB

     Dynamical RAM for          <psi|beta>:       0.01 MB

     Dynamical RAM for                 psi:       0.09 MB

     Dynamical RAM for                hpsi:       0.09 MB

     Dynamical RAM for                spsi:       0.09 MB

     Dynamical RAM for      wfcinit/wfcrot:       0.10 MB

     Dynamical RAM for           addusdens:       3.35 MB

     Estimated static dynamical RAM per process >       9.29 MB

     Estimated max dynamical RAM per process >      13.21 MB

     Estimated total dynamical RAM >     264.26 MB

     Check: negative core charge=   -0.000043
     Generating pointlists ...
     new r_m :   0.4103 (alat units)  1.9266 (a.u.) for type    1

     The initial density is read from file :
     ./out/Co.save/charge-density


     starting charge      33.0795, renormalised to      34.0000
     Starting wfcs from file
     Checking if some PAW data can be deallocated... 

     total cpu time spent up to now is        0.6 secs

     Self-consistent Calculation

     iteration #  1     ecut=   110.00 Ry     beta= 0.70
     Davidson diagonalization with overlap

---- Real-time Memory Report at c_bands before calling an iterative solver
            55 MiB given to the printing process from OS
             0 MiB allocation reported by mallinfo(arena+hblkhd)
        352023 MiB available memory on the node where the printing process lives
------------------
     ethr =  1.00E-05,  avg # of iterations = 13.6

     total cpu time spent up to now is        5.5 secs

     total energy              =    -753.19376272 Ry
     estimated scf accuracy    <       0.45125671 Ry

     total magnetization       =     3.34 Bohr mag/cell
     absolute magnetization    =     3.65 Bohr mag/cell

     iteration #  2     ecut=   110.00 Ry     beta= 0.70
     Davidson diagonalization with overlap

---- Real-time Memory Report at c_bands before calling an iterative solver
            77 MiB given to the printing process from OS
             0 MiB allocation reported by mallinfo(arena+hblkhd)
        351801 MiB available memory on the node where the printing process lives
------------------
     ethr =  1.33E-03,  avg # of iterations =  5.2

     total cpu time spent up to now is        7.7 secs

     total energy              =    -753.19658850 Ry
     estimated scf accuracy    <       1.63475434 Ry

     total magnetization       =     2.91 Bohr mag/cell
     absolute magnetization    =     3.20 Bohr mag/cell

     iteration #  3     ecut=   110.00 Ry     beta= 0.70
     Davidson diagonalization with overlap

---- Real-time Memory Report at c_bands before calling an iterative solver
            78 MiB given to the printing process from OS
             0 MiB allocation reported by mallinfo(arena+hblkhd)
        351789 MiB available memory on the node where the printing process lives
------------------
     ethr =  1.33E-03,  avg # of iterations =  4.1

     total cpu time spent up to now is        9.5 secs

     total energy              =    -753.44827713 Ry
     estimated scf accuracy    <       0.00173629 Ry

     total magnetization       =     3.28 Bohr mag/cell
     absolute magnetization    =     3.60 Bohr mag/cell

     iteration #  4     ecut=   110.00 Ry     beta= 0.70
     Davidson diagonalization with overlap

---- Real-time Memory Report at c_bands before calling an iterative solver
            79 MiB given to the printing process from OS
             0 MiB allocation reported by mallinfo(arena+hblkhd)
        351778 MiB available memory on the node where the printing process lives
------------------
     ethr =  5.11E-06,  avg # of iterations =  7.1

     total cpu time spent up to now is       12.2 secs

     total energy              =    -753.45488673 Ry
     estimated scf accuracy    <       0.00094620 Ry

     total magnetization       =     3.31 Bohr mag/cell
     absolute magnetization    =     3.62 Bohr mag/cell

     iteration #  5     ecut=   110.00 Ry     beta= 0.70
     Davidson diagonalization with overlap

---- Real-time Memory Report at c_bands before calling an iterative solver
            80 MiB given to the printing process from OS
             0 MiB allocation reported by mallinfo(arena+hblkhd)
        351768 MiB available memory on the node where the printing process lives
------------------
     ethr =  2.78E-06,  avg # of iterations =  3.1

     total cpu time spent up to now is       13.7 secs

     total energy              =    -753.45505805 Ry
     estimated scf accuracy    <       0.00008517 Ry

     total magnetization       =     3.31 Bohr mag/cell
     absolute magnetization    =     3.62 Bohr mag/cell

     iteration #  6     ecut=   110.00 Ry     beta= 0.70
     Davidson diagonalization with overlap

---- Real-time Memory Report at c_bands before calling an iterative solver
            82 MiB given to the printing process from OS
             0 MiB allocation reported by mallinfo(arena+hblkhd)
        351761 MiB available memory on the node where the printing process lives
------------------
     ethr =  2.50E-07,  avg # of iterations =  9.2

     total cpu time spent up to now is       16.4 secs

     total energy              =    -753.45516260 Ry
     estimated scf accuracy    <       0.00009611 Ry

     total magnetization       =     3.31 Bohr mag/cell
     absolute magnetization    =     3.62 Bohr mag/cell

     iteration #  7     ecut=   110.00 Ry     beta= 0.70
     Davidson diagonalization with overlap

---- Real-time Memory Report at c_bands before calling an iterative solver
            82 MiB given to the printing process from OS
             0 MiB allocation reported by mallinfo(arena+hblkhd)
        351753 MiB available memory on the node where the printing process lives
------------------
     ethr =  2.50E-07,  avg # of iterations =  1.5

     total cpu time spent up to now is       17.6 secs

     total energy              =    -753.45515087 Ry
     estimated scf accuracy    <       0.00004186 Ry

     total magnetization       =     3.31 Bohr mag/cell
     absolute magnetization    =     3.62 Bohr mag/cell

     iteration #  8     ecut=   110.00 Ry     beta= 0.70
     Davidson diagonalization with overlap

---- Real-time Memory Report at c_bands before calling an iterative solver
            82 MiB given to the printing process from OS
             0 MiB allocation reported by mallinfo(arena+hblkhd)
        351749 MiB available memory on the node where the printing process lives
------------------
     ethr =  1.23E-07,  avg # of iterations =  2.5
 
     Magnetic moment per site  (integrated on atomic sphere of radius R)
     atom   1 (R=0.410)  charge= 15.5846  magn=  1.7262
     atom   2 (R=0.410)  charge= 15.5846  magn=  1.7262

     total cpu time spent up to now is       19.0 secs

     End of self-consistent calculation

 ------ SPIN UP ------------


          k = 0.0000 0.0000 0.0000 (  2803 PWs)   bands (ev):

   -77.2655 -77.2073 -40.6711 -40.3706 -40.3706 -40.3355 -40.3221 -40.3221
     9.8185  13.6303  16.1942  16.2343  16.2343  16.5507  16.5507  16.9013
    16.9013  18.0170  18.0170  18.6033  25.2083

     occupation numbers 
     1.0000   1.0000   1.0000   1.0000   1.0000   1.0000   1.0000   1.0000
     1.0000   1.0000   1.0000   1.0000   1.0000   1.0000   1.0000   1.0000
     1.0000   1.0000   1.0000   1.0000   0.0000

          k = 0.0000 0.0000 0.1029 (  2833 PWs)   bands (ev):

   -77.2616 -77.2112 -40.6489 -40.3674 -40.3674 -40.3583 -40.3254 -40.3254
    10.0969  13.5610  16.1224  16.1688  16.1688  16.4762  16.4762  17.0663
    17.0663  17.6486  18.0004  18.0004  26.7301

     occupation numbers 
     1.0000   1.0000   1.0000   1.0000   1.0000   1.0000   1.0000   1.0000
     1.0000   1.0000   1.0000   1.0000   1.0000   1.0000   1.0000   1.0000
     1.0000   1.0000   1.0000   1.0000   0.0000

          k = 0.0000 0.0000 0.2058 (  2828 PWs)   bands (ev):

   -77.2510 -77.2219 -40.5882 -40.4203 -40.3585 -40.3585 -40.3343 -40.3343
    10.8949  13.1230  15.9562  16.1133  16.1133  16.3119  16.3119  16.3279
    17.3917  17.3917  17.9113  17.9113  29.9505

     occupation numbers 
     1.0000   1.0000   1.0000   1.0000   1.0000   1.0000   1.0000   1.0000
     1.0000   1.0000   1.0000   1.0000   1.0000   1.0000   1.0000   1.0000
     1.0000   1.0000   1.0000   1.0000   0.0000

          k = 0.0000 0.0000-0.3087 (  2834 PWs)   bands (ev):

   -77.2364 -77.2364 -40.5045 -40.5045 -40.3464 -40.3464 -40.3464 -40.3464
    12.0565  12.0565  15.8756  15.8756  16.1657  16.1657  16.1657  16.1657
    17.7025  17.7025  17.7025  17.7025  33.7941

     occupation numbers 
     1.0000   1.0000   1.0000   1.0000   1.0000   1.0000   1.0000   1.0000
     1.0000   1.0000   1.0000   1.0000   1.0000   1.0000   1.0000   1.0000
     1.0000   1.0000   1.0000   1.0000   0.0000

          k = 0.0000 0.0962 0.0000 (  2821 PWs)   bands (ev):

   -77.2622 -77.2058 -40.6638 -40.3867 -40.3759 -40.3388 -40.3386 -40.3248
    10.0619  13.7771  15.9882  16.3496  16.4027  16.5021  16.6528  16.7404
    16.8293  17.1980  18.0475  19.7479  25.2477

     occupation numbers 
     1.0000   1.0000   1.0000   1.0000   1.0000   1.0000   1.0000   1.0000
     1.0000   1.0000   1.0000   1.0000   1.0000   1.0000   1.0000   1.0000
     1.0000   1.0000   1.0000   0.0000   0.0000

          k = 0.0000 0.0962 0.1029 (  2823 PWs)   bands (ev):

   -77.2584 -77.2096 -40.6429 -40.3830 -40.3725 -40.3667 -40.3359 -40.3283
    10.3360  13.7225  15.9865  16.2254  16.2672  16.3168  16.5722  16.8679
    17.0215  17.1045  18.0234  18.9773  26.8386

     occupation numbers 
     1.0000   1.0000   1.0000   1.0000   1.0000   1.0000   1.0000   1.0000
     1.0000   1.0000   1.0000   1.0000   1.0000   1.0000   1.0000   1.0000
     1.0000   1.0000   1.0000   0.0000   0.0000

          k = 0.0000 0.0962 0.2058 (  2828 PWs)   bands (ev):

   -77.2481 -77.2199 -40.5855 -40.4267 -40.3726 -40.3632 -40.3449 -40.3376
    11.1213  13.3129  15.8743  15.9353  16.0355  16.2046  16.4066  16.4724
    17.3659  17.4116  17.9175  18.2124  30.1040

     occupation numbers 
     1.0000   1.0000   1.0000   1.0000   1.0000   1.0000   1.0000   1.0000
     1.0000   1.0000   1.0000   1.0000   1.0000   1.0000   1.0000   1.0000
     1.0000   1.0000   1.0000   1.0000   0.0000

          k = 0.0000 0.0962-0.3087 (  2836 PWs)   bands (ev):

   -77.2340 -77.2340 -40.5065 -40.5065 -40.3586 -40.3586 -40.3504 -40.3504
    12.2644  12.2644  15.7274  15.7275  16.1798  16.1798  16.2586  16.2586
    17.6913  17.6913  17.7950  17.7950  33.9624

     occupation numbers 
     1.0000   1.0000   1.0000   1.0000   1.0000   1.0000   1.0000   1.0000
     1.0000   1.0000   1.0000   1.0000   1.0000   1.0000   1.0000   1.0000
     1.0000   1.0000   1.0000   1.0000   0.0000

          k = 0.0000 0.1925 0.0000 (  2823 PWs)   bands (ev):

   -77.2530 -77.2018 -40.6431 -40.4309 -40.3900 -40.3840 -40.3476 -40.3325
    10.7657  14.1404  15.7127  15.9957  16.3231  16.6516  16.6753  16.7102
    16.8445  16.9392  18.1122  21.3510  25.3864

     occupation numbers 
     1.0000   1.0000   1.0000   1.0000   1.0000   1.0000   1.0000   1.0000
     1.0000   1.0000   1.0000   1.0000   1.0000   1.0000   1.0000   1.0000
     1.0000   1.0000   1.0000   0.0000   0.0000

          k = 0.0000 0.1925 0.1029 (  2818 PWs)   bands (ev):

   -77.2496 -77.2052 -40.6262 -40.4255 -40.4022 -40.3861 -40.3520 -40.3363
    11.0236  14.1307  15.7184  15.7544  16.2023  16.4790  16.5921  16.8215
    17.0024  17.0955  18.0716  20.2175  27.1917

     occupation numbers 
     1.0000   1.0000   1.0000   1.0000   1.0000   1.0000   1.0000   1.0000
     1.0000   1.0000   1.0000   1.0000   1.0000   1.0000   1.0000   1.0000
     1.0000   1.0000   1.0000   0.0000   0.0000

          k = 0.0000 0.1925 0.2058 (  2823 PWs)   bands (ev):

   -77.2403 -77.2146 -40.5800 -40.4522 -40.4083 -40.3756 -40.3663 -40.3469
    11.7592  13.8049  15.3735  15.8111  15.9165  16.4116  16.4277  16.6694
    17.3389  17.5010  17.9305  18.8625  30.5627

     occupation numbers 
     1.0000   1.0000   1.0000   1.0000   1.0000   1.0000   1.0000   1.0000
     1.0000   1.0000   1.0000   1.0000   1.0000   1.0000   1.0000   1.0000
     1.0000   1.0000   1.0000   0.0002   0.0000

          k = 0.0000 0.1925-0.3087 (  2832 PWs)   bands (ev):

   -77.2275 -77.2275 -40.5165 -40.5165 -40.3871 -40.3871 -40.3613 -40.3613
    12.8236  12.8236  15.4933  15.4933  16.1216  16.1216  16.5062  16.5062
    17.6751  17.6751  18.0439  18.0439  34.4198

     occupation numbers 
     1.0000   1.0000   1.0000   1.0000   1.0000   1.0000   1.0000   1.0000
     1.0000   1.0000   1.0000   1.0000   1.0000   1.0000   1.0000   1.0000
     1.0000   1.0000   1.0000   1.0000   0.0000

          k = 0.0000 0.2887 0.0000 (  2818 PWs)   bands (ev):

   -77.2401 -77.1968 -40.6119 -40.4917 -40.4447 -40.4086 -40.3628 -40.3434
    11.8306  14.4333  15.2646  15.5421  16.2247  16.4379  16.6425  17.1441
    17.1479  17.3509  18.1732  23.1530  25.6547

     occupation numbers 
     1.0000   1.0000   1.0000   1.0000   1.0000   1.0000   1.0000   1.0000
     1.0000   1.0000   1.0000   1.0000   1.0000   1.0000   1.0000   1.0000
     1.0000   1.0000   1.0000   0.0000   0.0000

          k = 0.0000 0.2887 0.1029 (  2814 PWs)   bands (ev):

   -77.2372 -77.1997 -40.6045 -40.4816 -40.4588 -40.4043 -40.3665 -40.3477
    12.0451  14.4776  15.1188  15.5949  16.0712  16.4765  16.6441  17.1924
    17.2689  17.3055  18.1176  21.5056  27.8239

     occupation numbers 
     1.0000   1.0000   1.0000   1.0000   1.0000   1.0000   1.0000   1.0000
     1.0000   1.0000   1.0000   1.0000   1.0000   1.0000   1.0000   1.0000
     1.0000   1.0000   1.0000   0.0000   0.0000

          k = 0.0000 0.2887 0.2058 (  2833 PWs)   bands (ev):

   -77.2293 -77.2076 -40.5815 -40.5015 -40.4466 -40.3924 -40.3821 -40.3597
    12.6425  14.2422  15.0362  15.6295  15.9365  16.4817  16.5993  17.0405
    17.4605  17.6630  17.9562  19.6409  31.1874

     occupation numbers 
     1.0000   1.0000   1.0000   1.0000   1.0000   1.0000   1.0000   1.0000
     1.0000   1.0000   1.0000   1.0000   1.0000   1.0000   1.0000   1.0000
     1.0000   1.0000   1.0000   0.0000   0.0000

          k = 0.0000 0.2887-0.3087 (  2824 PWs)   bands (ev):

   -77.2185 -77.2185 -40.5446 -40.5446 -40.4114 -40.4114 -40.3761 -40.3761
    13.4700  13.4700  15.3375  15.3375  16.1797  16.1797  16.8021  16.8021
    17.7174  17.7174  18.3924  18.3924  33.3103

     occupation numbers 
     1.0000   1.0000   1.0000   1.0000   1.0000   1.0000   1.0000   1.0000
     1.0000   1.0000   1.0000   1.0000   1.0000   1.0000   1.0000   1.0000
     1.0000   1.0000   1.0000   1.0000   0.0000

          k = 0.0000 0.3849 0.0000 (  2844 PWs)   bands (ev):

   -77.2262 -77.1928 -40.5754 -40.5530 -40.5044 -40.4269 -40.3833 -40.3547
    12.9944  14.3674  14.7360  15.6471  16.2455  16.3469  16.4608  17.6519
    17.7973  17.8371  18.2147  25.1144  25.7039

     occupation numbers 
     1.0000   1.0000   1.0000   1.0000   1.0000   1.0000   1.0000   1.0000
     1.0000   1.0000   1.0000   1.0000   1.0000   1.0000   1.0000   1.0000
     1.0000   1.0000   1.0000   0.0000   0.0000

          k = 0.0000 0.3849 0.1029 (  2832 PWs)   bands (ev):

   -77.2239 -77.1950 -40.5957 -40.5287 -40.5082 -40.4220 -40.3836 -40.3595
    13.0941  14.4001  14.7695  15.5071  16.2644  16.3389  16.8067  17.6713
    17.7042  17.7735  18.1606  22.7489  27.8597

     occupation numbers 
     1.0000   1.0000   1.0000   1.0000   1.0000   1.0000   1.0000   1.0000
     1.0000   1.0000   1.0000   1.0000   1.0000   1.0000   1.0000   1.0000
     1.0000   1.0000   1.0000   0.0000   0.0000

          k = 0.0000 0.3849 0.2058 (  2822 PWs)   bands (ev):

   -77.2178 -77.2011 -40.6028 -40.5568 -40.4635 -40.4089 -40.3930 -40.3728
    13.3744  14.2199  14.9114  15.4271  16.3626  16.6021  17.1076  17.3859
    17.7779  17.8938  18.0413  20.5301  28.9731

     occupation numbers 
     1.0000   1.0000   1.0000   1.0000   1.0000   1.0000   1.0000   1.0000
     1.0000   1.0000   1.0000   1.0000   1.0000   1.0000   1.0000   1.0000
     1.0000   1.0000   1.0000   0.0000   0.0000

          k = 0.0000 0.3849-0.3087 (  2822 PWs)   bands (ev):

   -77.2095 -77.2095 -40.5877 -40.5877 -40.4204 -40.4204 -40.3908 -40.3908
    13.7849  13.7849  15.2093  15.2093  16.7805  16.7805  16.9824  16.9824
    17.9045  17.9045  18.8744  18.8744  30.0967

     occupation numbers 
     1.0000   1.0000   1.0000   1.0000   1.0000   1.0000   1.0000   1.0000
     1.0000   1.0000   1.0000   1.0000   1.0000   1.0000   1.0000   1.0000
     1.0000   1.0000   0.0000   0.0000   0.0000

          k = 0.0000 0.4811 0.0000 (  2832 PWs)   bands (ev):

   -77.2147 -77.1910 -40.5982 -40.5473 -40.5417 -40.4400 -40.4054 -40.3631
    13.7646  14.1783  14.4201  16.0034  16.1142  16.3322  16.5527  18.0292
    18.1670  18.2368  18.9560  23.8641  27.1371

     occupation numbers 
     1.0000   1.0000   1.0000   1.0000   1.0000   1.0000   1.0000   1.0000
     1.0000   1.0000   1.0000   1.0000   1.0000   1.0000   1.0000   1.0000
     1.0000   1.0000   0.0000   0.0000   0.0000

          k = 0.0000 0.4811 0.1029 (  2832 PWs)   bands (ev):

   -77.2131 -77.1926 -40.6172 -40.5651 -40.5087 -40.4348 -40.4014 -40.3683
    13.6555  14.1747  14.7359  15.4012  16.2283  16.5512  17.1599  17.9673
    18.0642  18.2383  18.7935  23.0747  26.4649

     occupation numbers 
     1.0000   1.0000   1.0000   1.0000   1.0000   1.0000   1.0000   1.0000
     1.0000   1.0000   1.0000   1.0000   1.0000   1.0000   1.0000   1.0000
     1.0000   1.0000   0.9999   0.0000   0.0000

          k = 0.0000 0.4811 0.2058 (  2826 PWs)   bands (ev):

   -77.2088 -77.1969 -40.6320 -40.5980 -40.4601 -40.4208 -40.4022 -40.3824
    13.6238  14.1035  14.8982  15.2301  16.5523  16.7973  17.5510  18.0953
    18.1383  18.2036  18.4601  21.3536  26.6048

     occupation numbers 
     1.0000   1.0000   1.0000   1.0000   1.0000   1.0000   1.0000   1.0000
     1.0000   1.0000   1.0000   1.0000   1.0000   1.0000   1.0000   1.0000
     1.0000   1.0000   1.0000   0.0000   0.0000

          k = 0.0000 0.4811-0.3087 (  2826 PWs)   bands (ev):

   -77.2029 -77.2029 -40.6246 -40.6246 -40.4215 -40.4215 -40.4016 -40.4016
    13.8098  13.8098  15.0865  15.0865  17.0279  17.0279  17.5135  17.5135
    18.1498  18.1498  19.6956  19.6956  27.3845

     occupation numbers 
     1.0000   1.0000   1.0000   1.0000   1.0000   1.0000   1.0000   1.0000
     1.0000   1.0000   1.0000   1.0000   1.0000   1.0000   1.0000   1.0000
     1.0000   1.0000   0.0000   0.0000   0.0000

          k = 0.0000-0.5774 0.0000 (  2838 PWs)   bands (ev):

   -77.2100 -77.1909 -40.6148 -40.5629 -40.5259 -40.4447 -40.4169 -40.3663
    14.0262  14.0372  14.3153  16.0677  16.2518  16.2858  16.6297  18.1656
    18.2434  18.3168  20.1129  22.1402  28.4475

     occupation numbers 
     1.0000   1.0000   1.0000   1.0000   1.0000   1.0000   1.0000   1.0000
     1.0000   1.0000   1.0000   1.0000   1.0000   1.0000   1.0000   1.0000
     1.0000   1.0000   0.0000   0.0000   0.0000

          k = 0.0000-0.5774 0.1029 (  2832 PWs)   bands (ev):

   -77.2087 -77.1922 -40.6300 -40.5799 -40.4999 -40.4395 -40.4106 -40.3715
    13.7579  14.0772  14.7713  15.3733  16.1878  16.6397  17.3617  18.0296
    18.2120  18.3089  19.8992  21.9598  27.5838

     occupation numbers 
     1.0000   1.0000   1.0000   1.0000   1.0000   1.0000   1.0000   1.0000
     1.0000   1.0000   1.0000   1.0000   1.0000   1.0000   1.0000   1.0000
     1.0000   1.0000   0.0000   0.0000   0.0000

          k = 0.0000-0.5774 0.2058 (  2844 PWs)   bands (ev):

   -77.2052 -77.1957 -40.6446 -40.6131 -40.4556 -40.4252 -40.4067 -40.3859
    13.6442  14.0578  14.9236  15.1399  16.5292  16.9426  17.5860  18.2284
    18.2564  18.2873  19.5575  21.3528  26.5264

     occupation numbers 
     1.0000   1.0000   1.0000   1.0000   1.0000   1.0000   1.0000   1.0000
     1.0000   1.0000   1.0000   1.0000   1.0000   1.0000   1.0000   1.0000
     1.0000   1.0000   0.0000   0.0000   0.0000

          k = 0.0000-0.5774-0.3087 (  2840 PWs)   bands (ev):

   -77.2004 -77.2004 -40.6387 -40.6387 -40.4212 -40.4212 -40.4056 -40.4056
    13.7927  13.7928  15.0382  15.0382  17.0317  17.0317  17.7600  17.7600
    18.2577  18.2577  20.3401  20.3401  26.1315

     occupation numbers 
     1.0000   1.0000   1.0000   1.0000   1.0000   1.0000   1.0000   1.0000
     1.0000   1.0000   1.0000   1.0000   1.0000   1.0000   1.0000   1.0000
     1.0000   1.0000   0.0000   0.0000   0.0000

          k = 0.0833 0.1443 0.0000 (  2824 PWs)   bands (ev):

   -77.2560 -77.2030 -40.6498 -40.4141 -40.3923 -40.3636 -40.3446 -40.3321
    10.5364  14.0380  15.7717  16.2447  16.3947  16.5588  16.5850  16.6213
    16.8775  16.9674  18.0849  20.9024  25.3387

     occupation numbers 
     1.0000   1.0000   1.0000   1.0000   1.0000   1.0000   1.0000   1.0000
     1.0000   1.0000   1.0000   1.0000   1.0000   1.0000   1.0000   1.0000
     1.0000   1.0000   1.0000   0.0000   0.0000

          k = 0.0833 0.1443 0.1029 (  2826 PWs)   bands (ev):

   -77.2524 -77.2066 -40.6315 -40.4092 -40.3956 -40.3785 -40.3465 -40.3358
    10.8004  14.0137  15.7984  15.9079  16.2469  16.4370  16.5673  16.7369
    17.0261  17.0822  18.0524  19.8811  27.0714

     occupation numbers 
     1.0000   1.0000   1.0000   1.0000   1.0000   1.0000   1.0000   1.0000
     1.0000   1.0000   1.0000   1.0000   1.0000   1.0000   1.0000   1.0000
     1.0000   1.0000   1.0000   0.0000   0.0000

          k = 0.0833 0.1443 0.2058 (  2815 PWs)   bands (ev):

   -77.2428 -77.2163 -40.5813 -40.4427 -40.3958 -40.3758 -40.3567 -40.3457
    11.5552  13.6604  15.4987  15.8595  15.9280  16.3604  16.4272  16.5878
    17.3687  17.4457  17.9297  18.6742  30.4130

     occupation numbers 
     1.0000   1.0000   1.0000   1.0000   1.0000   1.0000   1.0000   1.0000
     1.0000   1.0000   1.0000   1.0000   1.0000   1.0000   1.0000   1.0000
     1.0000   1.0000   1.0000   1.0000   0.0000

          k = 0.0833 0.1443-0.3087 (  2834 PWs)   bands (ev):

   -77.2295 -77.2295 -40.5123 -40.5123 -40.3787 -40.3787 -40.3583 -40.3583
    12.6515  12.6515  15.5525  15.5525  16.1225  16.1225  16.4412  16.4412
    17.6806  17.6806  17.9662  17.9662  34.2862

     occupation numbers 
     1.0000   1.0000   1.0000   1.0000   1.0000   1.0000   1.0000   1.0000
     1.0000   1.0000   1.0000   1.0000   1.0000   1.0000   1.0000   1.0000
     1.0000   1.0000   1.0000   1.0000   0.0000

          k = 0.0833 0.2406 0.0000 (  2816 PWs)   bands (ev):

   -77.2449 -77.1986 -40.6238 -40.4627 -40.4331 -40.3928 -40.3568 -40.3445
    11.4292  14.4109  15.4960  15.5327  16.2689  16.3927  16.8157  16.8182
    17.0143  17.2989  18.1308  22.5034  25.5640

     occupation numbers 
     1.0000   1.0000   1.0000   1.0000   1.0000   1.0000   1.0000   1.0000
     1.0000   1.0000   1.0000   1.0000   1.0000   1.0000   1.0000   1.0000
     1.0000   1.0000   1.0000   0.0000   0.0000

          k = 0.0833 0.2406 0.1029 (  2818 PWs)   bands (ev):

   -77.2418 -77.2017 -40.6118 -40.4555 -40.4419 -40.3973 -40.3593 -40.3483
    11.6655  14.4461  15.3192  15.5465  16.1469  16.4148  16.6254  16.9460
    17.2110  17.2804  18.0924  21.0626  27.5866

     occupation numbers 
     1.0000   1.0000   1.0000   1.0000   1.0000   1.0000   1.0000   1.0000
     1.0000   1.0000   1.0000   1.0000   1.0000   1.0000   1.0000   1.0000
     1.0000   1.0000   1.0000   0.0000   0.0000

          k = 0.0833 0.2406 0.2058 (  2827 PWs)   bands (ev):

   -77.2333 -77.2102 -40.5784 -40.4810 -40.4309 -40.3953 -40.3703 -40.3588
    12.3330  14.1826  15.1201  15.6539  15.8773  16.3066  16.5764  16.9098
    17.4587  17.5754  17.9692  19.3710  31.0151

     occupation numbers 
     1.0000   1.0000   1.0000   1.0000   1.0000   1.0000   1.0000   1.0000
     1.0000   1.0000   1.0000   1.0000   1.0000   1.0000   1.0000   1.0000
     1.0000   1.0000   1.0000   0.0000   0.0000

          k = 0.0833 0.2406-0.3087 (  2824 PWs)   bands (ev):

   -77.2218 -77.2218 -40.5309 -40.5309 -40.4048 -40.4048 -40.3718 -40.3718
    13.2839  13.2839  15.3936  15.3936  16.0167  16.0167  16.7241  16.7241
    17.7247  17.7247  18.2677  18.2677  34.6411

     occupation numbers 
     1.0000   1.0000   1.0000   1.0000   1.0000   1.0000   1.0000   1.0000
     1.0000   1.0000   1.0000   1.0000   1.0000   1.0000   1.0000   1.0000
     1.0000   1.0000   1.0000   1.0000   0.0000

          k = 0.0833 0.3368 0.0000 (  2816 PWs)   bands (ev):

   -77.2314 -77.1941 -40.5897 -40.5223 -40.4842 -40.4195 -40.3749 -40.3580
    12.5803  14.5351  14.9536  15.4211  16.2017  16.2762  16.6160  17.2289
    17.5240  17.8703  18.1693  24.3468  25.9024

     occupation numbers 
     1.0000   1.0000   1.0000   1.0000   1.0000   1.0000   1.0000   1.0000
     1.0000   1.0000   1.0000   1.0000   1.0000   1.0000   1.0000   1.0000
     1.0000   1.0000   1.0000   0.0000   0.0000

          k = 0.0833 0.3368 0.1029 (  2826 PWs)   bands (ev):

   -77.2289 -77.1966 -40.5933 -40.5094 -40.4896 -40.4192 -40.3760 -40.3612
    12.7452  14.6020  14.8590  15.4711  16.0585  16.4321  16.5911  17.2545
    17.6148  17.7339  18.1756  22.3324  28.3098

     occupation numbers 
     1.0000   1.0000   1.0000   1.0000   1.0000   1.0000   1.0000   1.0000
     1.0000   1.0000   1.0000   1.0000   1.0000   1.0000   1.0000   1.0000
     1.0000   1.0000   1.0000   0.0000   0.0000

          k = 0.0833 0.3368 0.2058 (  2820 PWs)   bands (ev):

   -77.2221 -77.2034 -40.5886 -40.5329 -40.4578 -40.4129 -40.3856 -40.3711
    13.1914  14.3620  14.9662  15.5486  15.9670  16.4517  16.6486  17.2425
    17.6885  17.8526  18.1393  20.2308  30.6108

     occupation numbers 
     1.0000   1.0000   1.0000   1.0000   1.0000   1.0000   1.0000   1.0000
     1.0000   1.0000   1.0000   1.0000   1.0000   1.0000   1.0000   1.0000
     1.0000   1.0000   1.0000   0.0000   0.0000

          k = 0.0833 0.3368-0.3087 (  2836 PWs)   bands (ev):

   -77.2128 -77.2128 -40.5665 -40.5665 -40.4218 -40.4218 -40.3862 -40.3862
    13.7880  13.7880  15.3134  15.3134  16.1893  16.1893  16.9217  16.9217
    17.9252  17.9252  18.7288  18.7288  31.8109

     occupation numbers 
     1.0000   1.0000   1.0000   1.0000   1.0000   1.0000   1.0000   1.0000
     1.0000   1.0000   1.0000   1.0000   1.0000   1.0000   1.0000   1.0000
     1.0000   1.0000   1.0000   1.0000   0.0000

          k = 0.0833 0.4330 0.0000 (  2834 PWs)   bands (ev):

   -77.2186 -77.1913 -40.5752 -40.5536 -40.5289 -40.4405 -40.3972 -40.3695
    13.5969  14.3601  14.5621  15.6473  16.0797  16.4164  16.4695  17.7458
    17.9591  18.1929  18.6721  25.2007  26.3473

     occupation numbers 
     1.0000   1.0000   1.0000   1.0000   1.0000   1.0000   1.0000   1.0000
     1.0000   1.0000   1.0000   1.0000   1.0000   1.0000   1.0000   1.0000
     1.0000   1.0000   1.0000   0.0000   0.0000

          k = 0.0833 0.4330 0.1029 (  2835 PWs)   bands (ev):

   -77.2167 -77.1932 -40.6006 -40.5489 -40.5103 -40.4371 -40.3953 -40.3726
    13.5900  14.3842  14.7146  15.4107  16.1570  16.4888  16.7625  17.6942
    18.0070  18.0209  18.6733  23.4055  26.9863

     occupation numbers 
     1.0000   1.0000   1.0000   1.0000   1.0000   1.0000   1.0000   1.0000
     1.0000   1.0000   1.0000   1.0000   1.0000   1.0000   1.0000   1.0000
     1.0000   1.0000   1.0000   0.0000   0.0000

          k = 0.0833 0.4330 0.2058 (  2828 PWs)   bands (ev):

   -77.2118 -77.1982 -40.6146 -40.5790 -40.4646 -40.4250 -40.4011 -40.3804
    13.6737  14.2552  14.9021  15.3847  16.2639  16.6967  17.1473  17.4367
    17.8725  18.1830  18.7364  21.2485  27.7051

     occupation numbers 
     1.0000   1.0000   1.0000   1.0000   1.0000   1.0000   1.0000   1.0000
     1.0000   1.0000   1.0000   1.0000   1.0000   1.0000   1.0000   1.0000
     1.0000   1.0000   1.0000   0.0000   0.0000

          k = 0.0833 0.4330-0.3087 (  2826 PWs)   bands (ev):

   -77.2050 -77.2050 -40.6058 -40.6058 -40.4305 -40.4305 -40.3961 -40.3961
    13.9204  13.9204  15.1961  15.1961  16.7069  16.7069  17.1012  17.1012
    18.1330  18.1330  19.5710  19.5710  28.7503

     occupation numbers 
     1.0000   1.0000   1.0000   1.0000   1.0000   1.0000   1.0000   1.0000
     1.0000   1.0000   1.0000   1.0000   1.0000   1.0000   1.0000   1.0000
     1.0000   1.0000   0.0000   0.0000   0.0000

          k = 0.0833 0.5292 0.0000 (  2826 PWs)   bands (ev):

   -77.2100 -77.1909 -40.6058 -40.5547 -40.5261 -40.4522 -40.4167 -40.3762
    14.0539  14.1962  14.3663  16.0111  16.0341  16.2815  16.6270  18.1182
    18.1927  18.2032  19.9472  22.9067  28.2552

     occupation numbers 
     1.0000   1.0000   1.0000   1.0000   1.0000   1.0000   1.0000   1.0000
     1.0000   1.0000   1.0000   1.0000   1.0000   1.0000   1.0000   1.0000
     1.0000   1.0000   0.0000   0.0000   0.0000

          k = 0.0833 0.5292 0.1029 (  2837 PWs)   bands (ev):

   -77.2087 -77.1922 -40.6212 -40.5722 -40.5014 -40.4455 -40.4119 -40.3794
    13.8388  14.2095  14.8027  15.3548  16.0851  16.6817  17.0241  17.9756
    18.1457  18.2245  19.8774  22.6412  26.9974

     occupation numbers 
     1.0000   1.0000   1.0000   1.0000   1.0000   1.0000   1.0000   1.0000
     1.0000   1.0000   1.0000   1.0000   1.0000   1.0000   1.0000   1.0000
     1.0000   1.0000   0.0000   0.0000   0.0000

          k = 0.0833 0.5292 0.2058 (  2834 PWs)   bands (ev):

   -77.2052 -77.1957 -40.6359 -40.6052 -40.4639 -40.4263 -40.4141 -40.3860
    13.7485  14.1856  14.9313  15.2474  16.2591  17.0048  17.4256  17.6802
    18.1033  18.2990  19.9126  21.7777  26.2723

     occupation numbers 
     1.0000   1.0000   1.0000   1.0000   1.0000   1.0000   1.0000   1.0000
     1.0000   1.0000   1.0000   1.0000   1.0000   1.0000   1.0000   1.0000
     1.0000   1.0000   0.0000   0.0000   0.0000

          k = 0.0833 0.5292-0.3087 (  2826 PWs)   bands (ev):

   -77.2004 -77.2004 -40.6304 -40.6304 -40.4352 -40.4352 -40.4000 -40.4000
    13.9069  13.9069  15.1109  15.1109  16.8140  16.8140  17.5355  17.5355
    18.1741  18.1741  20.6495  20.6496  26.5469

     occupation numbers 
     1.0000   1.0000   1.0000   1.0000   1.0000   1.0000   1.0000   1.0000
     1.0000   1.0000   1.0000   1.0000   1.0000   1.0000   1.0000   1.0000
     1.0000   1.0000   0.0000   0.0000   0.0000

          k = 0.1667 0.2887 0.0000 (  2812 PWs)   bands (ev):

   -77.2333 -77.1946 -40.5946 -40.4980 -40.4886 -40.4111 -40.3721 -40.3662
    12.4343  14.7131  15.0685  15.1982  16.1289  16.2771  16.7131  16.9873
    17.5110  17.8923  18.1298  24.0875  25.9468

     occupation numbers 
     1.0000   1.0000   1.0000   1.0000   1.0000   1.0000   1.0000   1.0000
     1.0000   1.0000   1.0000   1.0000   1.0000   1.0000   1.0000   1.0000
     1.0000   1.0000   1.0000   0.0000   0.0000

          k = 0.1667 0.2887 0.1029 (  2813 PWs)   bands (ev):

   -77.2307 -77.1972 -40.5934 -40.4963 -40.4827 -40.4191 -40.3703 -40.3691
    12.6212  14.8097  14.9253  15.2520  16.0954  16.2874  16.5916  17.0736
    17.6305  17.7247  18.1879  22.1944  28.3105

     occupation numbers 
     1.0000   1.0000   1.0000   1.0000   1.0000   1.0000   1.0000   1.0000
     1.0000   1.0000   1.0000   1.0000   1.0000   1.0000   1.0000   1.0000
     1.0000   1.0000   1.0000   0.0000   0.0000

          k = 0.1667 0.2887 0.2058 (  2820 PWs)   bands (ev):

   -77.2236 -77.2043 -40.5824 -40.5226 -40.4496 -40.4224 -40.3803 -40.3739
    13.1332  14.4840  15.0730  15.4074  15.9137  16.1496  16.5893  17.1796
    17.6991  17.8338  18.2160  20.1542  31.6832

     occupation numbers 
     1.0000   1.0000   1.0000   1.0000   1.0000   1.0000   1.0000   1.0000
     1.0000   1.0000   1.0000   1.0000   1.0000   1.0000   1.0000   1.0000
     1.0000   1.0000   1.0000   0.0000   0.0000

          k = 0.1667 0.2887-0.3087 (  2816 PWs)   bands (ev):

   -77.2140 -77.2140 -40.5567 -40.5567 -40.4236 -40.4236 -40.3853 -40.3853
    13.8242  13.8242  15.3997  15.3997  15.8617  15.8617  16.8704  16.8704
    17.9757  17.9757  18.7088  18.7088  33.5300

     occupation numbers 
     1.0000   1.0000   1.0000   1.0000   1.0000   1.0000   1.0000   1.0000
     1.0000   1.0000   1.0000   1.0000   1.0000   1.0000   1.0000   1.0000
     1.0000   1.0000   1.0000   1.0000   0.0000

          k = 0.1667 0.3849 0.0000 (  2830 PWs)   bands (ev):

   -77.2207 -77.1916 -40.5600 -40.5450 -40.5227 -40.4395 -40.3930 -40.3871
    13.5369  14.7001  14.7051  15.1680  15.9696  16.4209  16.5169  17.3020
    17.9579  18.1251  18.7013  25.9515  26.3147

     occupation numbers 
     1.0000   1.0000   1.0000   1.0000   1.0000   1.0000   1.0000   1.0000
     1.0000   1.0000   1.0000   1.0000   1.0000   1.0000   1.0000   1.0000
     1.0000   1.0000   1.0000   0.0000   0.0000

          k = 0.1667 0.3849 0.1029 (  2829 PWs)   bands (ev):

   -77.2187 -77.1936 -40.5839 -40.5410 -40.4994 -40.4461 -40.3944 -40.3824
    13.6153  14.6358  14.8020  15.2516  16.0209  16.4055  16.4698  17.3369
    17.9069  18.0476  18.7897  23.4892  28.4254

     occupation numbers 
     1.0000   1.0000   1.0000   1.0000   1.0000   1.0000   1.0000   1.0000
     1.0000   1.0000   1.0000   1.0000   1.0000   1.0000   1.0000   1.0000
     1.0000   1.0000   1.0000   0.0000   0.0000

          k = 0.1667 0.3849 0.2058 (  2826 PWs)   bands (ev):

   -77.2134 -77.1989 -40.5961 -40.5630 -40.4620 -40.4438 -40.4018 -40.3803
    13.8296  14.4329  15.0515  15.4871  15.9371  16.2368  16.6085  17.3066
    17.8075  18.2006  18.9716  21.2705  29.4073

     occupation numbers 
     1.0000   1.0000   1.0000   1.0000   1.0000   1.0000   1.0000   1.0000
     1.0000   1.0000   1.0000   1.0000   1.0000   1.0000   1.0000   1.0000
     1.0000   1.0000   0.0000   0.0000   0.0000

          k = 0.1667 0.3849-0.3087 (  2824 PWs)   bands (ev):

   -77.2062 -77.2062 -40.5870 -40.5870 -40.4432 -40.4432 -40.3933 -40.3933
    14.1286  14.1286  15.3971  15.3971  16.0163  16.0163  16.8872  16.8872
    18.1874  18.1874  19.6668  19.6668  30.5623

     occupation numbers 
     1.0000   1.0000   1.0000   1.0000   1.0000   1.0000   1.0000   1.0000
     1.0000   1.0000   1.0000   1.0000   1.0000   1.0000   1.0000   1.0000
     1.0000   1.0000   0.0000   0.0000   0.0000

          k = 0.1667 0.4811 0.0000 (  2840 PWs)   bands (ev):

   -77.2101 -77.1908 -40.5825 -40.5396 -40.5265 -40.4662 -40.4163 -40.4013
    14.2370  14.4810  14.4979  15.4769  15.9270  16.3022  16.6242  17.7196
    18.1208  18.1781  19.8794  24.5688  27.9699

     occupation numbers 
     1.0000   1.0000   1.0000   1.0000   1.0000   1.0000   1.0000   1.0000
     1.0000   1.0000   1.0000   1.0000   1.0000   1.0000   1.0000   1.0000
     1.0000   1.0000   0.0000   0.0000   0.0000

          k = 0.1667 0.4811 0.1029 (  2841 PWs)   bands (ev):

   -77.2088 -77.1921 -40.5982 -40.5597 -40.5012 -40.4613 -40.4167 -40.3951
    14.0791  14.5601  14.7474  15.2961  15.9773  16.4364  16.6965  17.7045
    17.9227  18.2409  19.9620  24.0081  26.7969

     occupation numbers 
     1.0000   1.0000   1.0000   1.0000   1.0000   1.0000   1.0000   1.0000
     1.0000   1.0000   1.0000   1.0000   1.0000   1.0000   1.0000   1.0000
     1.0000   1.0000   0.0000   0.0000   0.0000

          k = 0.1667 0.4811 0.2058 (  2832 PWs)   bands (ev):

   -77.2052 -77.1956 -40.6143 -40.5886 -40.4799 -40.4454 -40.4168 -40.3870
    14.0383  14.4806  14.9472  15.4969  15.8687  16.5612  16.9183  17.3948
    17.8956  18.3185  20.2717  22.4824  26.8779

     occupation numbers 
     1.0000   1.0000   1.0000   1.0000   1.0000   1.0000   1.0000   1.0000
     1.0000   1.0000   1.0000   1.0000   1.0000   1.0000   1.0000   1.0000
     1.0000   1.0000   0.0000   0.0000   0.0000

          k = 0.1667 0.4811-0.3087 (  2824 PWs)   bands (ev):

   -77.2004 -77.2004 -40.6108 -40.6108 -40.4595 -40.4595 -40.3955 -40.3955
    14.1959  14.1959  15.2950  15.2950  16.2812  16.2812  17.0760  17.0760
    18.1919  18.1919  21.0764  21.0764  27.7572

     occupation numbers 
     1.0000   1.0000   1.0000   1.0000   1.0000   1.0000   1.0000   1.0000
     1.0000   1.0000   1.0000   1.0000   1.0000   1.0000   1.0000   1.0000
     1.0000   1.0000   0.0000   0.0000   0.0000

          k = 0.1667 0.5774 0.0000 (  2840 PWs)   bands (ev):

   -77.2053 -77.1914 -40.5961 -40.5447 -40.5095 -40.4773 -40.4295 -40.4063
    14.3985  14.4059  14.4122  15.6983  15.9479  16.1877  16.7113  18.0035
    18.1189  18.1529  21.1394  22.7277  29.1645

     occupation numbers 
     1.0000   1.0000   1.0000   1.0000   1.0000   1.0000   1.0000   1.0000
     1.0000   1.0000   1.0000   1.0000   1.0000   1.0000   1.0000   1.0000
     1.0000   1.0000   0.0000   0.0000   0.0000

          k = 0.1667 0.5774 0.1029 (  2839 PWs)   bands (ev):

   -77.2044 -77.1923 -40.6083 -40.5632 -40.5040 -40.4569 -40.4304 -40.4004
    14.1034  14.4741  14.9145  15.2770  15.8990  16.5569  16.7885  17.8943
    18.0000  18.2061  21.2363  22.6749  28.0898

     occupation numbers 
     1.0000   1.0000   1.0000   1.0000   1.0000   1.0000   1.0000   1.0000
     1.0000   1.0000   1.0000   1.0000   1.0000   1.0000   1.0000   1.0000
     1.0000   1.0000   0.0000   0.0000   0.0000

          k = 0.1667 0.5774 0.2058 (  2836 PWs)   bands (ev):

   -77.2018 -77.1949 -40.6229 -40.5965 -40.4879 -40.4441 -40.4212 -40.3903
    14.0353  14.4924  14.9849  15.4533  15.7847  16.7634  17.0423  17.4657
    18.0163  18.2460  21.5379  22.4668  26.8169

     occupation numbers 
     1.0000   1.0000   1.0000   1.0000   1.0000   1.0000   1.0000   1.0000
     1.0000   1.0000   1.0000   1.0000   1.0000   1.0000   1.0000   1.0000
     1.0000   1.0000   0.0000   0.0000   0.0000

          k = 0.1667 0.5774-0.3087 (  2830 PWs)   bands (ev):

   -77.1984 -77.1984 -40.6197 -40.6197 -40.4658 -40.4658 -40.3958 -40.3958
    14.1987  14.1987  15.2542  15.2542  16.3216  16.3216  17.2819  17.2819
    18.1292  18.1292  22.0301  22.0301  26.3340

     occupation numbers 
     1.0000   1.0000   1.0000   1.0000   1.0000   1.0000   1.0000   1.0000
     1.0000   1.0000   1.0000   1.0000   1.0000   1.0000   1.0000   1.0000
     1.0000   1.0000   0.0000   0.0000   0.0000

          k = 0.2500 0.4330 0.0000 (  2852 PWs)   bands (ev):

   -77.2101 -77.1908 -40.5621 -40.5406 -40.5267 -40.4672 -40.4199 -40.4161
    14.3702  14.5472  14.8987  14.9448  15.8577  16.3210  16.6326  17.4844
    18.0783  18.1829  19.8903  26.3272  27.1033

     occupation numbers 
     1.0000   1.0000   1.0000   1.0000   1.0000   1.0000   1.0000   1.0000
     1.0000   1.0000   1.0000   1.0000   1.0000   1.0000   1.0000   1.0000
     1.0000   1.0000   0.0000   0.0000   0.0000

          k = 0.2500 0.4330 0.1029 (  2841 PWs)   bands (ev):

   -77.2088 -77.1921 -40.5750 -40.5664 -40.4866 -40.4809 -40.4227 -40.4008
    14.3747  14.4982  14.9571  15.0812  16.0093  16.1735  16.6266  17.5210
    17.8691  18.2485  20.0158  24.7918  27.3871

     occupation numbers 
     1.0000   1.0000   1.0000   1.0000   1.0000   1.0000   1.0000   1.0000
     1.0000   1.0000   1.0000   1.0000   1.0000   1.0000   1.0000   1.0000
     1.0000   1.0000   0.0000   0.0000   0.0000

          k = 0.2500 0.4330 0.2058 (  2833 PWs)   bands (ev):

   -77.2053 -77.1956 -40.5979 -40.5826 -40.4856 -40.4623 -40.4164 -40.3875
    14.3749  14.4436  15.1256  15.4693  15.8438  16.1202  16.6615  17.3061
    17.8638  18.3260  20.3914  22.7632  28.1710

     occupation numbers 
     1.0000   1.0000   1.0000   1.0000   1.0000   1.0000   1.0000   1.0000
     1.0000   1.0000   1.0000   1.0000   1.0000   1.0000   1.0000   1.0000
     1.0000   1.0000   0.0000   0.0000   0.0000

          k = 0.2500 0.4330-0.3087 (  2832 PWs)   bands (ev):

   -77.2004 -77.2004 -40.5987 -40.5987 -40.4731 -40.4731 -40.3942 -40.3942
    14.3988  14.3988  15.4495  15.4496  15.9018  15.9018  16.8736  16.8736
    18.2118  18.2118  21.2370  21.2370  29.1986

     occupation numbers 
     1.0000   1.0000   1.0000   1.0000   1.0000   1.0000   1.0000   1.0000
     1.0000   1.0000   1.0000   1.0000   1.0000   1.0000   1.0000   1.0000
     1.0000   1.0000   0.0000   0.0000   0.0000

          k = 0.2500 0.5292 0.0000 (  2852 PWs)   bands (ev):

   -77.2021 -77.1922 -40.5752 -40.5314 -40.4973 -40.4969 -40.4409 -40.4400
    14.4737  14.6642  14.7613  15.2598  15.8760  16.1170  16.8022  17.7656
    18.0508  18.1220  21.5480  24.1214  26.4503

     occupation numbers 
     1.0000   1.0000   1.0000   1.0000   1.0000   1.0000   1.0000   1.0000
     1.0000   1.0000   1.0000   1.0000   1.0000   1.0000   1.0000   1.0000
     1.0000   1.0000   0.0000   0.0000   0.0000

          k = 0.2500 0.5292 0.1029 (  2842 PWs)   bands (ev):

   -77.2015 -77.1929 -40.5820 -40.5552 -40.5166 -40.4654 -40.4456 -40.4168
    14.4165  14.7914  14.8864  15.1574  15.9031  16.1180  16.8091  17.7735
    17.8439  18.1673  21.7362  24.1380  26.4881

     occupation numbers 
     1.0000   1.0000   1.0000   1.0000   1.0000   1.0000   1.0000   1.0000
     1.0000   1.0000   1.0000   1.0000   1.0000   1.0000   1.0000   1.0000
     1.0000   1.0000   0.0000   0.0000   0.0000

          k = 0.2500 0.5292 0.2058 (  2835 PWs)   bands (ev):

   -77.1996 -77.1947 -40.5986 -40.5837 -40.5151 -40.4737 -40.4152 -40.3950
    14.4336  14.7893  15.0494  15.3480  15.7656  16.1356  16.8566  17.3336
    17.9345  18.2095  22.2326  23.8381  26.4233

     occupation numbers 
     1.0000   1.0000   1.0000   1.0000   1.0000   1.0000   1.0000   1.0000
     1.0000   1.0000   1.0000   1.0000   1.0000   1.0000   1.0000   1.0000
     1.0000   1.0000   0.0000   0.0000   0.0000

          k = 0.2500 0.5292-0.3087 (  2830 PWs)   bands (ev):

   -77.1971 -77.1971 -40.6013 -40.6013 -40.4957 -40.4957 -40.3935 -40.3935
    14.5718  14.5718  15.3443  15.3444  15.9084  15.9084  16.9886  16.9886
    18.1205  18.1205  22.9985  22.9985  26.9698

     occupation numbers 
     1.0000   1.0000   1.0000   1.0000   1.0000   1.0000   1.0000   1.0000
     1.0000   1.0000   1.0000   1.0000   1.0000   1.0000   1.0000   1.0000
     1.0000   1.0000   0.0000   0.0000   0.0000

          k = 0.3333 0.5774 0.0000 (  2850 PWs)   bands (ev):

   -77.1960 -77.1959 -40.5658 -40.5169 -40.5169 -40.4674 -40.4674 -40.4656
    14.4826  14.8607  14.8607  15.1419  15.9481  15.9481  16.9024  17.9140
    17.9140  18.0229  23.2844  24.1226  24.1226

     occupation numbers 
     1.0000   1.0000   1.0000   1.0000   1.0000   1.0000   1.0000   1.0000
     1.0000   1.0000   1.0000   1.0000   1.0000   1.0000   1.0000   1.0000
     1.0000   1.0000   0.0000   0.0000   0.0000

          k = 0.3333 0.5774 0.1029 (  2847 PWs)   bands (ev):

   -77.1960 -77.1959 -40.5591 -40.5461 -40.5461 -40.4723 -40.4380 -40.4380
    14.5780  14.8833  14.8833  15.1614  15.9219  15.9219  16.8745  17.7862
    17.9556  17.9556  23.6863  24.1952  24.1952

     occupation numbers 
     1.0000   1.0000   1.0000   1.0000   1.0000   1.0000   1.0000   1.0000
     1.0000   1.0000   1.0000   1.0000   1.0000   1.0000   1.0000   1.0000
     1.0000   1.0000   0.0000   0.0000   0.0000

          k = 0.3333 0.5774 0.2058 (  2838 PWs)   bands (ev):

   -77.1959 -77.1959 -40.5788 -40.5788 -40.5408 -40.4907 -40.4051 -40.4051
    14.8215  14.9267  14.9267  15.1763  15.8762  15.8762  16.8382  17.3021
    18.0347  18.0347  24.3752  24.3752  24.7138

     occupation numbers 
     1.0000   1.0000   1.0000   1.0000   1.0000   1.0000   1.0000   1.0000
     1.0000   1.0000   1.0000   1.0000   1.0000   1.0000   1.0000   1.0000
     1.0000   1.0000   0.0000   0.0000   0.0000

          k = 0.3333 0.5774-0.3087 (  2814 PWs)   bands (ev):

   -77.1959 -77.1959 -40.5911 -40.5911 -40.5158 -40.5158 -40.3926 -40.3926
    14.9474  14.9474  15.0732  15.0732  15.8567  15.8567  16.9374  16.9374
    18.0723  18.0723  24.4910  24.4910  26.1254

     occupation numbers 
     1.0000   1.0000   1.0000   1.0000   1.0000   1.0000   1.0000   1.0000
     1.0000   1.0000   1.0000   1.0000   1.0000   1.0000   1.0000   1.0000
     1.0000   1.0000   0.0000   0.0000   0.0000

 ------ SPIN DOWN ----------


          k = 0.0000 0.0000 0.0000 (  2803 PWs)   bands (ev):

   -75.1519 -75.0893 -38.6311 -38.3111 -38.3111 -38.2650 -38.2589 -38.2589
     9.8218  14.5987  17.8789  17.9245  17.9245  18.2973  18.2973  18.5471
    18.7267  18.7267  19.9670  19.9670  26.2750

     occupation numbers 
     1.0000   1.0000   1.0000   1.0000   1.0000   1.0000   1.0000   1.0000
     1.0000   1.0000   1.0000   1.0000   1.0000   1.0000   1.0000   1.0000
     1.0000   1.0000   0.0000   0.0000   0.0000

          k = 0.0000 0.0000 0.1029 (  2833 PWs)   bands (ev):

   -75.1477 -75.0935 -38.6069 -38.3076 -38.3076 -38.2899 -38.2624 -38.2624
    10.1017  14.3663  17.7849  17.8562  17.8562  17.9614  18.2118  18.2118
    18.9080  18.9080  19.9515  19.9515  27.5917

     occupation numbers 
     1.0000   1.0000   1.0000   1.0000   1.0000   1.0000   1.0000   1.0000
     1.0000   1.0000   1.0000   1.0000   1.0000   1.0000   1.0000   1.0000
     0.0000   0.0000   0.0000   0.0000   0.0000

          k = 0.0000 0.0000 0.2058 (  2828 PWs)   bands (ev):

   -75.1363 -75.1050 -38.5407 -38.3576 -38.2981 -38.2981 -38.2720 -38.2720
    10.9109  13.4794  17.3240  17.5464  17.7981  17.7981  18.0243  18.0243
    19.2724  19.2724  19.8563  19.8563  30.5741

     occupation numbers 
     1.0000   1.0000   1.0000   1.0000   1.0000   1.0000   1.0000   1.0000
     1.0000   1.0000   1.0000   1.0000   1.0000   1.0000   1.0000   1.0000
     0.0000   0.0000   0.0000   0.0000   0.0000

          k = 0.0000 0.0000-0.3087 (  2834 PWs)   bands (ev):

   -75.1206 -75.1206 -38.4495 -38.4495 -38.2850 -38.2850 -38.2850 -38.2850
    12.1359  12.1359  17.3008  17.3008  17.8585  17.8585  17.8585  17.8585
    19.6229  19.6229  19.6229  19.6229  34.2346

     occupation numbers 
     1.0000   1.0000   1.0000   1.0000   1.0000   1.0000   1.0000   1.0000
     1.0000   1.0000   1.0000   1.0000   1.0000   1.0000   1.0000   1.0000
     0.0000   0.0000   0.0000   0.0000   0.0000

          k = 0.0000 0.0962 0.0000 (  2821 PWs)   bands (ev):

   -75.1483 -75.0876 -38.6231 -38.3287 -38.3168 -38.2772 -38.2682 -38.2618
    10.0664  14.7662  17.6288  17.9300  18.0517  18.1164  18.2313  18.4100
    18.6420  18.6546  20.0036  20.8048  26.2908

     occupation numbers 
     1.0000   1.0000   1.0000   1.0000   1.0000   1.0000   1.0000   1.0000
     1.0000   1.0000   1.0000   1.0000   1.0000   1.0000   1.0000   1.0000
     1.0000   1.0000   0.0000   0.0000   0.0000

          k = 0.0000 0.0962 0.1029 (  2823 PWs)   bands (ev):

   -75.1443 -75.0917 -38.6003 -38.3247 -38.3132 -38.3011 -38.2718 -38.2655
    10.3425  14.5470  17.5008  17.6266  17.9148  17.9663  18.2447  18.3165
    18.8534  18.8698  19.9789  20.4617  27.6738

     occupation numbers 
     1.0000   1.0000   1.0000   1.0000   1.0000   1.0000   1.0000   1.0000
     1.0000   1.0000   1.0000   1.0000   1.0000   1.0000   1.0000   1.0000
     0.0049   0.0000   0.0000   0.0000   0.0000

          k = 0.0000 0.0962 0.2058 (  2828 PWs)   bands (ev):

   -75.1332 -75.1028 -38.5378 -38.3652 -38.3133 -38.3031 -38.2828 -38.2756
    11.1406  13.6763  17.0983  17.5342  17.6898  17.8994  18.0507  18.1275
    19.2404  19.2764  19.8631  20.0514  30.7113

     occupation numbers 
     1.0000   1.0000   1.0000   1.0000   1.0000   1.0000   1.0000   1.0000
     1.0000   1.0000   1.0000   1.0000   1.0000   1.0000   1.0000   1.0000
     0.0000   0.0000   0.0000   0.0000   0.0000

          k = 0.0000 0.0962-0.3087 (  2836 PWs)   bands (ev):

   -75.1180 -75.1180 -38.4519 -38.4519 -38.2981 -38.2981 -38.2893 -38.2893
    12.3489  12.3489  17.2032  17.2032  17.8236  17.8236  17.9604  17.9604
    19.6086  19.6086  19.6869  19.6869  34.3963

     occupation numbers 
     1.0000   1.0000   1.0000   1.0000   1.0000   1.0000   1.0000   1.0000
     1.0000   1.0000   1.0000   1.0000   1.0000   1.0000   1.0000   1.0000
     0.0000   0.0000   0.0000   0.0000   0.0000

          k = 0.0000 0.1925 0.0000 (  2823 PWs)   bands (ev):

   -75.1385 -75.0833 -38.6003 -38.3769 -38.3321 -38.3265 -38.2780 -38.2700
    10.7779  15.1970  17.0910  17.2703  17.9981  18.4132  18.4345  18.4514
    18.4845  18.7270  20.0803  22.2715  26.3558

     occupation numbers 
     1.0000   1.0000   1.0000   1.0000   1.0000   1.0000   1.0000   1.0000
     1.0000   1.0000   1.0000   1.0000   1.0000   1.0000   1.0000   1.0000
     1.0000   1.0000   0.0000   0.0000   0.0000

          k = 0.0000 0.1925 0.1029 (  2818 PWs)   bands (ev):

   -75.1348 -75.0870 -38.5821 -38.3710 -38.3440 -38.3280 -38.2851 -38.2742
    11.0408  15.0213  16.8342  17.3106  17.8810  18.1814  18.2130  18.5845
    18.8179  18.8727  20.0353  21.4827  27.9508

     occupation numbers 
     1.0000   1.0000   1.0000   1.0000   1.0000   1.0000   1.0000   1.0000
     1.0000   1.0000   1.0000   1.0000   1.0000   1.0000   1.0000   1.0000
     0.8668   0.0000   0.0000   0.0000   0.0000

          k = 0.0000 0.1925 0.2058 (  2823 PWs)   bands (ev):

   -75.1247 -75.0972 -38.5322 -38.3957 -38.3517 -38.3166 -38.3036 -38.2856
    11.7993  14.2047  16.7071  17.3975  17.5114  17.9917  18.1499  18.4138
    19.2019  19.3334  19.8764  20.5263  31.1249

     occupation numbers 
     1.0000   1.0000   1.0000   1.0000   1.0000   1.0000   1.0000   1.0000
     1.0000   1.0000   1.0000   1.0000   1.0000   1.0000   1.0000   1.0000
     0.0000   0.0000   0.0000   0.0000   0.0000

          k = 0.0000 0.1925-0.3087 (  2832 PWs)   bands (ev):

   -75.1110 -75.1110 -38.4639 -38.4639 -38.3280 -38.3280 -38.3011 -38.3011
    12.9443  12.9443  16.9989  16.9989  17.7070  17.7070  18.2332  18.2332
    19.5856  19.5856  19.8673  19.8673  34.8397

     occupation numbers 
     1.0000   1.0000   1.0000   1.0000   1.0000   1.0000   1.0000   1.0000
     1.0000   1.0000   1.0000   1.0000   1.0000   1.0000   1.0000   1.0000
     0.0000   0.0000   0.0000   0.0000   0.0000

          k = 0.0000 0.2887 0.0000 (  2818 PWs)   bands (ev):

[...]
    20.1299  20.1847  21.3235  23.8474  28.7660

     occupation numbers 
     1.0000   1.0000   1.0000   1.0000   1.0000   1.0000   1.0000   1.0000
     1.0000   1.0000   1.0000   1.0000   1.0000   1.0000   1.0000   0.0000
     0.0000   0.0000   0.0000   0.0000   0.0000

          k = 0.0833 0.5292 0.1029 (  2837 PWs)   bands (ev):

   -75.0908 -75.0730 -38.5837 -38.5305 -38.4468 -38.3921 -38.3490 -38.3202
    14.7850  15.4074  15.9571  16.4968  17.7394  18.2487  18.2990  19.9090
    20.0755  20.1698  21.1851  23.5065  27.7232

     occupation numbers 
     1.0000   1.0000   1.0000   1.0000   1.0000   1.0000   1.0000   1.0000
     1.0000   1.0000   1.0000   1.0000   1.0000   1.0000   1.0000   0.0000
     0.0000   0.0000   0.0000   0.0000   0.0000

          k = 0.0833 0.5292 0.2058 (  2834 PWs)   bands (ev):

   -75.0870 -75.0767 -38.5990 -38.5657 -38.4080 -38.3696 -38.3544 -38.3252
    14.7613  15.2454  16.2618  16.5820  17.7911  18.5621  18.7653  19.4395
    20.0257  20.2589  20.9654  22.5638  27.1820

     occupation numbers 
     1.0000   1.0000   1.0000   1.0000   1.0000   1.0000   1.0000   1.0000
     1.0000   1.0000   1.0000   1.0000   1.0000   1.0000   1.0000   0.0000
     0.0000   0.0000   0.0000   0.0000   0.0000

          k = 0.0833 0.5292-0.3087 (  2826 PWs)   bands (ev):

   -75.0819 -75.0819 -38.5929 -38.5929 -38.3780 -38.3780 -38.3400 -38.3400
    14.9403  14.9404  16.5312  16.5312  18.2979  18.2979  19.0807  19.0807
    20.1088  20.1088  21.5026  21.5026  27.4388

     occupation numbers 
     1.0000   1.0000   1.0000   1.0000   1.0000   1.0000   1.0000   1.0000
     1.0000   1.0000   1.0000   1.0000   1.0000   1.0000   0.0000   0.0000
     0.0000   0.0000   0.0000   0.0000   0.0000

          k = 0.1667 0.2887 0.0000 (  2812 PWs)   bands (ev):

   -75.1172 -75.0756 -38.5472 -38.4501 -38.4405 -38.3553 -38.3066 -38.3045
    12.5082  15.9165  16.2401  16.6128  17.7940  17.8717  18.3780  18.7729
    19.3338  19.6983  20.0999  24.8706  26.7157

     occupation numbers 
     1.0000   1.0000   1.0000   1.0000   1.0000   1.0000   1.0000   1.0000
     1.0000   1.0000   1.0000   1.0000   1.0000   1.0000   1.0000   1.0000
     0.0000   0.0000   0.0000   0.0000   0.0000

          k = 0.1667 0.2887 0.1029 (  2813 PWs)   bands (ev):

   -75.1144 -75.0784 -38.5470 -38.4483 -38.4322 -38.3627 -38.3111 -38.3029
    12.7218  15.8448  16.1454  16.6798  17.7062  17.8980  18.2668  18.8590
    19.4634  19.5721  20.1101  23.2166  28.9148

     occupation numbers 
     1.0000   1.0000   1.0000   1.0000   1.0000   1.0000   1.0000   1.0000
     1.0000   1.0000   1.0000   1.0000   1.0000   1.0000   1.0000   0.0008
     0.0000   0.0000   0.0000   0.0000   0.0000

          k = 0.1667 0.2887 0.2058 (  2820 PWs)   bands (ev):

   -75.1068 -75.0860 -38.5370 -38.4753 -38.3944 -38.3657 -38.3218 -38.3104
    13.3271  15.1549  16.4030  16.8511  17.4472  17.7283  18.3225  18.9315
    19.5707  19.6932  20.0634  21.4856  32.1737

     occupation numbers 
     1.0000   1.0000   1.0000   1.0000   1.0000   1.0000   1.0000   1.0000
     1.0000   1.0000   1.0000   1.0000   1.0000   1.0000   1.0000   0.0000
     0.0000   0.0000   0.0000   0.0000   0.0000

          k = 0.1667 0.2887-0.3087 (  2816 PWs)   bands (ev):

   -75.0964 -75.0964 -38.5107 -38.5107 -38.3659 -38.3659 -38.3259 -38.3259
    14.2091  14.2091  16.7859  16.7859  17.4078  17.4078  18.6319  18.6319
    19.8864  19.8864  20.2967  20.2967  33.9574

     occupation numbers 
     1.0000   1.0000   1.0000   1.0000   1.0000   1.0000   1.0000   1.0000
     1.0000   1.0000   1.0000   1.0000   1.0000   1.0000   1.0000   1.0000
     0.0000   0.0000   0.0000   0.0000   0.0000

          k = 0.1667 0.3849 0.0000 (  2830 PWs)   bands (ev):

   -75.1036 -75.0724 -38.5092 -38.5018 -38.4773 -38.3861 -38.3292 -38.3271
    13.7661  15.9347  15.9899  16.4195  17.5904  18.0090  18.1410  19.1199
    19.8459  20.0945  20.4292  26.6490  26.9430

     occupation numbers 
     1.0000   1.0000   1.0000   1.0000   1.0000   1.0000   1.0000   1.0000
     1.0000   1.0000   1.0000   1.0000   1.0000   1.0000   1.0000   0.0000
     0.0000   0.0000   0.0000   0.0000   0.0000

          k = 0.1667 0.3849 0.1029 (  2829 PWs)   bands (ev):

   -75.1015 -75.0745 -38.5393 -38.4967 -38.4480 -38.3923 -38.3359 -38.3184
    13.9142  15.7974  16.0948  16.5242  17.5683  17.9709  18.0980  19.1577
    19.8244  19.9494  20.5383  24.3165  29.0488

     occupation numbers 
     1.0000   1.0000   1.0000   1.0000   1.0000   1.0000   1.0000   1.0000
     1.0000   1.0000   1.0000   1.0000   1.0000   1.0000   1.0000   0.0000
     0.0000   0.0000   0.0000   0.0000   0.0000

          k = 0.1667 0.3849 0.2058 (  2826 PWs)   bands (ev):

   -75.0958 -75.0802 -38.5537 -38.5198 -38.4072 -38.3886 -38.3444 -38.3169
    14.3196  15.4168  16.3823  16.7443  17.4326  17.6847  18.2896  19.1132
    19.6809  20.1358  20.6211  22.3112  30.0153

     occupation numbers 
     1.0000   1.0000   1.0000   1.0000   1.0000   1.0000   1.0000   1.0000
     1.0000   1.0000   1.0000   1.0000   1.0000   1.0000   1.0000   0.0000
     0.0000   0.0000   0.0000   0.0000   0.0000

          k = 0.1667 0.3849-0.3087 (  2824 PWs)   bands (ev):

   -75.0880 -75.0880 -38.5448 -38.5448 -38.3879 -38.3879 -38.3327 -38.3327
    14.8729  14.8729  16.7306  16.7306  17.4068  17.4068  18.6573  18.6573
    20.1327  20.1327  20.9758  20.9758  31.1277

     occupation numbers 
     1.0000   1.0000   1.0000   1.0000   1.0000   1.0000   1.0000   1.0000
     1.0000   1.0000   1.0000   1.0000   1.0000   1.0000   1.0000   1.0000
     0.0000   0.0000   0.0000   0.0000   0.0000

          k = 0.1667 0.4811 0.0000 (  2840 PWs)   bands (ev):

   -75.0922 -75.0715 -38.5428 -38.4956 -38.4725 -38.4152 -38.3524 -38.3446
    14.8721  15.7558  15.7668  16.4704  17.5309  17.8750  18.2470  19.5805
    20.0892  20.1087  21.3462  25.3265  28.5618

     occupation numbers 
     1.0000   1.0000   1.0000   1.0000   1.0000   1.0000   1.0000   1.0000
     1.0000   1.0000   1.0000   1.0000   1.0000   1.0000   1.0000   0.0000
     0.0000   0.0000   0.0000   0.0000   0.0000

          k = 0.1667 0.4811 0.1029 (  2841 PWs)   bands (ev):

   -75.0908 -75.0729 -38.5581 -38.5165 -38.4483 -38.4081 -38.3583 -38.3336
    14.8859  15.7128  15.9349  16.5060  17.5466  17.8559  18.3087  19.5696
    19.8503  20.1846  21.3975  24.7085  27.5624

     occupation numbers 
     1.0000   1.0000   1.0000   1.0000   1.0000   1.0000   1.0000   1.0000
     1.0000   1.0000   1.0000   1.0000   1.0000   1.0000   1.0000   0.0000
     0.0000   0.0000   0.0000   0.0000   0.0000

          k = 0.1667 0.4811 0.2058 (  2832 PWs)   bands (ev):

   -75.0870 -75.0767 -38.5749 -38.5475 -38.4277 -38.3897 -38.3589 -38.3240
    14.9864  15.5104  16.2727  16.7854  17.3780  17.8328  18.5216  19.2379
    19.7887  20.2822  21.5482  23.2605  27.6898

     occupation numbers 
     1.0000   1.0000   1.0000   1.0000   1.0000   1.0000   1.0000   1.0000
     1.0000   1.0000   1.0000   1.0000   1.0000   1.0000   1.0000   0.0000
     0.0000   0.0000   0.0000   0.0000   0.0000

          k = 0.1667 0.4811-0.3087 (  2824 PWs)   bands (ev):

   -75.0819 -75.0819 -38.5712 -38.5712 -38.4061 -38.4061 -38.3339 -38.3339
    15.2134  15.2135  16.6894  16.6894  17.5626  17.5626  18.8001  18.8001
    20.1245  20.1245  22.0782  22.0782  28.4993

     occupation numbers 
     1.0000   1.0000   1.0000   1.0000   1.0000   1.0000   1.0000   1.0000
     1.0000   1.0000   1.0000   1.0000   1.0000   1.0000   0.9984   0.9984
     0.0000   0.0000   0.0000   0.0000   0.0000

          k = 0.1667 0.5774 0.0000 (  2840 PWs)   bands (ev):

   -75.0871 -75.0721 -38.5576 -38.5011 -38.4540 -38.4273 -38.3669 -38.3501
    15.3373  15.6279  15.6978  16.5342  17.5749  17.7114  18.3535  19.9043
    20.0868  20.0873  22.2544  23.7566  29.5888

     occupation numbers 
     1.0000   1.0000   1.0000   1.0000   1.0000   1.0000   1.0000   1.0000
     1.0000   1.0000   1.0000   1.0000   1.0000   1.0000   1.0000   0.0000
     0.0000   0.0000   0.0000   0.0000   0.0000

          k = 0.1667 0.5774 0.1029 (  2839 PWs)   bands (ev):

   -75.0861 -75.0731 -38.5698 -38.5205 -38.4519 -38.4022 -38.3719 -38.3403
    15.1789  15.6743  16.0807  16.3532  17.5022  17.8921  18.4246  19.8204
    19.9021  20.1502  22.2833  23.6563  28.6962

     occupation numbers 
     1.0000   1.0000   1.0000   1.0000   1.0000   1.0000   1.0000   1.0000
     1.0000   1.0000   1.0000   1.0000   1.0000   1.0000   1.0000   0.0000
     0.0000   0.0000   0.0000   0.0000   0.0000

          k = 0.1667 0.5774 0.2058 (  2836 PWs)   bands (ev):

   -75.0834 -75.0758 -38.5847 -38.5560 -38.4367 -38.3891 -38.3619 -38.3278
    15.1353  15.5708  16.3386  16.6991  17.2875  18.0091  18.6710  19.3107
    19.9272  20.1959  22.4102  23.3247  27.6103

     occupation numbers 
     1.0000   1.0000   1.0000   1.0000   1.0000   1.0000   1.0000   1.0000
     1.0000   1.0000   1.0000   1.0000   1.0000   1.0000   1.0000   0.0000
     0.0000   0.0000   0.0000   0.0000   0.0000

          k = 0.1667 0.5774-0.3087 (  2830 PWs)   bands (ev):

   -75.0796 -75.0796 -38.5811 -38.5811 -38.4131 -38.4131 -38.3338 -38.3338
    15.2937  15.2937  16.6791  16.6791  17.6156  17.6156  18.9671  18.9671
    20.0588  20.0588  22.8078  22.8078  27.2357

     occupation numbers 
     1.0000   1.0000   1.0000   1.0000   1.0000   1.0000   1.0000   1.0000
     1.0000   1.0000   1.0000   1.0000   1.0000   1.0000   0.0000   0.0000
     0.0000   0.0000   0.0000   0.0000   0.0000

          k = 0.2500 0.4330 0.0000 (  2852 PWs)   bands (ev):

   -75.0922 -75.0715 -38.5205 -38.4966 -38.4728 -38.4164 -38.3649 -38.3522
    14.8823  15.8315  16.1144  16.1414  17.4365  17.9022  18.2512  19.3331
    20.0405  20.1118  21.3865  26.8965  27.7228

     occupation numbers 
     1.0000   1.0000   1.0000   1.0000   1.0000   1.0000   1.0000   1.0000
     1.0000   1.0000   1.0000   1.0000   1.0000   1.0000   1.0000   0.0000
     0.0000   0.0000   0.0000   0.0000   0.0000

          k = 0.2500 0.4330 0.1029 (  2841 PWs)   bands (ev):

   -75.0908 -75.0729 -38.5311 -38.5247 -38.4323 -38.4300 -38.3677 -38.3373
    14.9612  15.7494  16.1834  16.3298  17.4827  17.7232  18.2531  19.3713
    19.7918  20.1931  21.4916  25.4486  28.0122

     occupation numbers 
     1.0000   1.0000   1.0000   1.0000   1.0000   1.0000   1.0000   1.0000
     1.0000   1.0000   1.0000   1.0000   1.0000   1.0000   1.0000   0.0000
     0.0000   0.0000   0.0000   0.0000   0.0000

          k = 0.2500 0.4330 0.2058 (  2833 PWs)   bands (ev):

   -75.0870 -75.0767 -38.5562 -38.5411 -38.4351 -38.4084 -38.3581 -38.3239
    15.1624  15.6086  16.4080  16.6949  17.3339  17.4601  18.3327  19.1383
    19.7470  20.2911  21.7287  23.5803  28.7958

     occupation numbers 
     1.0000   1.0000   1.0000   1.0000   1.0000   1.0000   1.0000   1.0000
     1.0000   1.0000   1.0000   1.0000   1.0000   1.0000   1.0000   0.0000
     0.0000   0.0000   0.0000   0.0000   0.0000

          k = 0.2500 0.4330-0.3087 (  2832 PWs)   bands (ev):

   -75.0819 -75.0819 -38.5577 -38.5577 -38.4216 -38.4216 -38.3321 -38.3321
    15.4050  15.4050  16.7545  16.7545  17.2281  17.2281  18.6315  18.6315
    20.1485  20.1485  22.2960  22.2960  29.8101

     occupation numbers 
     1.0000   1.0000   1.0000   1.0000   1.0000   1.0000   1.0000   1.0000
     1.0000   1.0000   1.0000   1.0000   1.0000   1.0000   1.0000   1.0000
     0.0000   0.0000   0.0000   0.0000   0.0000

          k = 0.2500 0.5292 0.0000 (  2852 PWs)   bands (ev):

   -75.0837 -75.0730 -38.5346 -38.4866 -38.4494 -38.4402 -38.3878 -38.3782
    15.6004  15.7980  15.9531  16.2280  17.4381  17.6553  18.4534  19.6456
    20.0086  20.0494  22.6741  24.9334  27.0339

     occupation numbers 
     1.0000   1.0000   1.0000   1.0000   1.0000   1.0000   1.0000   1.0000
     1.0000   1.0000   1.0000   1.0000   1.0000   1.0000   1.0000   0.0000
     0.0000   0.0000   0.0000   0.0000   0.0000

          k = 0.2500 0.5292 0.1029 (  2842 PWs)   bands (ev):

   -75.0829 -75.0737 -38.5410 -38.5111 -38.4685 -38.4104 -38.3904 -38.3553
    15.5553  15.9234  16.0387  16.2927  17.4159  17.5568  18.4617  19.6621
    19.7570  20.1043  22.8374  24.9077  27.1006

     occupation numbers 
     1.0000   1.0000   1.0000   1.0000   1.0000   1.0000   1.0000   1.0000
     1.0000   1.0000   1.0000   1.0000   1.0000   1.0000   1.0000   0.0000
     0.0000   0.0000   0.0000   0.0000   0.0000

          k = 0.2500 0.5292 0.2058 (  2835 PWs)   bands (ev):

   -75.0810 -75.0756 -38.5576 -38.5416 -38.4676 -38.4226 -38.3547 -38.3320
    15.5899  15.8842  16.3196  16.6408  17.1661  17.4172  18.5285  19.1753
    19.8376  20.1534  23.2211  24.5416  27.1802

     occupation numbers 
     1.0000   1.0000   1.0000   1.0000   1.0000   1.0000   1.0000   1.0000
     1.0000   1.0000   1.0000   1.0000   1.0000   1.0000   1.0000   0.0000
     0.0000   0.0000   0.0000   0.0000   0.0000

          k = 0.2500 0.5292-0.3087 (  2830 PWs)   bands (ev):

   -75.0783 -75.0783 -38.5604 -38.5604 -38.4468 -38.4468 -38.3308 -38.3308
    15.7237  15.7237  16.7178  16.7178  17.1307  17.1307  18.7364  18.7364
    20.0469  20.0469  23.8121  23.8121  27.7285

     occupation numbers 
     1.0000   1.0000   1.0000   1.0000   1.0000   1.0000   1.0000   1.0000
     1.0000   1.0000   1.0000   1.0000   1.0000   1.0000   1.0000   1.0000
     0.0000   0.0000   0.0000   0.0000   0.0000

          k = 0.3333 0.5774 0.0000 (  2850 PWs)   bands (ev):

   -75.0770 -75.0770 -38.5242 -38.4709 -38.4709 -38.4146 -38.4080 -38.4080
    15.8318  15.9517  15.9517  16.1509  17.4804  17.4804  18.5629  19.8169
    19.8169  19.9767  24.1212  24.9289  24.9289

     occupation numbers 
     1.0000   1.0000   1.0000   1.0000   1.0000   1.0000   1.0000   1.0000
     1.0000   1.0000   1.0000   1.0000   1.0000   1.0000   1.0000   0.0000
     0.0000   0.0000   0.0000   0.0000   0.0000

          k = 0.3333 0.5774 0.1029 (  2847 PWs)   bands (ev):

   -75.0770 -75.0770 -38.5169 -38.5006 -38.5006 -38.4219 -38.3782 -38.3782
    15.9072  16.0255  16.0255  16.1831  17.3954  17.3954  18.5409  19.6983
    19.8649  19.8649  24.5392  24.9769  24.9769

     occupation numbers 
     1.0000   1.0000   1.0000   1.0000   1.0000   1.0000   1.0000   1.0000
     1.0000   1.0000   1.0000   1.0000   1.0000   1.0000   1.0000   0.0000
     0.0000   0.0000   0.0000   0.0000   0.0000

          k = 0.3333 0.5774 0.2058 (  2838 PWs)   bands (ev):

   -75.0770 -75.0770 -38.5354 -38.5354 -38.4969 -38.4421 -38.3430 -38.3430
    16.0840  16.2005  16.2005  16.2420  17.2057  17.2057  18.5362  19.1457
    19.9527  19.9527  25.0954  25.0954  25.5535

     occupation numbers 
     1.0000   1.0000   1.0000   1.0000   1.0000   1.0000   1.0000   1.0000
     1.0000   1.0000   1.0000   1.0000   1.0000   1.0000   1.0000   0.0000
     0.0000   0.0000   0.0000   0.0000   0.0000

          k = 0.3333 0.5774-0.3087 (  2814 PWs)   bands (ev):

   -75.0770 -75.0770 -38.5487 -38.5487 -38.4695 -38.4695 -38.3296 -38.3296
    16.2283  16.2283  16.3136  16.3136  17.0888  17.0888  18.7061  18.7061
    19.9929  19.9929  25.1706  25.1706  26.8892

     occupation numbers 
     1.0000   1.0000   1.0000   1.0000   1.0000   1.0000   1.0000   1.0000
     1.0000   1.0000   1.0000   1.0000   1.0000   1.0000   1.0000   1.0000
     0.0000   0.0000   0.0000   0.0000   0.0000

     the Fermi energy is    18.8286 ev

!    total energy              =    -753.45515820 Ry
     total all-electron energy =     -5573.811849 Ry
     estimated scf accuracy    <       0.00000087 Ry
     smearing contrib. (-TS)   =      -0.00001932 Ry
     internal energy E=F+TS    =    -753.45513888 Ry

     The total energy is F=E-TS. E is the sum of the following terms:
     one-electron contribution =    -281.23815471 Ry
     hartree contribution      =     164.47809992 Ry
     xc contribution           =     -61.41583049 Ry
     ewald contribution        =    -400.10376568 Ry
     one-center paw contrib.   =    -175.17548791 Ry
      -> PAW hartree energy AE =     222.09171445 Ry
      -> PAW hartree energy PS =    -221.03593372 Ry
      -> PAW xc energy AE      =    -117.67686854 Ry
      -> PAW xc energy PS      =      29.03334385 Ry
      -> total E_H with PAW    =     165.53388064 Ry
      -> total E_XC with PAW   =    -150.05935517 Ry

     total magnetization       =     3.31 Bohr mag/cell
     absolute magnetization    =     3.62 Bohr mag/cell

     convergence has been achieved in   8 iterations

     Writing all to output data dir ./out/Co.save/
 
     init_run     :      0.39s CPU      0.51s WALL (       1 calls)
     electrons    :     17.48s CPU     18.41s WALL (       1 calls)

     Called by init_run:
     wfcinit      :      0.27s CPU      0.35s WALL (       1 calls)
     potinit      :      0.08s CPU      0.10s WALL (       1 calls)
     hinit0       :      0.03s CPU      0.03s WALL (       1 calls)

     Called by electrons:
     c_bands      :     15.31s CPU     16.02s WALL (       8 calls)
     sum_band     :      1.47s CPU      1.55s WALL (       8 calls)
     v_of_rho     :      0.02s CPU      0.03s WALL (       9 calls)
     v_h          :      0.00s CPU      0.00s WALL (       9 calls)
     v_xc         :      0.02s CPU      0.02s WALL (       9 calls)
     newd         :      0.04s CPU      0.04s WALL (       9 calls)
     PAW_pot      :      0.71s CPU      0.85s WALL (       9 calls)
     mix_rho      :      0.00s CPU      0.01s WALL (       8 calls)

     Called by c_bands:
     init_us_2    :      0.09s CPU      0.08s WALL (    2432 calls)
     init_us_2:cp :      0.09s CPU      0.08s WALL (    2432 calls)
     cegterg      :     14.83s CPU     15.52s WALL (    1216 calls)

     Called by sum_band:
     sum_band:wei :      0.01s CPU      0.01s WALL (       8 calls)
     sum_band:loo :      1.39s CPU      1.47s WALL (       8 calls)
     sum_band:buf :      0.00s CPU      0.01s WALL (    1216 calls)
     sum_band:ini :      0.05s CPU      0.04s WALL (    1216 calls)
     sum_band:cal :      0.12s CPU      0.12s WALL (    1216 calls)
     sum_band:bec :      0.00s CPU      0.01s WALL (    1216 calls)
     addusdens    :      0.05s CPU      0.06s WALL (       8 calls)
                                        0.00s GPU  (       8 calls)
     addusd:skk   :      0.00s CPU      0.00s WALL (       8 calls)
                                        0.00s GPU  (       8 calls)

     Called by *egterg:
     cdiaghg      :      3.93s CPU      4.05s WALL (    8072 calls)
     cegterg:over :      0.51s CPU      0.48s WALL (    7008 calls)
     cegterg:upda :      0.06s CPU      0.12s WALL (    7008 calls)
     cegterg:last :      0.19s CPU      0.21s WALL (    4298 calls)
     h_psi        :      9.55s CPU     10.05s WALL (    8224 calls)
     s_psi        :      0.19s CPU      0.16s WALL (    8224 calls)
     g_psi        :      0.02s CPU      0.04s WALL (    7008 calls)

     Called by h_psi:
     h_psi:calbec :      0.51s CPU      0.49s WALL (    8224 calls)
     vloc_psi     :      8.91s CPU      9.34s WALL (    8224 calls)
     add_vuspsi   :      0.10s CPU      0.17s WALL (    8224 calls)

     General routines
     calbec       :      0.62s CPU      0.60s WALL (    9440 calls)
     fft          :      0.02s CPU      0.02s WALL (     219 calls)
     ffts         :      0.00s CPU      0.00s WALL (      34 calls)
     fftw         :      9.55s CPU      9.88s WALL (  224172 calls)
     interpolate  :      0.00s CPU      0.00s WALL (      18 calls)
 
     Parallel routines

     PAW routines
     PAW_pot      :      0.71s CPU      0.85s WALL (       9 calls)
     PAW_symme    :      0.01s CPU      0.01s WALL (      16 calls)
 
     PWSCF        :     18.22s CPU     19.69s WALL

 
   This run was terminated on:   8:30:27  22Mar2024            

=------------------------------------------------------------------------------=
   JOB DONE.
=------------------------------------------------------------------------------=
