
     Program PWSCF v.7.2 starts on 22Mar2024 at  8:45:44 

     This program is part of the open-source Quantum ESPRESSO suite
     for quantum simulation of materials; please cite
         "P. Giannozzi et al., J. Phys.:Condens. Matter 21 395502 (2009);
         "P. Giannozzi et al., J. Phys.:Condens. Matter 29 465901 (2017);
         "P. Giannozzi et al., J. Chem. Phys. 152 154105 (2020);
          URL http://www.quantum-espresso.org", 
     in publications or presentations arising from this work. More details at
     http://www.quantum-espresso.org/quote

     Parallel version (MPI), running on    20 processors

     MPI processes distributed on     1 nodes
     241440 MiB available memory on the printing compute node when the environment starts
 
     Waiting for input...
     Reading input from standard input

     Current dimensions of program PWSCF are:
     Max number of different atomic species (ntypx) = 10
     Max number of k-points (npk) = 120000
     Max angular momentum in pseudopotentials (lmaxx) =  4
     file Co.pbe-spn-kjpaw_psl.0.3.1.UPF: wavefunction(s)  3P 3D renormalized
 
     R & G space division:  proc/nbgrp/npool/nimage =      20
     Subspace diagonalization in iterative solution of the eigenvalue problem:
     a serial algorithm will be used

 
     Parallelization info
     --------------------
     sticks:   dense  smooth     PW     G-vecs:    dense   smooth      PW
     Min          33      33      9                 1156     1115     179
     Max          35      34     10                 1165     1123     186
     Sum         673     661    199                23199    22371    3669
 
     Using Slab Decomposition
 


     bravais-lattice index     =            4
     lattice parameter (alat)  =       4.6676  a.u.
     unit-cell volume          =     143.5116 (a.u.)^3
     number of atoms/cell      =            2
     number of atomic types    =            1
     number of electrons       =        34.00
     number of Kohn-Sham states=           21
     kinetic-energy cutoff     =     110.0000  Ry
     charge density cutoff     =     450.0000  Ry
     scf convergence threshold =      1.0E-06
     mixing beta               =       0.7000
     number of iterations used =            8  plain     mixing
     Exchange-correlation= SLA  PW   PBX  PBC
                           (   1   4   3   4   0   0   0)

     celldm(1)=   4.667624  celldm(2)=   0.000000  celldm(3)=   1.629555
     celldm(4)=   0.000000  celldm(5)=   0.000000  celldm(6)=   0.000000

     crystal axes: (cart. coord. in units of alat)
               a(1) = (   1.000000   0.000000   0.000000 )  
               a(2) = (  -0.500000   0.866025   0.000000 )  
               a(3) = (   0.000000   0.000000   1.629555 )  

     reciprocal axes: (cart. coord. in units 2 pi/alat)
               b(1) = (  1.000000  0.577350  0.000000 )  
               b(2) = (  0.000000  1.154701  0.000000 )  
               b(3) = (  0.000000  0.000000  0.613665 )  


     PseudoPot. # 1 for Co read from file:
     /truba/home/amuhaymin/ZnS/pseudo/QE/Co.pbe-spn-kjpaw_psl.0.3.1.UPF
     MD5 check sum: b0a1ad65bf214e88c1f3d33b20c7d919
     Pseudo is Projector augmented-wave + core cor, Zval = 17.0
     Generated using &quot;atomic&quot; code by A. Dal Corso  v.6.2.2
     Shape of augmentation charge: PSQ
     Using radial grid of 1193 points,  6 beta functions with: 
                l(1) =   0
                l(2) =   0
                l(3) =   1
                l(4) =   1
                l(5) =   2
                l(6) =   2
     Q(r) pseudized with 0 coefficients 


     atomic species   valence    mass     pseudopotential
        Co            17.00    58.93300     Co( 1.00)

     Starting magnetic structure 
     atomic species   magnetization
        Co           0.294

     24 Sym. Ops., with inversion, found (12 have fractional translation)


                                    s                        frac. trans.

      isym =  1     identity                                     

 cryst.   s( 1) = (     1          0          0      )
                  (     0          1          0      )
                  (     0          0          1      )

 cart.    s( 1) = (  1.0000000  0.0000000  0.0000000 )
                  (  0.0000000  1.0000000  0.0000000 )
                  (  0.0000000  0.0000000  1.0000000 )


      isym =  2     180 deg rotation - cart. axis [0,0,1]        

 cryst.   s( 2) = (    -1          0          0      )    f =(  0.0000000 )
                  (     0         -1          0      )       ( -0.0000000 )
                  (     0          0          1      )       ( -0.5000000 )

 cart.    s( 2) = ( -1.0000000  0.0000000  0.0000000 )    f =(  0.0000000 )
                  (  0.0000000 -1.0000000  0.0000000 )       ( -0.0000000 )
                  (  0.0000000  0.0000000  1.0000000 )       ( -0.8147773 )


      isym =  3     180 deg rotation - cart. axis [0,1,0]        

 cryst.   s( 3) = (    -1          0          0      )    f =(  0.0000000 )
                  (     1          1          0      )       (  0.0000000 )
                  (     0          0         -1      )       (  0.5000000 )

 cart.    s( 3) = ( -1.0000000  0.0000000  0.0000000 )    f =(  0.0000000 )
                  (  0.0000000  1.0000000  0.0000000 )       (  0.0000000 )
                  (  0.0000000  0.0000000 -1.0000000 )       (  0.8147773 )


      isym =  4     180 deg rotation - cart. axis [1,0,0]        

 cryst.   s( 4) = (     1          0          0      )
                  (    -1         -1          0      )
                  (     0          0         -1      )

 cart.    s( 4) = (  1.0000000  0.0000000  0.0000000 )
                  (  0.0000000 -1.0000000  0.0000000 )
                  (  0.0000000  0.0000000 -1.0000000 )


      isym =  5      60 deg rotation - cryst. axis [0,0,1]       

 cryst.   s( 5) = (     1          1          0      )    f =(  0.0000000 )
                  (    -1          0          0      )       ( -0.0000000 )
                  (     0          0          1      )       ( -0.5000000 )

 cart.    s( 5) = (  0.5000000 -0.8660254  0.0000000 )    f =(  0.0000000 )
                  (  0.8660254  0.5000000  0.0000000 )       ( -0.0000000 )
                  (  0.0000000  0.0000000  1.0000000 )       ( -0.8147773 )


      isym =  6      60 deg rotation - cryst. axis [0,0,-1]      

 cryst.   s( 6) = (     0         -1          0      )    f =(  0.0000000 )
                  (     1          1          0      )       ( -0.0000000 )
                  (     0          0          1      )       ( -0.5000000 )

 cart.    s( 6) = (  0.5000000  0.8660254  0.0000000 )    f =(  0.0000000 )
                  ( -0.8660254  0.5000000  0.0000000 )       ( -0.0000000 )
                  (  0.0000000  0.0000000  1.0000000 )       ( -0.8147773 )


      isym =  7     120 deg rotation - cryst. axis [0,0,1]       

 cryst.   s( 7) = (     0          1          0      )
                  (    -1         -1          0      )
                  (     0          0          1      )

 cart.    s( 7) = ( -0.5000000 -0.8660254  0.0000000 )
                  (  0.8660254 -0.5000000  0.0000000 )
                  (  0.0000000  0.0000000  1.0000000 )


      isym =  8     120 deg rotation - cryst. axis [0,0,-1]      

 cryst.   s( 8) = (    -1         -1          0      )
                  (     1          0          0      )
                  (     0          0          1      )

 cart.    s( 8) = ( -0.5000000  0.8660254  0.0000000 )
                  ( -0.8660254 -0.5000000  0.0000000 )
                  (  0.0000000  0.0000000  1.0000000 )


      isym =  9     180 deg rotation - cryst. axis [1,-1,0]      

 cryst.   s( 9) = (     0         -1          0      )    f =( -0.0000000 )
                  (    -1          0          0      )       ( -0.0000000 )
                  (     0          0         -1      )       (  0.5000000 )

 cart.    s( 9) = (  0.5000000 -0.8660254  0.0000000 )    f =( -0.0000000 )
                  ( -0.8660254 -0.5000000  0.0000000 )       ( -0.0000000 )
                  (  0.0000000  0.0000000 -1.0000000 )       (  0.8147773 )


      isym = 10     180 deg rotation - cryst. axis [2,1,0]       

 cryst.   s(10) = (     1          1          0      )    f =(  0.0000000 )
                  (     0         -1          0      )       ( -0.0000000 )
                  (     0          0         -1      )       (  0.5000000 )

 cart.    s(10) = (  0.5000000  0.8660254  0.0000000 )    f =(  0.0000000 )
                  (  0.8660254 -0.5000000  0.0000000 )       ( -0.0000000 )
                  (  0.0000000  0.0000000 -1.0000000 )       (  0.8147773 )


      isym = 11     180 deg rotation - cryst. axis [0,1,0]       

 cryst.   s(11) = (    -1         -1          0      )
                  (     0          1          0      )
                  (     0          0         -1      )

 cart.    s(11) = ( -0.5000000 -0.8660254  0.0000000 )
                  ( -0.8660254  0.5000000  0.0000000 )
                  (  0.0000000  0.0000000 -1.0000000 )


      isym = 12     180 deg rotation - cryst. axis [1,1,0]       

 cryst.   s(12) = (     0          1          0      )
                  (     1          0          0      )
                  (     0          0         -1      )

 cart.    s(12) = ( -0.5000000  0.8660254  0.0000000 )
                  (  0.8660254  0.5000000  0.0000000 )
                  (  0.0000000  0.0000000 -1.0000000 )


      isym = 13     inversion                                    

 cryst.   s(13) = (    -1          0          0      )
                  (     0         -1          0      )
                  (     0          0         -1      )

 cart.    s(13) = ( -1.0000000  0.0000000  0.0000000 )
                  (  0.0000000 -1.0000000  0.0000000 )
                  (  0.0000000  0.0000000 -1.0000000 )


      isym = 14     inv. 180 deg rotation - cart. axis [0,0,1]   

 cryst.   s(14) = (     1          0          0      )    f =(  0.0000000 )
                  (     0          1          0      )       (  0.0000000 )
                  (     0          0         -1      )       (  0.5000000 )

 cart.    s(14) = (  1.0000000  0.0000000  0.0000000 )    f =(  0.0000000 )
                  (  0.0000000  1.0000000  0.0000000 )       (  0.0000000 )
                  (  0.0000000  0.0000000 -1.0000000 )       (  0.8147773 )


      isym = 15     inv. 180 deg rotation - cart. axis [0,1,0]   

 cryst.   s(15) = (     1          0          0      )    f =(  0.0000000 )
                  (    -1         -1          0      )       ( -0.0000000 )
                  (     0          0          1      )       ( -0.5000000 )

 cart.    s(15) = (  1.0000000  0.0000000  0.0000000 )    f =(  0.0000000 )
                  (  0.0000000 -1.0000000  0.0000000 )       ( -0.0000000 )
                  (  0.0000000  0.0000000  1.0000000 )       ( -0.8147773 )


      isym = 16     inv. 180 deg rotation - cart. axis [1,0,0]   

 cryst.   s(16) = (    -1          0          0      )
                  (     1          1          0      )
                  (     0          0          1      )

 cart.    s(16) = ( -1.0000000  0.0000000  0.0000000 )
                  (  0.0000000  1.0000000  0.0000000 )
                  (  0.0000000  0.0000000  1.0000000 )


      isym = 17     inv.  60 deg rotation - cryst. axis [0,0,1]  

 cryst.   s(17) = (    -1         -1          0      )    f =(  0.0000000 )
                  (     1          0          0      )       ( -0.0000000 )
                  (     0          0         -1      )       (  0.5000000 )

 cart.    s(17) = ( -0.5000000  0.8660254  0.0000000 )    f =(  0.0000000 )
                  ( -0.8660254 -0.5000000  0.0000000 )       ( -0.0000000 )
                  (  0.0000000  0.0000000 -1.0000000 )       (  0.8147773 )


      isym = 18     inv.  60 deg rotation - cryst. axis [0,0,-1] 

 cryst.   s(18) = (     0          1          0      )    f =( -0.0000000 )
                  (    -1         -1          0      )       ( -0.0000000 )
                  (     0          0         -1      )       (  0.5000000 )

 cart.    s(18) = ( -0.5000000 -0.8660254  0.0000000 )    f =(  0.0000000 )
                  (  0.8660254 -0.5000000  0.0000000 )       ( -0.0000000 )
                  (  0.0000000  0.0000000 -1.0000000 )       (  0.8147773 )


      isym = 19     inv. 120 deg rotation - cryst. axis [0,0,1]  

 cryst.   s(19) = (     0         -1          0      )
                  (     1          1          0      )
                  (     0          0         -1      )

 cart.    s(19) = (  0.5000000  0.8660254  0.0000000 )
                  ( -0.8660254  0.5000000  0.0000000 )
                  (  0.0000000  0.0000000 -1.0000000 )


      isym = 20     inv. 120 deg rotation - cryst. axis [0,0,-1] 

 cryst.   s(20) = (     1          1          0      )
                  (    -1          0          0      )
                  (     0          0         -1      )

 cart.    s(20) = (  0.5000000 -0.8660254  0.0000000 )
                  (  0.8660254  0.5000000  0.0000000 )
                  (  0.0000000  0.0000000 -1.0000000 )


      isym = 21     inv. 180 deg rotation - cryst. axis [1,-1,0] 

 cryst.   s(21) = (     0          1          0      )    f =(  0.0000000 )
                  (     1          0          0      )       ( -0.0000000 )
                  (     0          0          1      )       ( -0.5000000 )

 cart.    s(21) = ( -0.5000000  0.8660254  0.0000000 )    f =(  0.0000000 )
                  (  0.8660254  0.5000000  0.0000000 )       ( -0.0000000 )
                  (  0.0000000  0.0000000  1.0000000 )       ( -0.8147773 )


      isym = 22     inv. 180 deg rotation - cryst. axis [2,1,0]  

 cryst.   s(22) = (    -1         -1          0      )    f =(  0.0000000 )
                  (     0          1          0      )       ( -0.0000000 )
                  (     0          0          1      )       ( -0.5000000 )

 cart.    s(22) = ( -0.5000000 -0.8660254  0.0000000 )    f =(  0.0000000 )
                  ( -0.8660254  0.5000000  0.0000000 )       ( -0.0000000 )
                  (  0.0000000  0.0000000  1.0000000 )       ( -0.8147773 )


      isym = 23     inv. 180 deg rotation - cryst. axis [0,1,0]  

 cryst.   s(23) = (     1          1          0      )
                  (     0         -1          0      )
                  (     0          0          1      )

 cart.    s(23) = (  0.5000000  0.8660254  0.0000000 )
                  (  0.8660254 -0.5000000  0.0000000 )
                  (  0.0000000  0.0000000  1.0000000 )


      isym = 24     inv. 180 deg rotation - cryst. axis [1,1,0]  

 cryst.   s(24) = (     0         -1          0      )
                  (    -1          0          0      )
                  (     0          0          1      )

 cart.    s(24) = (  0.5000000 -0.8660254  0.0000000 )
                  ( -0.8660254 -0.5000000  0.0000000 )
                  (  0.0000000  0.0000000  1.0000000 )


     point group D_6h(6/mmm)
     there are 12 classes
     the character table:

       E     2C6   2C3   C2    3C2'  3C2'' i     2S3   2S6   s_h   3s_d  3s_v 
A_1g   1.00  1.00  1.00  1.00  1.00  1.00  1.00  1.00  1.00  1.00  1.00  1.00
A_2g   1.00  1.00  1.00  1.00 -1.00 -1.00  1.00  1.00  1.00  1.00 -1.00 -1.00
B_1g   1.00 -1.00  1.00 -1.00  1.00 -1.00  1.00 -1.00  1.00 -1.00  1.00 -1.00
B_2g   1.00 -1.00  1.00 -1.00 -1.00  1.00  1.00 -1.00  1.00 -1.00 -1.00  1.00
E_1g   2.00  1.00 -1.00 -2.00  0.00  0.00  2.00  1.00 -1.00 -2.00  0.00  0.00
E_2g   2.00 -1.00 -1.00  2.00  0.00  0.00  2.00 -1.00 -1.00  2.00  0.00  0.00
A_1u   1.00  1.00  1.00  1.00  1.00  1.00 -1.00 -1.00 -1.00 -1.00 -1.00 -1.00
A_2u   1.00  1.00  1.00  1.00 -1.00 -1.00 -1.00 -1.00 -1.00 -1.00  1.00  1.00
B_1u   1.00 -1.00  1.00 -1.00  1.00 -1.00 -1.00  1.00 -1.00  1.00 -1.00  1.00
B_2u   1.00 -1.00  1.00 -1.00 -1.00  1.00 -1.00  1.00 -1.00  1.00  1.00 -1.00
E_1u   2.00  1.00 -1.00 -2.00  0.00  0.00 -2.00 -1.00  1.00  2.00  0.00  0.00
E_2u   2.00 -1.00 -1.00  2.00  0.00  0.00 -2.00  1.00  1.00 -2.00  0.00  0.00

     the symmetry operations in each class and the name of the first element:

     E        1
          identity                                               
     2C6      5    6
           60 deg rotation - cryst. axis [0,0,1]                 
     2C3      7    8
          120 deg rotation - cryst. axis [0,0,1]                 
     C2       2
          180 deg rotation - cart. axis [0,0,1]                  
     3C2'     4   12   11
          180 deg rotation - cart. axis [1,0,0]                  
     3C2''    3    9   10
          180 deg rotation - cart. axis [0,1,0]                  
     i       13
          inversion                                              
     2S3     17   18
          inv.  60 deg rotation - cryst. axis [0,0,1]            
     2S6     19   20
          inv. 120 deg rotation - cryst. axis [0,0,1]            
     s_h     14
          inv. 180 deg rotation - cart. axis [0,0,1]             
     3s_d    16   24   23
          inv. 180 deg rotation - cart. axis [1,0,0]             
     3s_v    15   21   22
          inv. 180 deg rotation - cart. axis [0,1,0]             

   Cartesian axes

     site n.     atom                  positions (alat units)
         1           Co  tau(   1) = (  -0.0000000   0.5773503   0.4073887  )
         2           Co  tau(   2) = (   0.5000000   0.2886751   1.2221660  )

   Crystallographic axes

     site n.     atom                  positions (cryst. coord.)
         1           Co  tau(   1) = (  0.3333333  0.6666667  0.2500000  )
         2           Co  tau(   2) = (  0.6666667  0.3333333  0.7500000  )

     number of k points=    76  Gaussian smearing, width (Ry)=  0.0010
                       cart. coord. in units 2pi/alat
        k(    1) = (   0.0000000   0.0000000   0.0000000), wk =   0.0011574
        k(    2) = (   0.0000000   0.0000000   0.1022774), wk =   0.0023148
        k(    3) = (   0.0000000   0.0000000   0.2045549), wk =   0.0023148
        k(    4) = (   0.0000000   0.0000000  -0.3068323), wk =   0.0011574
        k(    5) = (   0.0000000   0.0962250   0.0000000), wk =   0.0069444
        k(    6) = (   0.0000000   0.0962250   0.1022774), wk =   0.0138889
        k(    7) = (   0.0000000   0.0962250   0.2045549), wk =   0.0138889
        k(    8) = (   0.0000000   0.0962250  -0.3068323), wk =   0.0069444
        k(    9) = (   0.0000000   0.1924501   0.0000000), wk =   0.0069444
        k(   10) = (   0.0000000   0.1924501   0.1022774), wk =   0.0138889
        k(   11) = (   0.0000000   0.1924501   0.2045549), wk =   0.0138889
        k(   12) = (   0.0000000   0.1924501  -0.3068323), wk =   0.0069444
        k(   13) = (   0.0000000   0.2886751   0.0000000), wk =   0.0069444
        k(   14) = (   0.0000000   0.2886751   0.1022774), wk =   0.0138889
        k(   15) = (   0.0000000   0.2886751   0.2045549), wk =   0.0138889
        k(   16) = (   0.0000000   0.2886751  -0.3068323), wk =   0.0069444
        k(   17) = (   0.0000000   0.3849002   0.0000000), wk =   0.0069444
        k(   18) = (   0.0000000   0.3849002   0.1022774), wk =   0.0138889
        k(   19) = (   0.0000000   0.3849002   0.2045549), wk =   0.0138889
        k(   20) = (   0.0000000   0.3849002  -0.3068323), wk =   0.0069444
        k(   21) = (   0.0000000   0.4811252   0.0000000), wk =   0.0069444
        k(   22) = (   0.0000000   0.4811252   0.1022774), wk =   0.0138889
        k(   23) = (   0.0000000   0.4811252   0.2045549), wk =   0.0138889
        k(   24) = (   0.0000000   0.4811252  -0.3068323), wk =   0.0069444
        k(   25) = (   0.0000000  -0.5773503   0.0000000), wk =   0.0034722
        k(   26) = (   0.0000000  -0.5773503   0.1022774), wk =   0.0069444
        k(   27) = (   0.0000000  -0.5773503   0.2045549), wk =   0.0069444
        k(   28) = (   0.0000000  -0.5773503  -0.3068323), wk =   0.0034722
        k(   29) = (   0.0833333   0.1443376   0.0000000), wk =   0.0069444
        k(   30) = (   0.0833333   0.1443376   0.1022774), wk =   0.0138889
        k(   31) = (   0.0833333   0.1443376   0.2045549), wk =   0.0138889
        k(   32) = (   0.0833333   0.1443376  -0.3068323), wk =   0.0069444
        k(   33) = (   0.0833333   0.2405626   0.0000000), wk =   0.0138889
        k(   34) = (   0.0833333   0.2405626   0.1022774), wk =   0.0277778
        k(   35) = (   0.0833333   0.2405626   0.2045549), wk =   0.0277778
        k(   36) = (   0.0833333   0.2405626  -0.3068323), wk =   0.0138889
        k(   37) = (   0.0833333   0.3367877   0.0000000), wk =   0.0138889
        k(   38) = (   0.0833333   0.3367877   0.1022774), wk =   0.0277778
        k(   39) = (   0.0833333   0.3367877   0.2045549), wk =   0.0277778
        k(   40) = (   0.0833333   0.3367877  -0.3068323), wk =   0.0138889
        k(   41) = (   0.0833333   0.4330127   0.0000000), wk =   0.0138889
        k(   42) = (   0.0833333   0.4330127   0.1022774), wk =   0.0277778
        k(   43) = (   0.0833333   0.4330127   0.2045549), wk =   0.0277778
        k(   44) = (   0.0833333   0.4330127  -0.3068323), wk =   0.0138889
        k(   45) = (   0.0833333   0.5292377   0.0000000), wk =   0.0138889
        k(   46) = (   0.0833333   0.5292377   0.1022774), wk =   0.0277778
        k(   47) = (   0.0833333   0.5292377   0.2045549), wk =   0.0277778
        k(   48) = (   0.0833333   0.5292377  -0.3068323), wk =   0.0138889
        k(   49) = (   0.1666667   0.2886751   0.0000000), wk =   0.0069444
        k(   50) = (   0.1666667   0.2886751   0.1022774), wk =   0.0138889
        k(   51) = (   0.1666667   0.2886751   0.2045549), wk =   0.0138889
        k(   52) = (   0.1666667   0.2886751  -0.3068323), wk =   0.0069444
        k(   53) = (   0.1666667   0.3849002   0.0000000), wk =   0.0138889
        k(   54) = (   0.1666667   0.3849002   0.1022774), wk =   0.0277778
        k(   55) = (   0.1666667   0.3849002   0.2045549), wk =   0.0277778
        k(   56) = (   0.1666667   0.3849002  -0.3068323), wk =   0.0138889
        k(   57) = (   0.1666667   0.4811252   0.0000000), wk =   0.0138889
        k(   58) = (   0.1666667   0.4811252   0.1022774), wk =   0.0277778
        k(   59) = (   0.1666667   0.4811252   0.2045549), wk =   0.0277778
        k(   60) = (   0.1666667   0.4811252  -0.3068323), wk =   0.0138889
        k(   61) = (   0.1666667   0.5773503   0.0000000), wk =   0.0069444
        k(   62) = (   0.1666667   0.5773503   0.1022774), wk =   0.0138889
        k(   63) = (   0.1666667   0.5773503   0.2045549), wk =   0.0138889
        k(   64) = (   0.1666667   0.5773503  -0.3068323), wk =   0.0069444
        k(   65) = (   0.2500000   0.4330127   0.0000000), wk =   0.0069444
        k(   66) = (   0.2500000   0.4330127   0.1022774), wk =   0.0138889
        k(   67) = (   0.2500000   0.4330127   0.2045549), wk =   0.0138889
        k(   68) = (   0.2500000   0.4330127  -0.3068323), wk =   0.0069444
        k(   69) = (   0.2500000   0.5292377   0.0000000), wk =   0.0138889
        k(   70) = (   0.2500000   0.5292377   0.1022774), wk =   0.0277778
        k(   71) = (   0.2500000   0.5292377   0.2045549), wk =   0.0277778
        k(   72) = (   0.2500000   0.5292377  -0.3068323), wk =   0.0138889
        k(   73) = (   0.3333333   0.5773503   0.0000000), wk =   0.0023148
        k(   74) = (   0.3333333   0.5773503   0.1022774), wk =   0.0046296
        k(   75) = (   0.3333333   0.5773503   0.2045549), wk =   0.0046296
        k(   76) = (   0.3333333   0.5773503  -0.3068323), wk =   0.0023148

                       cryst. coord.
        k(    1) = (   0.0000000   0.0000000   0.0000000), wk =   0.0011574
        k(    2) = (   0.0000000   0.0000000   0.1666667), wk =   0.0023148
        k(    3) = (   0.0000000   0.0000000   0.3333333), wk =   0.0023148
        k(    4) = (   0.0000000   0.0000000  -0.5000000), wk =   0.0011574
        k(    5) = (   0.0000000   0.0833333   0.0000000), wk =   0.0069444
        k(    6) = (   0.0000000   0.0833333   0.1666667), wk =   0.0138889
        k(    7) = (   0.0000000   0.0833333   0.3333333), wk =   0.0138889
        k(    8) = (   0.0000000   0.0833333  -0.5000000), wk =   0.0069444
        k(    9) = (   0.0000000   0.1666667   0.0000000), wk =   0.0069444
        k(   10) = (   0.0000000   0.1666667   0.1666667), wk =   0.0138889
        k(   11) = (   0.0000000   0.1666667   0.3333333), wk =   0.0138889
        k(   12) = (   0.0000000   0.1666667  -0.5000000), wk =   0.0069444
        k(   13) = (   0.0000000   0.2500000   0.0000000), wk =   0.0069444
        k(   14) = (   0.0000000   0.2500000   0.1666667), wk =   0.0138889
        k(   15) = (   0.0000000   0.2500000   0.3333333), wk =   0.0138889
        k(   16) = (   0.0000000   0.2500000  -0.5000000), wk =   0.0069444
        k(   17) = (   0.0000000   0.3333333   0.0000000), wk =   0.0069444
        k(   18) = (   0.0000000   0.3333333   0.1666667), wk =   0.0138889
        k(   19) = (   0.0000000   0.3333333   0.3333333), wk =   0.0138889
        k(   20) = (   0.0000000   0.3333333  -0.5000000), wk =   0.0069444
        k(   21) = (   0.0000000   0.4166667   0.0000000), wk =   0.0069444
        k(   22) = (   0.0000000   0.4166667   0.1666667), wk =   0.0138889
        k(   23) = (   0.0000000   0.4166667   0.3333333), wk =   0.0138889
        k(   24) = (   0.0000000   0.4166667  -0.5000000), wk =   0.0069444
        k(   25) = (   0.0000000  -0.5000000   0.0000000), wk =   0.0034722
        k(   26) = (   0.0000000  -0.5000000   0.1666667), wk =   0.0069444
        k(   27) = (   0.0000000  -0.5000000   0.3333333), wk =   0.0069444
        k(   28) = (   0.0000000  -0.5000000  -0.5000000), wk =   0.0034722
        k(   29) = (   0.0833333   0.0833333   0.0000000), wk =   0.0069444
        k(   30) = (   0.0833333   0.0833333   0.1666667), wk =   0.0138889
        k(   31) = (   0.0833333   0.0833333   0.3333333), wk =   0.0138889
        k(   32) = (   0.0833333   0.0833333  -0.5000000), wk =   0.0069444
        k(   33) = (   0.0833333   0.1666667   0.0000000), wk =   0.0138889
        k(   34) = (   0.0833333   0.1666667   0.1666667), wk =   0.0277778
        k(   35) = (   0.0833333   0.1666667   0.3333333), wk =   0.0277778
        k(   36) = (   0.0833333   0.1666667  -0.5000000), wk =   0.0138889
        k(   37) = (   0.0833333   0.2500000   0.0000000), wk =   0.0138889
        k(   38) = (   0.0833333   0.2500000   0.1666667), wk =   0.0277778
        k(   39) = (   0.0833333   0.2500000   0.3333333), wk =   0.0277778
        k(   40) = (   0.0833333   0.2500000  -0.5000000), wk =   0.0138889
        k(   41) = (   0.0833333   0.3333333   0.0000000), wk =   0.0138889
        k(   42) = (   0.0833333   0.3333333   0.1666667), wk =   0.0277778
        k(   43) = (   0.0833333   0.3333333   0.3333333), wk =   0.0277778
        k(   44) = (   0.0833333   0.3333333  -0.5000000), wk =   0.0138889
        k(   45) = (   0.0833333   0.4166667   0.0000000), wk =   0.0138889
        k(   46) = (   0.0833333   0.4166667   0.1666667), wk =   0.0277778
        k(   47) = (   0.0833333   0.4166667   0.3333333), wk =   0.0277778
        k(   48) = (   0.0833333   0.4166667  -0.5000000), wk =   0.0138889
        k(   49) = (   0.1666667   0.1666667   0.0000000), wk =   0.0069444
        k(   50) = (   0.1666667   0.1666667   0.1666667), wk =   0.0138889
        k(   51) = (   0.1666667   0.1666667   0.3333333), wk =   0.0138889
        k(   52) = (   0.1666667   0.1666667  -0.5000000), wk =   0.0069444
        k(   53) = (   0.1666667   0.2500000   0.0000000), wk =   0.0138889
        k(   54) = (   0.1666667   0.2500000   0.1666667), wk =   0.0277778
        k(   55) = (   0.1666667   0.2500000   0.3333333), wk =   0.0277778
        k(   56) = (   0.1666667   0.2500000  -0.5000000), wk =   0.0138889
        k(   57) = (   0.1666667   0.3333333   0.0000000), wk =   0.0138889
        k(   58) = (   0.1666667   0.3333333   0.1666667), wk =   0.0277778
        k(   59) = (   0.1666667   0.3333333   0.3333333), wk =   0.0277778
        k(   60) = (   0.1666667   0.3333333  -0.5000000), wk =   0.0138889
        k(   61) = (   0.1666667   0.4166667   0.0000000), wk =   0.0069444
        k(   62) = (   0.1666667   0.4166667   0.1666667), wk =   0.0138889
        k(   63) = (   0.1666667   0.4166667   0.3333333), wk =   0.0138889
        k(   64) = (   0.1666667   0.4166667  -0.5000000), wk =   0.0069444
        k(   65) = (   0.2500000   0.2500000   0.0000000), wk =   0.0069444
        k(   66) = (   0.2500000   0.2500000   0.1666667), wk =   0.0138889
        k(   67) = (   0.2500000   0.2500000   0.3333333), wk =   0.0138889
        k(   68) = (   0.2500000   0.2500000  -0.5000000), wk =   0.0069444
        k(   69) = (   0.2500000   0.3333333   0.0000000), wk =   0.0138889
        k(   70) = (   0.2500000   0.3333333   0.1666667), wk =   0.0277778
        k(   71) = (   0.2500000   0.3333333   0.3333333), wk =   0.0277778
        k(   72) = (   0.2500000   0.3333333  -0.5000000), wk =   0.0138889
        k(   73) = (   0.3333333   0.3333333   0.0000000), wk =   0.0023148
        k(   74) = (   0.3333333   0.3333333   0.1666667), wk =   0.0046296
        k(   75) = (   0.3333333   0.3333333   0.3333333), wk =   0.0046296
        k(   76) = (   0.3333333   0.3333333  -0.5000000), wk =   0.0023148

     Dense  grid:    23199 G-vectors     FFT dimensions: (  32,  32,  54)

     Smooth grid:    22371 G-vectors     FFT dimensions: (  32,  32,  54)

     Dynamical RAM for                 wfc:       0.04 MB

     Dynamical RAM for     wfc (w. buffer):       6.81 MB

     Dynamical RAM for           str. fact:       0.02 MB

     Dynamical RAM for           local pot:       0.00 MB

     Dynamical RAM for          nlocal pot:       0.08 MB

     Dynamical RAM for                qrad:       1.70 MB

     Dynamical RAM for          rho,v,vnew:       0.25 MB

     Dynamical RAM for               rhoin:       0.08 MB

     Dynamical RAM for            rho*nmix:       0.57 MB

     Dynamical RAM for           G-vectors:       0.07 MB

     Dynamical RAM for          h,s,v(r/c):       0.08 MB

     Dynamical RAM for          <psi|beta>:       0.01 MB

     Dynamical RAM for                 psi:       0.09 MB

     Dynamical RAM for                hpsi:       0.09 MB

     Dynamical RAM for                spsi:       0.09 MB

     Dynamical RAM for      wfcinit/wfcrot:       0.10 MB

     Dynamical RAM for           addusdens:       3.34 MB

     Estimated static dynamical RAM per process >       9.19 MB

     Estimated max dynamical RAM per process >      13.10 MB

     Estimated total dynamical RAM >     261.98 MB

     Check: negative core charge=   -0.000043
     Generating pointlists ...
     new r_m :   0.4119 (alat units)  1.9227 (a.u.) for type    1

     The initial density is read from file :
     ./out/Co.save/charge-density


     starting charge      34.0535, renormalised to      34.0000

     negative rho (up, down):  1.452E-01 1.055E-01
     Starting wfcs from file
     Checking if some PAW data can be deallocated... 

     total cpu time spent up to now is        0.6 secs

     Self-consistent Calculation

     iteration #  1     ecut=   110.00 Ry     beta= 0.70
     Davidson diagonalization with overlap

---- Real-time Memory Report at c_bands before calling an iterative solver
            56 MiB given to the printing process from OS
             0 MiB allocation reported by mallinfo(arena+hblkhd)
        240870 MiB available memory on the node where the printing process lives
------------------
     c_bands:  4 eigenvalues not converged
     c_bands:  1 eigenvalues not converged
     c_bands:  5 eigenvalues not converged
     c_bands:  2 eigenvalues not converged
     c_bands:  1 eigenvalues not converged
     c_bands:  2 eigenvalues not converged
     c_bands:  5 eigenvalues not converged
     c_bands:  1 eigenvalues not converged
     c_bands:  2 eigenvalues not converged
     c_bands:  3 eigenvalues not converged
     c_bands:  4 eigenvalues not converged
     c_bands:  2 eigenvalues not converged
     c_bands:  3 eigenvalues not converged
     c_bands:  1 eigenvalues not converged
     c_bands:  2 eigenvalues not converged
     c_bands:  4 eigenvalues not converged
     c_bands:  2 eigenvalues not converged
     c_bands:  2 eigenvalues not converged
     c_bands:  2 eigenvalues not converged
     c_bands:  2 eigenvalues not converged
     c_bands:  3 eigenvalues not converged
     c_bands:  3 eigenvalues not converged
     c_bands:  5 eigenvalues not converged
     c_bands:  5 eigenvalues not converged
     c_bands:  3 eigenvalues not converged
     c_bands:  3 eigenvalues not converged
     c_bands:  3 eigenvalues not converged
     c_bands:  4 eigenvalues not converged
     c_bands:  2 eigenvalues not converged
     c_bands:  1 eigenvalues not converged
     c_bands:  1 eigenvalues not converged
     c_bands:  1 eigenvalues not converged
     c_bands:  1 eigenvalues not converged
     c_bands:  2 eigenvalues not converged
     c_bands:  4 eigenvalues not converged
     c_bands:  4 eigenvalues not converged
     c_bands:  2 eigenvalues not converged
     c_bands:  4 eigenvalues not converged
     c_bands:  2 eigenvalues not converged
     c_bands:  2 eigenvalues not converged
     c_bands:  1 eigenvalues not converged
     c_bands:  2 eigenvalues not converged
     c_bands:  4 eigenvalues not converged
     c_bands:  2 eigenvalues not converged
     c_bands:  2 eigenvalues not converged
     c_bands:  1 eigenvalues not converged
     c_bands:  3 eigenvalues not converged
     c_bands:  2 eigenvalues not converged
     c_bands:  1 eigenvalues not converged
     c_bands:  5 eigenvalues not converged
     c_bands:  3 eigenvalues not converged
     c_bands:  4 eigenvalues not converged
     c_bands:  3 eigenvalues not converged
     c_bands:  3 eigenvalues not converged
     c_bands:  4 eigenvalues not converged
     c_bands:  4 eigenvalues not converged
     c_bands:  4 eigenvalues not converged
     c_bands:  2 eigenvalues not converged
     ethr =  1.00E-05,  avg # of iterations = 20.5

     negative rho (up, down):  1.309E-03 8.030E-04

     total cpu time spent up to now is       10.6 secs

     total energy              =    -753.26433676 Ry
     estimated scf accuracy    <       0.09737359 Ry

     total magnetization       =     3.31 Bohr mag/cell
     absolute magnetization    =     3.59 Bohr mag/cell

     iteration #  2     ecut=   110.00 Ry     beta= 0.70
     Davidson diagonalization with overlap

---- Real-time Memory Report at c_bands before calling an iterative solver
            78 MiB given to the printing process from OS
             0 MiB allocation reported by mallinfo(arena+hblkhd)
        240655 MiB available memory on the node where the printing process lives
------------------
     ethr =  2.86E-04,  avg # of iterations =  2.0

     total cpu time spent up to now is       12.1 secs

     total energy              =    -753.38895039 Ry
     estimated scf accuracy    <       0.03900805 Ry

     total magnetization       =     3.25 Bohr mag/cell
     absolute magnetization    =     3.50 Bohr mag/cell

     iteration #  3     ecut=   110.00 Ry     beta= 0.70
     Davidson diagonalization with overlap

---- Real-time Memory Report at c_bands before calling an iterative solver
            78 MiB given to the printing process from OS
             0 MiB allocation reported by mallinfo(arena+hblkhd)
        240646 MiB available memory on the node where the printing process lives
------------------
     ethr =  1.15E-04,  avg # of iterations =  4.5

     total cpu time spent up to now is       14.3 secs

     total energy              =    -753.45058301 Ry
     estimated scf accuracy    <       0.06704527 Ry

     total magnetization       =     3.26 Bohr mag/cell
     absolute magnetization    =     3.58 Bohr mag/cell

     iteration #  4     ecut=   110.00 Ry     beta= 0.70
     Davidson diagonalization with overlap

---- Real-time Memory Report at c_bands before calling an iterative solver
            80 MiB given to the printing process from OS
             0 MiB allocation reported by mallinfo(arena+hblkhd)
        240637 MiB available memory on the node where the printing process lives
------------------
     ethr =  1.15E-04,  avg # of iterations =  2.0

     total cpu time spent up to now is       15.8 secs

     total energy              =    -753.44990084 Ry
     estimated scf accuracy    <       0.01326033 Ry

     total magnetization       =     3.25 Bohr mag/cell
     absolute magnetization    =     3.56 Bohr mag/cell

     iteration #  5     ecut=   110.00 Ry     beta= 0.70
     Davidson diagonalization with overlap

---- Real-time Memory Report at c_bands before calling an iterative solver
            82 MiB given to the printing process from OS
             0 MiB allocation reported by mallinfo(arena+hblkhd)
        240628 MiB available memory on the node where the printing process lives
------------------
     ethr =  3.90E-05,  avg # of iterations =  4.2

     total cpu time spent up to now is       17.7 secs

     total energy              =    -753.45444008 Ry
     estimated scf accuracy    <       0.00045040 Ry

     total magnetization       =     3.23 Bohr mag/cell
     absolute magnetization    =     3.53 Bohr mag/cell

     iteration #  6     ecut=   110.00 Ry     beta= 0.70
     Davidson diagonalization with overlap

---- Real-time Memory Report at c_bands before calling an iterative solver
            82 MiB given to the printing process from OS
             0 MiB allocation reported by mallinfo(arena+hblkhd)
        240619 MiB available memory on the node where the printing process lives
------------------
     ethr =  1.32E-06,  avg # of iterations =  5.0

     total cpu time spent up to now is       19.9 secs

     total energy              =    -753.45471430 Ry
     estimated scf accuracy    <       0.00013394 Ry

     total magnetization       =     3.23 Bohr mag/cell
     absolute magnetization    =     3.54 Bohr mag/cell

     iteration #  7     ecut=   110.00 Ry     beta= 0.70
     Davidson diagonalization with overlap

---- Real-time Memory Report at c_bands before calling an iterative solver
            82 MiB given to the printing process from OS
             0 MiB allocation reported by mallinfo(arena+hblkhd)
        240609 MiB available memory on the node where the printing process lives
------------------
     ethr =  3.94E-07,  avg # of iterations =  4.3

     total cpu time spent up to now is       21.8 secs

     total energy              =    -753.45475020 Ry
     estimated scf accuracy    <       0.00001241 Ry

     total magnetization       =     3.23 Bohr mag/cell
     absolute magnetization    =     3.54 Bohr mag/cell

     iteration #  8     ecut=   110.00 Ry     beta= 0.70
     Davidson diagonalization with overlap

---- Real-time Memory Report at c_bands before calling an iterative solver
            84 MiB given to the printing process from OS
             0 MiB allocation reported by mallinfo(arena+hblkhd)
        240600 MiB available memory on the node where the printing process lives
------------------
     ethr =  3.65E-08,  avg # of iterations =  9.5

     total cpu time spent up to now is       25.3 secs

     total energy              =    -753.45476738 Ry
     estimated scf accuracy    <       0.00002907 Ry

     total magnetization       =     3.23 Bohr mag/cell
     absolute magnetization    =     3.55 Bohr mag/cell

     iteration #  9     ecut=   110.00 Ry     beta= 0.70
     Davidson diagonalization with overlap

---- Real-time Memory Report at c_bands before calling an iterative solver
            85 MiB given to the printing process from OS
             0 MiB allocation reported by mallinfo(arena+hblkhd)
        240597 MiB available memory on the node where the printing process lives
------------------
     ethr =  3.65E-08,  avg # of iterations =  2.3

     total cpu time spent up to now is       26.9 secs

     total energy              =    -753.45476828 Ry
     estimated scf accuracy    <       0.00000352 Ry

     total magnetization       =     3.23 Bohr mag/cell
     absolute magnetization    =     3.55 Bohr mag/cell

     iteration # 10     ecut=   110.00 Ry     beta= 0.70
     Davidson diagonalization with overlap

---- Real-time Memory Report at c_bands before calling an iterative solver
            85 MiB given to the printing process from OS
             0 MiB allocation reported by mallinfo(arena+hblkhd)
        240585 MiB available memory on the node where the printing process lives
------------------
     ethr =  1.03E-08,  avg # of iterations =  5.4

     total cpu time spent up to now is       29.3 secs

     total energy              =    -753.45476971 Ry
     estimated scf accuracy    <       0.00000660 Ry

     total magnetization       =     3.23 Bohr mag/cell
     absolute magnetization    =     3.55 Bohr mag/cell

     iteration # 11     ecut=   110.00 Ry     beta= 0.70
     Davidson diagonalization with overlap

---- Real-time Memory Report at c_bands before calling an iterative solver
            86 MiB given to the printing process from OS
             0 MiB allocation reported by mallinfo(arena+hblkhd)
        240576 MiB available memory on the node where the printing process lives
------------------
     ethr =  1.03E-08,  avg # of iterations =  3.9
 
     Magnetic moment per site  (integrated on atomic sphere of radius R)
     atom   1 (R=0.412)  charge= 15.5883  magn=  1.6883
     atom   2 (R=0.412)  charge= 15.5883  magn=  1.6883

     total cpu time spent up to now is       31.2 secs

     End of self-consistent calculation

 ------ SPIN UP ------------


          k = 0.0000 0.0000 0.0000 (  2779 PWs)   bands (ev):

   -76.9781 -76.9183 -40.3868 -40.0754 -40.0754 -40.0417 -40.0266 -40.0266
    10.0253  13.8537  16.4390  16.5099  16.5099  16.8262  16.8262  17.2103
    17.2103  18.3240  18.3240  18.8068  25.5153

     occupation numbers 
     1.0000   1.0000   1.0000   1.0000   1.0000   1.0000   1.0000   1.0000
     1.0000   1.0000   1.0000   1.0000   1.0000   1.0000   1.0000   1.0000
     1.0000   1.0000   1.0000   1.0000   0.0000

          k = 0.0000 0.0000 0.1023 (  2797 PWs)   bands (ev):

   -76.9741 -76.9223 -40.3640 -40.0722 -40.0722 -40.0651 -40.0299 -40.0299
    10.3038  13.7809  16.3673  16.4481  16.4481  16.7532  16.7532  17.3714
    17.3714  17.8688  18.3059  18.3059  27.0218

     occupation numbers 
     1.0000   1.0000   1.0000   1.0000   1.0000   1.0000   1.0000   1.0000
     1.0000   1.0000   1.0000   1.0000   1.0000   1.0000   1.0000   1.0000
     1.0000   1.0000   1.0000   1.0000   0.0000

          k = 0.0000 0.0000 0.2046 (  2816 PWs)   bands (ev):

   -76.9632 -76.9333 -40.3015 -40.1289 -40.0633 -40.0633 -40.0389 -40.0389
    11.1020  13.3337  16.2018  16.3952  16.3952  16.5674  16.5917  16.5917
    17.6938  17.6938  18.2145  18.2145  30.2264

     occupation numbers 
     1.0000   1.0000   1.0000   1.0000   1.0000   1.0000   1.0000   1.0000
     1.0000   1.0000   1.0000   1.0000   1.0000   1.0000   1.0000   1.0000
     1.0000   1.0000   1.0000   1.0000   0.0000

          k = 0.0000 0.0000-0.3068 (  2810 PWs)   bands (ev):

   -76.9483 -76.9483 -40.2155 -40.2155 -40.0511 -40.0511 -40.0511 -40.0511
    12.2635  12.2635  16.1214  16.1214  16.4475  16.4475  16.4475  16.4475
    18.0042  18.0042  18.0042  18.0042  34.0581

     occupation numbers 
     1.0000   1.0000   1.0000   1.0000   1.0000   1.0000   1.0000   1.0000
     1.0000   1.0000   1.0000   1.0000   1.0000   1.0000   1.0000   1.0000
     1.0000   1.0000   1.0000   1.0000   0.0000

          k = 0.0000 0.0962 0.0000 (  2801 PWs)   bands (ev):

   -76.9746 -76.9166 -40.3792 -40.0927 -40.0810 -40.0447 -40.0445 -40.0296
    10.2720  14.0047  16.2507  16.6281  16.6610  16.7743  16.9313  17.0357
    17.1369  17.4620  18.3544  20.0066  25.5536

     occupation numbers 
     1.0000   1.0000   1.0000   1.0000   1.0000   1.0000   1.0000   1.0000
     1.0000   1.0000   1.0000   1.0000   1.0000   1.0000   1.0000   1.0000
     1.0000   1.0000   1.0000   0.0000   0.0000

          k = 0.0000 0.0962 0.1023 (  2794 PWs)   bands (ev):

   -76.9707 -76.9205 -40.3577 -40.0889 -40.0776 -40.0734 -40.0416 -40.0330
    10.5462  13.9465  16.2501  16.4876  16.5503  16.5854  16.8524  17.1278
    17.3244  17.3930  18.3289  19.2616  27.1300

     occupation numbers 
     1.0000   1.0000   1.0000   1.0000   1.0000   1.0000   1.0000   1.0000
     1.0000   1.0000   1.0000   1.0000   1.0000   1.0000   1.0000   1.0000
     1.0000   1.0000   1.0000   0.0000   0.0000

          k = 0.0000 0.0962 0.2046 (  2800 PWs)   bands (ev):

   -76.9601 -76.9311 -40.2986 -40.1352 -40.0784 -40.0682 -40.0505 -40.0424
    11.3315  13.5271  16.1292  16.1852  16.3121  16.4899  16.6894  16.7356
    17.6665  17.7112  18.2203  18.5148  30.3813

     occupation numbers 
     1.0000   1.0000   1.0000   1.0000   1.0000   1.0000   1.0000   1.0000
     1.0000   1.0000   1.0000   1.0000   1.0000   1.0000   1.0000   1.0000
     1.0000   1.0000   1.0000   1.0000   0.0000

          k = 0.0000 0.0962-0.3068 (  2810 PWs)   bands (ev):

   -76.9457 -76.9457 -40.2174 -40.2174 -40.0643 -40.0643 -40.0553 -40.0553
    12.4744  12.4744  15.9801  15.9801  16.4523  16.4523  16.5434  16.5434
    17.9922  17.9922  18.0964  18.0964  34.2291

     occupation numbers 
     1.0000   1.0000   1.0000   1.0000   1.0000   1.0000   1.0000   1.0000
     1.0000   1.0000   1.0000   1.0000   1.0000   1.0000   1.0000   1.0000
     1.0000   1.0000   1.0000   1.0000   0.0000

          k = 0.0000 0.1925 0.0000 (  2791 PWs)   bands (ev):

   -76.9648 -76.9121 -40.3576 -40.1399 -40.0958 -40.0926 -40.0538 -40.0378
    10.9851  14.3786  15.9755  16.2478  16.5847  16.9558  16.9622  16.9735
    17.1276  17.2263  18.4186  21.6299  25.6897

     occupation numbers 
     1.0000   1.0000   1.0000   1.0000   1.0000   1.0000   1.0000   1.0000
     1.0000   1.0000   1.0000   1.0000   1.0000   1.0000   1.0000   1.0000
     1.0000   1.0000   1.0000   0.0000   0.0000

          k = 0.0000 0.1925 0.1023 (  2792 PWs)   bands (ev):

   -76.9613 -76.9157 -40.3403 -40.1345 -40.1107 -40.0920 -40.0588 -40.0417
    11.2427  14.3653  15.9682  16.0177  16.4634  16.7746  16.8540  17.1104
    17.2976  17.3821  18.3765  20.5109  27.4832

     occupation numbers 
     1.0000   1.0000   1.0000   1.0000   1.0000   1.0000   1.0000   1.0000
     1.0000   1.0000   1.0000   1.0000   1.0000   1.0000   1.0000   1.0000
     1.0000   1.0000   1.0000   0.0000   0.0000

          k = 0.0000 0.1925 0.2046 (  2797 PWs)   bands (ev):

   -76.9517 -76.9253 -40.2927 -40.1616 -40.1169 -40.0814 -40.0739 -40.0524
    11.9776  14.0275  15.6243  16.0798  16.1715  16.6740  16.7224  16.9601
    17.6363  17.7958  18.2325  19.1660  30.8446

     occupation numbers 
     1.0000   1.0000   1.0000   1.0000   1.0000   1.0000   1.0000   1.0000
     1.0000   1.0000   1.0000   1.0000   1.0000   1.0000   1.0000   1.0000
     1.0000   1.0000   1.0000   0.0000   0.0000

          k = 0.0000 0.1925-0.3068 (  2796 PWs)   bands (ev):

   -76.9385 -76.9385 -40.2274 -40.2274 -40.0954 -40.0954 -40.0669 -40.0669
    13.0414  13.0414  15.7485  15.7485  16.3863  16.3863  16.7993  16.7993
    17.9744  17.9744  18.3451  18.3451  34.6984

     occupation numbers 
     1.0000   1.0000   1.0000   1.0000   1.0000   1.0000   1.0000   1.0000
     1.0000   1.0000   1.0000   1.0000   1.0000   1.0000   1.0000   1.0000
     1.0000   1.0000   1.0000   1.0000   0.0000

          k = 0.0000 0.2887 0.0000 (  2791 PWs)   bands (ev):

   -76.9510 -76.9065 -40.3252 -40.2048 -40.1574 -40.1156 -40.0691 -40.0496
    12.0620  14.6780  15.5038  15.8072  16.4783  16.7382  16.9178  17.4197
    17.4473  17.6503  18.4782  23.4492  25.9554

     occupation numbers 
     1.0000   1.0000   1.0000   1.0000   1.0000   1.0000   1.0000   1.0000
     1.0000   1.0000   1.0000   1.0000   1.0000   1.0000   1.0000   1.0000
     1.0000   1.0000   1.0000   0.0000   0.0000

          k = 0.0000 0.2887 0.1023 (  2788 PWs)   bands (ev):

   -76.9480 -76.9095 -40.3177 -40.1944 -40.1711 -40.1112 -40.0735 -40.0540
    12.2755  14.7187  15.3579  15.8616  16.3259  16.7773  16.9137  17.4908
    17.5512  17.6066  18.4215  21.8077  28.1195

     occupation numbers 
     1.0000   1.0000   1.0000   1.0000   1.0000   1.0000   1.0000   1.0000
     1.0000   1.0000   1.0000   1.0000   1.0000   1.0000   1.0000   1.0000
     1.0000   1.0000   1.0000   0.0000   0.0000

          k = 0.0000 0.2887 0.2046 (  2783 PWs)   bands (ev):

   -76.9399 -76.9176 -40.2945 -40.2139 -40.1581 -40.0991 -40.0906 -40.0661
    12.8703  14.4693  15.2850  15.8892  16.1973  16.7484  16.9012  17.3414
    17.7604  17.9556  18.2580  19.9461  31.4927

     occupation numbers 
     1.0000   1.0000   1.0000   1.0000   1.0000   1.0000   1.0000   1.0000
     1.0000   1.0000   1.0000   1.0000   1.0000   1.0000   1.0000   1.0000
     1.0000   1.0000   1.0000   0.0000   0.0000

          k = 0.0000 0.2887-0.3068 (  2790 PWs)   bands (ev):

   -76.9288 -76.9288 -40.2572 -40.2572 -40.1214 -40.1214 -40.0826 -40.0826
    13.6952  13.6952  15.5889  15.5889  16.4465  16.4465  17.1042  17.1042
    18.0176  18.0176  18.6937  18.6937  33.7591

     occupation numbers 
     1.0000   1.0000   1.0000   1.0000   1.0000   1.0000   1.0000   1.0000
     1.0000   1.0000   1.0000   1.0000   1.0000   1.0000   1.0000   1.0000
     1.0000   1.0000   1.0000   1.0000   0.0000

          k = 0.0000 0.3849 0.0000 (  2804 PWs)   bands (ev):

   -76.9362 -76.9018 -40.2873 -40.2704 -40.2209 -40.1348 -40.0898 -40.0618
    13.2341  14.6064  14.9687  15.9174  16.5422  16.6043  16.7256  17.9655
    18.1099  18.1337  18.5181  25.4271  26.0232

     occupation numbers 
     1.0000   1.0000   1.0000   1.0000   1.0000   1.0000   1.0000   1.0000
     1.0000   1.0000   1.0000   1.0000   1.0000   1.0000   1.0000   1.0000
     1.0000   1.0000   1.0000   0.0000   0.0000

          k = 0.0000 0.3849 0.1023 (  2796 PWs)   bands (ev):

   -76.9339 -76.9041 -40.3106 -40.2444 -40.2226 -40.1299 -40.0907 -40.0667
    13.3309  14.6338  15.0068  15.7683  16.5294  16.6364  17.0772  17.9820
    18.0177  18.0701  18.4653  23.0581  28.2503

     occupation numbers 
     1.0000   1.0000   1.0000   1.0000   1.0000   1.0000   1.0000   1.0000
     1.0000   1.0000   1.0000   1.0000   1.0000   1.0000   1.0000   1.0000
     1.0000   1.0000   1.0000   0.0000   0.0000

          k = 0.0000 0.3849 0.2046 (  2795 PWs)   bands (ev):

   -76.9276 -76.9104 -40.3185 -40.2728 -40.1755 -40.1166 -40.1016 -40.0801
    13.6054  14.4466  15.1556  15.6738  16.6396  16.9021  17.3886  17.6931
    18.0901  18.1903  18.3488  20.8368  29.4172

     occupation numbers 
     1.0000   1.0000   1.0000   1.0000   1.0000   1.0000   1.0000   1.0000
     1.0000   1.0000   1.0000   1.0000   1.0000   1.0000   1.0000   1.0000
     1.0000   1.0000   1.0000   0.0000   0.0000

          k = 0.0000 0.3849-0.3068 (  2792 PWs)   bands (ev):

   -76.9190 -76.9190 -40.3036 -40.3036 -40.1305 -40.1305 -40.0984 -40.0984
    14.0122  14.0122  15.4524  15.4524  17.0633  17.0633  17.2858  17.2858
    18.2147  18.2147  19.1761  19.1761  30.5367

     occupation numbers 
     1.0000   1.0000   1.0000   1.0000   1.0000   1.0000   1.0000   1.0000
     1.0000   1.0000   1.0000   1.0000   1.0000   1.0000   1.0000   1.0000
     1.0000   1.0000   0.0000   0.0000   0.0000

          k = 0.0000 0.4811 0.0000 (  2792 PWs)   bands (ev):

   -76.9241 -76.8996 -40.3186 -40.2667 -40.2523 -40.1487 -40.1122 -40.0709
    14.0019  14.4121  14.6495  16.2809  16.4084  16.5891  16.8181  18.3544
    18.4899  18.5389  19.2776  24.2356  27.4657

     occupation numbers 
     1.0000   1.0000   1.0000   1.0000   1.0000   1.0000   1.0000   1.0000
     1.0000   1.0000   1.0000   1.0000   1.0000   1.0000   1.0000   1.0000
     1.0000   1.0000   0.0000   0.0000   0.0000

          k = 0.0000 0.4811 0.1023 (  2806 PWs)   bands (ev):

   -76.9224 -76.9013 -40.3363 -40.2841 -40.2204 -40.1435 -40.1089 -40.0761
    13.8881  14.4028  14.9722  15.6577  16.5233  16.8219  17.4395  18.2792
    18.3856  18.5546  19.1111  23.4120  26.8605

     occupation numbers 
     1.0000   1.0000   1.0000   1.0000   1.0000   1.0000   1.0000   1.0000
     1.0000   1.0000   1.0000   1.0000   1.0000   1.0000   1.0000   1.0000
     1.0000   1.0000   0.2449   0.0000   0.0000

          k = 0.0000 0.4811 0.2046 (  2797 PWs)   bands (ev):

   -76.9180 -76.9058 -40.3508 -40.3167 -40.1710 -40.1293 -40.1108 -40.0904
    13.8515  14.3294  15.1411  15.4682  16.8495  17.0821  17.8550  18.4187
    18.4460  18.5243  18.7550  21.6682  27.0271

     occupation numbers 
     1.0000   1.0000   1.0000   1.0000   1.0000   1.0000   1.0000   1.0000
     1.0000   1.0000   1.0000   1.0000   1.0000   1.0000   1.0000   1.0000
     1.0000   1.0000   1.0000   0.0000   0.0000

          k = 0.0000 0.4811-0.3068 (  2806 PWs)   bands (ev):

   -76.9119 -76.9119 -40.3434 -40.3434 -40.1313 -40.1313 -40.1099 -40.1099
    14.0361  14.0361  15.3244  15.3244  17.3283  17.3283  17.8112  17.8112
    18.4723  18.4723  20.0001  20.0001  27.8045

     occupation numbers 
     1.0000   1.0000   1.0000   1.0000   1.0000   1.0000   1.0000   1.0000
     1.0000   1.0000   1.0000   1.0000   1.0000   1.0000   1.0000   1.0000
     1.0000   1.0000   0.0000   0.0000   0.0000

          k = 0.0000-0.5774 0.0000 (  2786 PWs)   bands (ev):

   -76.9190 -76.8995 -40.3363 -40.2833 -40.2359 -40.1537 -40.1239 -40.0743
    14.2539  14.2758  14.5437  16.3611  16.5360  16.5398  16.8956  18.4951
    18.5451  18.6438  20.4484  22.5104  28.7866

     occupation numbers 
     1.0000   1.0000   1.0000   1.0000   1.0000   1.0000   1.0000   1.0000
     1.0000   1.0000   1.0000   1.0000   1.0000   1.0000   1.0000   1.0000
     1.0000   1.0000   0.0000   0.0000   0.0000

          k = 0.0000-0.5774 0.1023 (  2800 PWs)   bands (ev):

   -76.9177 -76.9008 -40.3505 -40.2999 -40.2106 -40.1484 -40.1183 -40.0796
    13.9877  14.3037  15.0061  15.6293  16.4820  16.9109  17.6478  18.3367
    18.5356  18.6360  20.2244  22.3201  27.9525

     occupation numbers 
     1.0000   1.0000   1.0000   1.0000   1.0000   1.0000   1.0000   1.0000
     1.0000   1.0000   1.0000   1.0000   1.0000   1.0000   1.0000   1.0000
     1.0000   1.0000   0.0000   0.0000   0.0000

          k = 0.0000-0.5774 0.2046 (  2798 PWs)   bands (ev):

   -76.9141 -76.9043 -40.3646 -40.3328 -40.1661 -40.1339 -40.1154 -40.0942
    13.8700  14.2831  15.1687  15.3730  16.8254  17.2288  17.8880  18.5556
    18.5674  18.6146  19.8548  21.6872  26.9170

     occupation numbers 
     1.0000   1.0000   1.0000   1.0000   1.0000   1.0000   1.0000   1.0000
     1.0000   1.0000   1.0000   1.0000   1.0000   1.0000   1.0000   1.0000
     1.0000   1.0000   0.0000   0.0000   0.0000

          k = 0.0000-0.5774-0.3068 (  2808 PWs)   bands (ev):

   -76.9092 -76.9092 -40.3586 -40.3586 -40.1308 -40.1308 -40.1141 -40.1141
    14.0182  14.0182  15.2746  15.2746  17.3307  17.3307  18.0618  18.0618
    18.5851  18.5851  20.6475  20.6475  26.5436

     occupation numbers 
     1.0000   1.0000   1.0000   1.0000   1.0000   1.0000   1.0000   1.0000
     1.0000   1.0000   1.0000   1.0000   1.0000   1.0000   1.0000   1.0000
     1.0000   1.0000   0.0000   0.0000   0.0000

          k = 0.0833 0.1443 0.0000 (  2791 PWs)   bands (ev):

   -76.9680 -76.9135 -40.3646 -40.1220 -40.0989 -40.0705 -40.0507 -40.0374
    10.7528  14.2733  16.0344  16.5020  16.6626  16.8161  16.8696  16.9201
    17.1619  17.2583  18.3908  21.1766  25.6429

     occupation numbers 
     1.0000   1.0000   1.0000   1.0000   1.0000   1.0000   1.0000   1.0000
     1.0000   1.0000   1.0000   1.0000   1.0000   1.0000   1.0000   1.0000
     1.0000   1.0000   1.0000   0.0000   0.0000

          k = 0.0833 0.1443 0.1023 (  2790 PWs)   bands (ev):

   -76.9643 -76.9172 -40.3458 -40.1170 -40.1031 -40.0846 -40.0530 -40.0411
    11.0167  14.2454  16.0631  16.1604  16.5110  16.7237  16.8310  17.0234
    17.3160  17.3779  18.3568  20.1720  27.3629

     occupation numbers 
     1.0000   1.0000   1.0000   1.0000   1.0000   1.0000   1.0000   1.0000
     1.0000   1.0000   1.0000   1.0000   1.0000   1.0000   1.0000   1.0000
     1.0000   1.0000   1.0000   0.0000   0.0000

          k = 0.0833 0.1443 0.2046 (  2794 PWs)   bands (ev):

   -76.9544 -76.9272 -40.2941 -40.1516 -40.1035 -40.0819 -40.0633 -40.0511
    11.7712  13.8808  15.7505  16.1283  16.1837  16.6434  16.6980  16.8766
    17.6670  17.7420  18.2314  18.9774  30.6932

     occupation numbers 
     1.0000   1.0000   1.0000   1.0000   1.0000   1.0000   1.0000   1.0000
     1.0000   1.0000   1.0000   1.0000   1.0000   1.0000   1.0000   1.0000
     1.0000   1.0000   1.0000   1.0000   0.0000

          k = 0.0833 0.1443-0.3068 (  2814 PWs)   bands (ev):

   -76.9408 -76.9408 -40.2231 -40.2231 -40.0862 -40.0862 -40.0637 -40.0637
    12.8671  12.8671  15.8079  15.8079  16.3884  16.3884  16.7317  16.7317
    17.9801  17.9801  18.2676  18.2676  34.5590

     occupation numbers 
     1.0000   1.0000   1.0000   1.0000   1.0000   1.0000   1.0000   1.0000
     1.0000   1.0000   1.0000   1.0000   1.0000   1.0000   1.0000   1.0000
     1.0000   1.0000   1.0000   1.0000   0.0000

          k = 0.0833 0.2406 0.0000 (  2778 PWs)   bands (ev):

   -76.9561 -76.9085 -40.3375 -40.1739 -40.1437 -40.1001 -40.0630 -40.0508
    11.6566  14.6571  15.7559  15.7757  16.5280  16.6835  17.0832  17.1061
    17.3101  17.5951  18.4347  22.7940  25.8657

     occupation numbers 
     1.0000   1.0000   1.0000   1.0000   1.0000   1.0000   1.0000   1.0000
     1.0000   1.0000   1.0000   1.0000   1.0000   1.0000   1.0000   1.0000
     1.0000   1.0000   1.0000   0.0000   0.0000

          k = 0.0833 0.2406 0.1023 (  2786 PWs)   bands (ev):

   -76.9530 -76.9117 -40.3252 -40.1667 -40.1527 -40.1041 -40.0661 -40.0545
    11.8924  14.6890  15.5605  15.8080  16.4106  16.6857  16.9170  17.2304
    17.5069  17.5745  18.3952  21.3625  27.8799

     occupation numbers 
     1.0000   1.0000   1.0000   1.0000   1.0000   1.0000   1.0000   1.0000
     1.0000   1.0000   1.0000   1.0000   1.0000   1.0000   1.0000   1.0000
     1.0000   1.0000   1.0000   0.0000   0.0000

          k = 0.0833 0.2406 0.2046 (  2784 PWs)   bands (ev):

   -76.9443 -76.9204 -40.2910 -40.1919 -40.1414 -40.1027 -40.0778 -40.0652
    12.5583  14.4103  15.3705  15.9191  16.1324  16.5675  16.8756  17.2080
    17.7569  17.8699  18.2696  19.6763  31.3035

     occupation numbers 
     1.0000   1.0000   1.0000   1.0000   1.0000   1.0000   1.0000   1.0000
     1.0000   1.0000   1.0000   1.0000   1.0000   1.0000   1.0000   1.0000
     1.0000   1.0000   1.0000   0.0000   0.0000

          k = 0.0833 0.2406-0.3068 (  2798 PWs)   bands (ev):

   -76.9323 -76.9323 -40.2425 -40.2425 -40.1143 -40.1143 -40.0783 -40.0783
    13.5077  13.5077  15.6490  15.6490  16.2776  16.2776  17.0236  17.0236
    18.0242  18.0242  18.5693  18.5693  34.9765

     occupation numbers 
     1.0000   1.0000   1.0000   1.0000   1.0000   1.0000   1.0000   1.0000
     1.0000   1.0000   1.0000   1.0000   1.0000   1.0000   1.0000   1.0000
     1.0000   1.0000   1.0000   1.0000   0.0000

          k = 0.0833 0.3368 0.0000 (  2795 PWs)   bands (ev):

   -76.9418 -76.9034 -40.3021 -40.2376 -40.1988 -40.1277 -40.0813 -40.0652
    12.8193  14.7811  15.1896  15.6853  16.4868  16.5310  16.8974  17.5091
    17.8332  18.1817  18.4711  24.6540  26.2064

     occupation numbers 
     1.0000   1.0000   1.0000   1.0000   1.0000   1.0000   1.0000   1.0000
     1.0000   1.0000   1.0000   1.0000   1.0000   1.0000   1.0000   1.0000
     1.0000   1.0000   1.0000   0.0000   0.0000

          k = 0.0833 0.3368 0.1023 (  2790 PWs)   bands (ev):

   -76.9392 -76.9060 -40.3066 -40.2240 -40.2035 -40.1271 -40.0832 -40.0684
    12.9823  14.8438  15.0969  15.7350  16.3191  16.7198  16.8654  17.5407
    17.9229  18.0408  18.4803  22.6402  28.6203

     occupation numbers 
     1.0000   1.0000   1.0000   1.0000   1.0000   1.0000   1.0000   1.0000
     1.0000   1.0000   1.0000   1.0000   1.0000   1.0000   1.0000   1.0000
     1.0000   1.0000   1.0000   0.0000   0.0000

          k = 0.0833 0.3368 0.2046 (  2791 PWs)   bands (ev):

   -76.9322 -76.9130 -40.3026 -40.2473 -40.1698 -40.1211 -40.0938 -40.0785
    13.4241  14.5906  15.2147  15.8042  16.2307  16.7255  16.9420  17.5458
    17.9897  18.1573  18.4451  20.5385  31.0532

     occupation numbers 
     1.0000   1.0000   1.0000   1.0000   1.0000   1.0000   1.0000   1.0000
     1.0000   1.0000   1.0000   1.0000   1.0000   1.0000   1.0000   1.0000
     1.0000   1.0000   1.0000   0.0000   0.0000

          k = 0.0833 0.3368-0.3068 (  2792 PWs)   bands (ev):

   -76.9226 -76.9226 -40.2808 -40.2808 -40.1320 -40.1320 -40.0938 -40.0938
    14.0169  14.0169  15.5623  15.5623  16.4584  16.4584  17.2228  17.2228
    18.2335  18.2335  19.0321  19.0321  32.2618

     occupation numbers 
     1.0000   1.0000   1.0000   1.0000   1.0000   1.0000   1.0000   1.0000
     1.0000   1.0000   1.0000   1.0000   1.0000   1.0000   1.0000   1.0000
     1.0000   1.0000   1.0000   1.0000   0.0000

          k = 0.0833 0.4330 0.0000 (  2799 PWs)   bands (ev):

   -76.9281 -76.9001 -40.2940 -40.2646 -40.2468 -40.1496 -40.1039 -40.0777
    13.8395  14.5989  14.7943  15.9183  16.3634  16.6859  16.7308  18.0469
    18.2792  18.4930  18.9992  25.5619  26.6709

     occupation numbers 
     1.0000   1.0000   1.0000   1.0000   1.0000   1.0000   1.0000   1.0000
     1.0000   1.0000   1.0000   1.0000   1.0000   1.0000   1.0000   1.0000
     1.0000   1.0000   1.0000   0.0000   0.0000

          k = 0.0833 0.4330 0.1023 (  2800 PWs)   bands (ev):

   -76.9262 -76.9020 -40.3176 -40.2662 -40.2232 -40.1460 -40.1028 -40.0806
    13.8281  14.6169  14.9543  15.6695  16.4395  16.7679  17.0333  17.9962
    18.3064  18.3407  18.9985  23.7265  27.4049

     occupation numbers 
     1.0000   1.0000   1.0000   1.0000   1.0000   1.0000   1.0000   1.0000
     1.0000   1.0000   1.0000   1.0000   1.0000   1.0000   1.0000   1.0000
     1.0000   1.0000   1.0000   0.0000   0.0000

          k = 0.0833 0.4330 0.2046 (  2792 PWs)   bands (ev):

   -76.9211 -76.9071 -40.3318 -40.2964 -40.1760 -40.1340 -40.1097 -40.0885
    13.9056  14.4841  15.1465  15.6286  16.5459  16.9883  17.4314  17.7394
    18.1757  18.5002  19.0566  21.5627  28.1394

     occupation numbers 
     1.0000   1.0000   1.0000   1.0000   1.0000   1.0000   1.0000   1.0000
     1.0000   1.0000   1.0000   1.0000   1.0000   1.0000   1.0000   1.0000
     1.0000   1.0000   1.0000   0.0000   0.0000

          k = 0.0833 0.4330-0.3068 (  2796 PWs)   bands (ev):

   -76.9141 -76.9141 -40.3231 -40.3231 -40.1405 -40.1405 -40.1046 -40.1046
    14.1496  14.1496  15.4379  15.4379  16.9928  16.9928  17.3987  17.3987
    18.4485  18.4485  19.8830  19.8830  29.1800

     occupation numbers 
     1.0000   1.0000   1.0000   1.0000   1.0000   1.0000   1.0000   1.0000
     1.0000   1.0000   1.0000   1.0000   1.0000   1.0000   1.0000   1.0000
     1.0000   1.0000   0.0000   0.0000   0.0000

          k = 0.0833 0.5292 0.0000 (  2792 PWs)   bands (ev):

   -76.9191 -76.8994 -40.3267 -40.2746 -40.2361 -40.1618 -40.1237 -40.0849
    14.2913  14.4325  14.5970  16.2909  16.3221  16.5392  16.8929  18.4373
    18.5022  18.5154  20.2885  23.2844  28.5941

     occupation numbers 
     1.0000   1.0000   1.0000   1.0000   1.0000   1.0000   1.0000   1.0000
     1.0000   1.0000   1.0000   1.0000   1.0000   1.0000   1.0000   1.0000
     1.0000   1.0000   0.0000   0.0000   0.0000

          k = 0.0833 0.5292 0.1023 (  2803 PWs)   bands (ev):

   -76.9177 -76.9007 -40.3411 -40.2916 -40.2123 -40.1550 -40.1198 -40.0880
    14.0713  14.4394  15.0417  15.6118  16.3703  16.9581  17.3055  18.2792
    18.4587  18.5466  20.2133  23.0032  27.3746

     occupation numbers 
     1.0000   1.0000   1.0000   1.0000   1.0000   1.0000   1.0000   1.0000
     1.0000   1.0000   1.0000   1.0000   1.0000   1.0000   1.0000   1.0000
     1.0000   1.0000   0.0000   0.0000   0.0000

          k = 0.0833 0.5292 0.2046 (  2800 PWs)   bands (ev):

   -76.9142 -76.9043 -40.3553 -40.3243 -40.1745 -40.1356 -40.1232 -40.0944
    13.9770  14.4138  15.1772  15.4846  16.5445  17.2979  17.7184  17.9868
    18.4173  18.6173  20.2357  22.1119  26.6817

     occupation numbers 
     1.0000   1.0000   1.0000   1.0000   1.0000   1.0000   1.0000   1.0000
     1.0000   1.0000   1.0000   1.0000   1.0000   1.0000   1.0000   1.0000
     1.0000   1.0000   0.0000   0.0000   0.0000

          k = 0.0833 0.5292-0.3068 (  2794 PWs)   bands (ev):

   -76.9092 -76.9092 -40.3496 -40.3496 -40.1452 -40.1452 -40.1088 -40.1088
    14.1350  14.1350  15.3499  15.3499  17.1041  17.1041  17.8393  17.8393
    18.4906  18.4906  20.9703  20.9703  26.9607

     occupation numbers 
     1.0000   1.0000   1.0000   1.0000   1.0000   1.0000   1.0000   1.0000
     1.0000   1.0000   1.0000   1.0000   1.0000   1.0000   1.0000   1.0000
     1.0000   1.0000   0.0000   0.0000   0.0000

          k = 0.1667 0.2887 0.0000 (  2786 PWs)   bands (ev):

   -76.9438 -76.9040 -40.3072 -40.2119 -40.2025 -40.1196 -40.0784 -40.0739
    12.6732  14.9691  15.3067  15.4516  16.4093  16.5343  17.0012  17.2558
    17.8194  18.2058  18.4294  24.3932  26.2496

     occupation numbers 
     1.0000   1.0000   1.0000   1.0000   1.0000   1.0000   1.0000   1.0000
     1.0000   1.0000   1.0000   1.0000   1.0000   1.0000   1.0000   1.0000
     1.0000   1.0000   1.0000   0.0000   0.0000

          k = 0.1667 0.2887 0.1023 (  2787 PWs)   bands (ev):

   -76.9411 -76.9067 -40.3063 -40.2102 -40.1959 -40.1272 -40.0780 -40.0761
    12.8587  15.0654  15.1600  15.5064  16.3673  16.5446  16.8832  17.3534
    17.9388  18.0309  18.4928  22.5025  28.6115

     occupation numbers 
     1.0000   1.0000   1.0000   1.0000   1.0000   1.0000   1.0000   1.0000
     1.0000   1.0000   1.0000   1.0000   1.0000   1.0000   1.0000   1.0000
     1.0000   1.0000   1.0000   0.0000   0.0000

          k = 0.1667 0.2887 0.2046 (  2789 PWs)   bands (ev):

   -76.9338 -76.9140 -40.2957 -40.2362 -40.1614 -40.1309 -40.0880 -40.0818
    13.3671  14.7144  15.3285  15.6636  16.1739  16.4064  16.8854  17.4811
    17.9962  18.1429  18.5227  20.4631  31.9948

     occupation numbers 
     1.0000   1.0000   1.0000   1.0000   1.0000   1.0000   1.0000   1.0000
     1.0000   1.0000   1.0000   1.0000   1.0000   1.0000   1.0000   1.0000
     1.0000   1.0000   1.0000   0.0000   0.0000

          k = 0.1667 0.2887-0.3068 (  2794 PWs)   bands (ev):

   -76.9239 -76.9239 -40.2701 -40.2701 -40.1337 -40.1337 -40.0933 -40.0933
    14.0547  14.0547  15.6559  15.6559  16.1188  16.1188  17.1695  17.1695
    18.2848  18.2848  19.0133  19.0133  33.9845

     occupation numbers 
     1.0000   1.0000   1.0000   1.0000   1.0000   1.0000   1.0000   1.0000
     1.0000   1.0000   1.0000   1.0000   1.0000   1.0000   1.0000   1.0000
     1.0000   1.0000   1.0000   1.0000   0.0000

          k = 0.1667 0.3849 0.0000 (  2795 PWs)   bands (ev):

   -76.9304 -76.9005 -40.2713 -40.2620 -40.2392 -40.1495 -40.0995 -40.0963
    13.7860  14.9416  14.9499  15.4269  16.2436  16.6801  16.7964  17.5818
    18.2759  18.4210  19.0347  26.2737  26.6418

     occupation numbers 
     1.0000   1.0000   1.0000   1.0000   1.0000   1.0000   1.0000   1.0000
     1.0000   1.0000   1.0000   1.0000   1.0000   1.0000   1.0000   1.0000
     1.0000   1.0000   1.0000   0.0000   0.0000

          k = 0.1667 0.3849 0.1023 (  2796 PWs)   bands (ev):

   -76.9284 -76.9025 -40.2983 -40.2574 -40.2129 -40.1557 -40.1034 -40.0901
    13.8611  14.8725  15.0497  15.5109  16.2887  16.6730  16.7483  17.6225
    18.2041  18.3660  19.1199  23.8083  28.8399

     occupation numbers 
     1.0000   1.0000   1.0000   1.0000   1.0000   1.0000   1.0000   1.0000
     1.0000   1.0000   1.0000   1.0000   1.0000   1.0000   1.0000   1.0000
     1.0000   1.0000   0.0537   0.0000   0.0000

          k = 0.1667 0.3849 0.2046 (  2796 PWs)   bands (ev):

   -76.9229 -76.9080 -40.3115 -40.2792 -40.1736 -40.1540 -40.1110 -40.0885
    14.0687  14.6663  15.3006  15.7436  16.1993  16.5068  16.8934  17.6039
    18.1062  18.5197  19.2984  21.5887  29.8541

     occupation numbers 
     1.0000   1.0000   1.0000   1.0000   1.0000   1.0000   1.0000   1.0000
     1.0000   1.0000   1.0000   1.0000   1.0000   1.0000   1.0000   1.0000
     1.0000   1.0000   0.0000   0.0000   0.0000

          k = 0.1667 0.3849-0.3068 (  2794 PWs)   bands (ev):

   -76.9154 -76.9154 -40.3028 -40.3028 -40.1538 -40.1538 -40.1022 -40.1022
    14.3628  14.3628  15.6468  15.6468  16.2832  16.2832  17.1801  17.1801
    18.5023  18.5023  19.9859  19.9859  31.0034

     occupation numbers 
     1.0000   1.0000   1.0000   1.0000   1.0000   1.0000   1.0000   1.0000
     1.0000   1.0000   1.0000   1.0000   1.0000   1.0000   1.0000   1.0000
     1.0000   1.0000   0.0000   0.0000   0.0000

          k = 0.1667 0.4811 0.0000 (  2792 PWs)   bands (ev):

   -76.9191 -76.8994 -40.3017 -40.2579 -40.2366 -40.1774 -40.1233 -40.1115
    14.4869  14.7173  14.7410  15.7454  16.2011  16.5703  16.8889  18.0154
    18.4141  18.4976  20.2311  24.9611  28.3091

     occupation numbers 
     1.0000   1.0000   1.0000   1.0000   1.0000   1.0000   1.0000   1.0000
     1.0000   1.0000   1.0000   1.0000   1.0000   1.0000   1.0000   1.0000
     1.0000   1.0000   0.0000   0.0000   0.0000

          k = 0.1667 0.4811 0.1023 (  2800 PWs)   bands (ev):

   -76.9178 -76.9007 -40.3163 -40.2773 -40.2128 -40.1719 -40.1262 -40.1037
    14.3194  14.7988  14.9952  15.5555  16.2503  16.7079  16.9708  18.0024
    18.2161  18.5604  20.3112  24.3670  27.1936

     occupation numbers 
     1.0000   1.0000   1.0000   1.0000   1.0000   1.0000   1.0000   1.0000
     1.0000   1.0000   1.0000   1.0000   1.0000   1.0000   1.0000   1.0000
     1.0000   1.0000   0.0000   0.0000   0.0000

          k = 0.1667 0.4811 0.2046 (  2802 PWs)   bands (ev):

   -76.9142 -76.9043 -40.3320 -40.3063 -40.1914 -40.1563 -40.1266 -40.0955
    14.2736  14.7169  15.1951  15.7451  16.1408  16.8385  17.2047  17.6902
    18.1989  18.6381  20.6147  22.8185  27.3000

     occupation numbers 
     1.0000   1.0000   1.0000   1.0000   1.0000   1.0000   1.0000   1.0000
     1.0000   1.0000   1.0000   1.0000   1.0000   1.0000   1.0000   1.0000
     1.0000   1.0000   0.0000   0.0000   0.0000

          k = 0.1667 0.4811-0.3068 (  2796 PWs)   bands (ev):

   -76.9092 -76.9092 -40.3285 -40.3285 -40.1709 -40.1709 -40.1046 -40.1046
    14.4304  14.4304  15.5409  15.5409  16.5557  16.5557  17.3690  17.3690
    18.5067  18.5067  21.4128  21.4128  28.1771

     occupation numbers 
     1.0000   1.0000   1.0000   1.0000   1.0000   1.0000   1.0000   1.0000
     1.0000   1.0000   1.0000   1.0000   1.0000   1.0000   1.0000   1.0000
     1.0000   1.0000   0.0000   0.0000   0.0000

          k = 0.1667 0.5774 0.0000 (  2802 PWs)   bands (ev):

   -76.9142 -76.8998 -40.3161 -40.2637 -40.2190 -40.1889 -40.1369 -40.1170
    14.6375  14.6422  14.6621  15.9724  16.2278  16.4457  16.9786  18.3109
    18.4114  18.4678  21.4987  23.1188  29.6153

     occupation numbers 
     1.0000   1.0000   1.0000   1.0000   1.0000   1.0000   1.0000   1.0000
     1.0000   1.0000   1.0000   1.0000   1.0000   1.0000   1.0000   1.0000
     1.0000   1.0000   0.0000   0.0000   0.0000

          k = 0.1667 0.5774 0.1023 (  2799 PWs)   bands (ev):

   -76.9132 -76.9008 -40.3276 -40.2817 -40.2150 -40.1676 -40.1400 -40.1096
    14.3404  14.7119  15.1642  15.5359  16.1705  16.8306  17.0661  18.1882
    18.3078  18.5199  21.5903  23.0590  28.4726

     occupation numbers 
     1.0000   1.0000   1.0000   1.0000   1.0000   1.0000   1.0000   1.0000
     1.0000   1.0000   1.0000   1.0000   1.0000   1.0000   1.0000   1.0000
     1.0000   1.0000   0.0000   0.0000   0.0000

          k = 0.1667 0.5774 0.2046 (  2796 PWs)   bands (ev):

   -76.9106 -76.9034 -40.3415 -40.3147 -40.1997 -40.1552 -40.1309 -40.0990
    14.2692  14.7278  15.2350  15.6987  16.0562  17.0422  17.3343  17.7613
    18.3260  18.5609  21.8814  22.8308  27.2173

     occupation numbers 
     1.0000   1.0000   1.0000   1.0000   1.0000   1.0000   1.0000   1.0000
     1.0000   1.0000   1.0000   1.0000   1.0000   1.0000   1.0000   1.0000
     1.0000   1.0000   0.0000   0.0000   0.0000

          k = 0.1667 0.5774-0.3068 (  2786 PWs)   bands (ev):

   -76.9070 -76.9070 -40.3381 -40.3381 -40.1775 -40.1775 -40.1049 -40.1049
    14.4329  14.4329  15.4995  15.4995  16.5965  16.5965  17.5790  17.5790
    18.4426  18.4426  22.3742  22.3742  26.7439

     occupation numbers 
     1.0000   1.0000   1.0000   1.0000   1.0000   1.0000   1.0000   1.0000
     1.0000   1.0000   1.0000   1.0000   1.0000   1.0000   1.0000   1.0000
     1.0000   1.0000   0.0000   0.0000   0.0000

          k = 0.2500 0.4330 0.0000 (  2810 PWs)   bands (ev):

   -76.9191 -76.8994 -40.2799 -40.2581 -40.2368 -40.1795 -40.1314 -40.1231
    14.6289  14.7869  15.1587  15.1925  16.1250  16.5934  16.8969  17.7690
    18.3687  18.5010  20.2460  26.7143  27.5365

     occupation numbers 
     1.0000   1.0000   1.0000   1.0000   1.0000   1.0000   1.0000   1.0000
     1.0000   1.0000   1.0000   1.0000   1.0000   1.0000   1.0000   1.0000
     1.0000   1.0000   0.0000   0.0000   0.0000

          k = 0.2500 0.4330 0.1023 (  2809 PWs)   bands (ev):

   -76.9178 -76.9007 -40.2906 -40.2842 -40.1987 -40.1924 -40.1340 -40.1088
    14.6295  14.7374  15.2047  15.3412  16.2766  16.4414  16.8962  17.8112
    18.1596  18.5676  20.3694  25.1357  27.8185

     occupation numbers 
     1.0000   1.0000   1.0000   1.0000   1.0000   1.0000   1.0000   1.0000
     1.0000   1.0000   1.0000   1.0000   1.0000   1.0000   1.0000   1.0000
     1.0000   1.0000   0.0000   0.0000   0.0000

          k = 0.2500 0.4330 0.2046 (  2794 PWs)   bands (ev):

   -76.9142 -76.9043 -40.3139 -40.2997 -40.1975 -40.1747 -40.1264 -40.0960
    14.6206  14.6808  15.3753  15.7300  16.1053  16.3854  16.9400  17.5972
    18.1658  18.6461  20.7402  23.1016  28.5980

     occupation numbers 
     1.0000   1.0000   1.0000   1.0000   1.0000   1.0000   1.0000   1.0000
     1.0000   1.0000   1.0000   1.0000   1.0000   1.0000   1.0000   1.0000
     1.0000   1.0000   0.0000   0.0000   0.0000

          k = 0.2500 0.4330-0.3068 (  2786 PWs)   bands (ev):

   -76.9092 -76.9092 -40.3153 -40.3153 -40.1854 -40.1854 -40.1034 -40.1034
    14.6378  14.6378  15.7021  15.7021  16.1664  16.1664  17.1597  17.1597
    18.5271  18.5271  21.5790  21.5790  29.6208

     occupation numbers 
     1.0000   1.0000   1.0000   1.0000   1.0000   1.0000   1.0000   1.0000
     1.0000   1.0000   1.0000   1.0000   1.0000   1.0000   1.0000   1.0000
     1.0000   1.0000   0.0000   0.0000   0.0000

          k = 0.2500 0.5292 0.0000 (  2818 PWs)   bands (ev):

   -76.9108 -76.9006 -40.2934 -40.2488 -40.2114 -40.2061 -40.1540 -40.1476
    14.7165  14.9220  15.0140  15.5216  16.1428  16.3807  17.0701  18.0604
    18.3380  18.4323  21.9219  24.5265  26.8766

     occupation numbers 
     1.0000   1.0000   1.0000   1.0000   1.0000   1.0000   1.0000   1.0000
     1.0000   1.0000   1.0000   1.0000   1.0000   1.0000   1.0000   1.0000
     1.0000   1.0000   0.0000   0.0000   0.0000

          k = 0.2500 0.5292 0.1023 (  2804 PWs)   bands (ev):

   -76.9101 -76.9013 -40.2997 -40.2716 -40.2298 -40.1771 -40.1572 -40.1256
    14.6597  15.0461  15.1392  15.4158  16.1674  16.3828  17.0814  18.0684
    18.1351  18.4792  22.1081  24.5336  26.8999

     occupation numbers 
     1.0000   1.0000   1.0000   1.0000   1.0000   1.0000   1.0000   1.0000
     1.0000   1.0000   1.0000   1.0000   1.0000   1.0000   1.0000   1.0000
     1.0000   1.0000   0.0000   0.0000   0.0000

          k = 0.2500 0.5292 0.2046 (  2796 PWs)   bands (ev):

   -76.9082 -76.9031 -40.3153 -40.3003 -40.2289 -40.1873 -40.1250 -40.1038
    14.6751  15.0367  15.2995  15.6110  16.0209  16.4020  17.1366  17.6211
    18.2413  18.5248  22.5996  24.2075  26.8261

     occupation numbers 
     1.0000   1.0000   1.0000   1.0000   1.0000   1.0000   1.0000   1.0000
     1.0000   1.0000   1.0000   1.0000   1.0000   1.0000   1.0000   1.0000
     1.0000   1.0000   0.0000   0.0000   0.0000

          k = 0.2500 0.5292-0.3068 (  2800 PWs)   bands (ev):

   -76.9057 -76.9057 -40.3179 -40.3179 -40.2097 -40.2097 -40.1027 -40.1027
    14.8140  14.8140  15.5979  15.5979  16.1712  16.1712  17.2735  17.2735
    18.4350  18.4350  23.3605  23.3605  27.3750

     occupation numbers 
     1.0000   1.0000   1.0000   1.0000   1.0000   1.0000   1.0000   1.0000
     1.0000   1.0000   1.0000   1.0000   1.0000   1.0000   1.0000   1.0000
     1.0000   1.0000   0.0000   0.0000   0.0000

          k = 0.3333 0.5774 0.0000 (  2826 PWs)   bands (ev):

   -76.9044 -76.9044 -40.2826 -40.2330 -40.2330 -40.1808 -40.1757 -40.1757
    14.7291  15.1232  15.1232  15.3945  16.2106  16.2106  17.1716  18.2140
    18.2140  18.3076  23.6676  24.5352  24.5352

     occupation numbers 
     1.0000   1.0000   1.0000   1.0000   1.0000   1.0000   1.0000   1.0000
     1.0000   1.0000   1.0000   1.0000   1.0000   1.0000   1.0000   1.0000
     1.0000   1.0000   0.0000   0.0000   0.0000

          k = 0.3333 0.5774 0.1023 (  2823 PWs)   bands (ev):

   -76.9044 -76.9044 -40.2758 -40.2611 -40.2611 -40.1876 -40.1474 -40.1474
    14.8249  15.1434  15.1434  15.4130  16.1841  16.1841  17.1449  18.0713
    18.2592  18.2592  24.0685  24.6028  24.6028

     occupation numbers 
     1.0000   1.0000   1.0000   1.0000   1.0000   1.0000   1.0000   1.0000
     1.0000   1.0000   1.0000   1.0000   1.0000   1.0000   1.0000   1.0000
     1.0000   1.0000   0.0000   0.0000   0.0000

          k = 0.3333 0.5774 0.2046 (  2802 PWs)   bands (ev):

   -76.9044 -76.9044 -40.2938 -40.2938 -40.2572 -40.2063 -40.1144 -40.1144
    15.0690  15.1819  15.1819  15.4259  16.1377  16.1377  17.1123  17.5861
    18.3455  18.3455  24.7697  24.7697  25.0952

     occupation numbers 
     1.0000   1.0000   1.0000   1.0000   1.0000   1.0000   1.0000   1.0000
     1.0000   1.0000   1.0000   1.0000   1.0000   1.0000   1.0000   1.0000
     1.0000   1.0000   0.0000   0.0000   0.0000

          k = 0.3333 0.5774-0.3068 (  2778 PWs)   bands (ev):

   -76.9044 -76.9044 -40.3062 -40.3062 -40.2318 -40.2318 -40.1018 -40.1018
    15.2001  15.2001  15.3212  15.3212  16.1179  16.1179  17.2172  17.2172
    18.3869  18.3869  24.8765  24.8765  26.5067

     occupation numbers 
     1.0000   1.0000   1.0000   1.0000   1.0000   1.0000   1.0000   1.0000
     1.0000   1.0000   1.0000   1.0000   1.0000   1.0000   1.0000   1.0000
     1.0000   1.0000   0.0000   0.0000   0.0000

 ------ SPIN DOWN ----------


          k = 0.0000 0.0000 0.0000 (  2779 PWs)   bands (ev):

   -74.9086 -74.8443 -38.3849 -38.0609 -38.0609 -38.0090 -38.0085 -38.0085
    10.0258  14.7911  18.0806  18.1598  18.1598  18.5306  18.5306  18.7516
    19.0068  19.0068  20.2418  20.2418  26.5647

     occupation numbers 
     1.0000   1.0000   1.0000   1.0000   1.0000   1.0000   1.0000   1.0000
     1.0000   1.0000   1.0000   1.0000   1.0000   1.0000   1.0000   1.0000
     1.0000   1.0000   0.0000   0.0000   0.0000

          k = 0.0000 0.0000 0.1023 (  2797 PWs)   bands (ev):

   -74.9043 -74.8486 -38.3601 -38.0574 -38.0574 -38.0346 -38.0120 -38.0120
    10.3058  14.5592  17.9872  18.0964  18.0964  18.1725  18.4475  18.4475
    19.1826  19.1826  20.2241  20.2241  27.8721

     occupation numbers 
     1.0000   1.0000   1.0000   1.0000   1.0000   1.0000   1.0000   1.0000
     1.0000   1.0000   1.0000   1.0000   1.0000   1.0000   1.0000   1.0000
     0.0000   0.0000   0.0000   0.0000   0.0000

          k = 0.0000 0.0000 0.2046 (  2816 PWs)   bands (ev):

   -74.8926 -74.8604 -38.2921 -38.1041 -38.0479 -38.0479 -38.0216 -38.0216
[...]
    20.4095  20.4495  21.6297  24.1974  29.1002

     occupation numbers 
     1.0000   1.0000   1.0000   1.0000   1.0000   1.0000   1.0000   1.0000
     1.0000   1.0000   1.0000   1.0000   1.0000   1.0000   1.0000   0.0000
     0.0000   0.0000   0.0000   0.0000   0.0000

          k = 0.0833 0.5292 0.1023 (  2803 PWs)   bands (ev):

   -74.8437 -74.8255 -38.3486 -38.2952 -38.1967 -38.1464 -38.0963 -38.0730
    15.0012  15.6063  16.1714  16.7343  17.9914  18.4960  18.5377  20.1787
    20.3445  20.4490  21.4887  23.8438  28.0905

     occupation numbers 
     1.0000   1.0000   1.0000   1.0000   1.0000   1.0000   1.0000   1.0000
     1.0000   1.0000   1.0000   1.0000   1.0000   1.0000   1.0000   0.0000
     0.0000   0.0000   0.0000   0.0000   0.0000

          k = 0.0833 0.5292 0.2046 (  2800 PWs)   bands (ev):

   -74.8399 -74.8293 -38.3627 -38.3295 -38.1598 -38.1221 -38.1059 -38.0758
    14.9685  15.4496  16.4761  16.7924  18.0410  18.8243  19.0282  19.7083
    20.2965  20.5356  21.2668  22.8810  27.5735

     occupation numbers 
     1.0000   1.0000   1.0000   1.0000   1.0000   1.0000   1.0000   1.0000
     1.0000   1.0000   1.0000   1.0000   1.0000   1.0000   1.0000   0.0000
     0.0000   0.0000   0.0000   0.0000   0.0000

          k = 0.0833 0.5292-0.3068 (  2794 PWs)   bands (ev):

   -74.8346 -74.8346 -38.3564 -38.3564 -38.1305 -38.1305 -38.0909 -38.0909
    15.1451  15.1451  16.7363  16.7363  18.5587  18.5587  19.3511  19.3511
    20.3834  20.3834  21.8071  21.8071  27.8347

     occupation numbers 
     1.0000   1.0000   1.0000   1.0000   1.0000   1.0000   1.0000   1.0000
     1.0000   1.0000   1.0000   1.0000   1.0000   1.0000   0.0000   0.0000
     0.0000   0.0000   0.0000   0.0000   0.0000

          k = 0.1667 0.2887 0.0000 (  2786 PWs)   bands (ev):

   -74.8717 -74.8290 -38.2977 -38.2095 -38.1999 -38.1089 -38.0596 -38.0486
    12.7442  16.1406  16.4466  16.8309  18.0451  18.0866  18.6403  18.9971
    19.6004  19.9688  20.3658  25.1726  27.0047

     occupation numbers 
     1.0000   1.0000   1.0000   1.0000   1.0000   1.0000   1.0000   1.0000
     1.0000   1.0000   1.0000   1.0000   1.0000   1.0000   1.0000   1.0000
     0.0000   0.0000   0.0000   0.0000   0.0000

          k = 0.1667 0.2887 0.1023 (  2787 PWs)   bands (ev):

   -74.8688 -74.8318 -38.2991 -38.2073 -38.1897 -38.1152 -38.0640 -38.0491
    12.9562  16.0598  16.3611  16.8986  17.9463  18.1122  18.5317  19.0987
    19.7307  19.8390  20.3769  23.5126  29.2073

     occupation numbers 
     1.0000   1.0000   1.0000   1.0000   1.0000   1.0000   1.0000   1.0000
     1.0000   1.0000   1.0000   1.0000   1.0000   1.0000   1.0000   0.7230
     0.0000   0.0000   0.0000   0.0000   0.0000

          k = 0.1667 0.2887 0.2046 (  2789 PWs)   bands (ev):

   -74.8610 -74.8397 -38.2911 -38.2327 -38.1490 -38.1179 -38.0746 -38.0594
    13.5569  15.3693  16.6236  17.0717  17.6722  17.9461  18.5867  19.1986
    19.8293  19.9615  20.3312  21.7728  32.4761

     occupation numbers 
     1.0000   1.0000   1.0000   1.0000   1.0000   1.0000   1.0000   1.0000
     1.0000   1.0000   1.0000   1.0000   1.0000   1.0000   1.0000   0.0000
     0.0000   0.0000   0.0000   0.0000   0.0000

          k = 0.1667 0.2887-0.3068 (  2794 PWs)   bands (ev):

   -74.8503 -74.8503 -38.2663 -38.2663 -38.1185 -38.1185 -38.0777 -38.0777
    14.4315  14.4315  17.0076  17.0076  17.6269  17.6269  18.8987  18.8987
    20.1548  20.1548  20.5696  20.5696  34.4025

     occupation numbers 
     1.0000   1.0000   1.0000   1.0000   1.0000   1.0000   1.0000   1.0000
     1.0000   1.0000   1.0000   1.0000   1.0000   1.0000   1.0000   1.0000
     0.0000   0.0000   0.0000   0.0000   0.0000

          k = 0.1667 0.3849 0.0000 (  2795 PWs)   bands (ev):

   -74.8573 -74.8252 -38.2644 -38.2584 -38.2393 -38.1414 -38.0837 -38.0715
    14.0110  16.1414  16.2079  16.6460  17.8346  18.2253  18.3940  19.3550
    20.1214  20.3560  20.7209  26.9668  27.2570

     occupation numbers 
     1.0000   1.0000   1.0000   1.0000   1.0000   1.0000   1.0000   1.0000
     1.0000   1.0000   1.0000   1.0000   1.0000   1.0000   1.0000   0.0000
     0.0000   0.0000   0.0000   0.0000   0.0000

          k = 0.1667 0.3849 0.1023 (  2796 PWs)   bands (ev):

   -74.8552 -74.8273 -38.2961 -38.2580 -38.2032 -38.1464 -38.0898 -38.0652
    14.1556  16.0041  16.3121  16.7514  17.8040  18.1988  18.3473  19.4016
    20.0876  20.2258  20.8263  24.6245  29.4494

     occupation numbers 
     1.0000   1.0000   1.0000   1.0000   1.0000   1.0000   1.0000   1.0000
     1.0000   1.0000   1.0000   1.0000   1.0000   1.0000   1.0000   0.0000
     0.0000   0.0000   0.0000   0.0000   0.0000

          k = 0.1667 0.3849 0.2046 (  2796 PWs)   bands (ev):

   -74.8493 -74.8332 -38.3118 -38.2802 -38.1608 -38.1421 -38.0981 -38.0658
    14.5516  15.6271  16.5987  16.9706  17.6588  17.9182  18.5421  19.3778
    19.9394  20.4137  20.9098  22.6116  30.4492

     occupation numbers 
     1.0000   1.0000   1.0000   1.0000   1.0000   1.0000   1.0000   1.0000
     1.0000   1.0000   1.0000   1.0000   1.0000   1.0000   1.0000   0.0000
     0.0000   0.0000   0.0000   0.0000   0.0000

          k = 0.1667 0.3849-0.3068 (  2794 PWs)   bands (ev):

   -74.8413 -74.8413 -38.3039 -38.3039 -38.1417 -38.1417 -38.0837 -38.0837
    15.0928  15.0928  16.9485  16.9485  17.6375  17.6375  18.9170  18.9170
    20.4068  20.4068  21.2675  21.2675  31.5572

     occupation numbers 
     1.0000   1.0000   1.0000   1.0000   1.0000   1.0000   1.0000   1.0000
     1.0000   1.0000   1.0000   1.0000   1.0000   1.0000   1.0000   1.0000
     0.0000   0.0000   0.0000   0.0000   0.0000

          k = 0.1667 0.4811 0.0000 (  2792 PWs)   bands (ev):

   -74.8452 -74.8240 -38.3077 -38.2596 -38.2205 -38.1717 -38.1002 -38.0973
    15.1129  15.9636  15.9760  16.7132  17.7735  18.1168  18.4684  19.8311
    20.3479  20.3847  21.6618  25.6985  28.8966

     occupation numbers 
     1.0000   1.0000   1.0000   1.0000   1.0000   1.0000   1.0000   1.0000
     1.0000   1.0000   1.0000   1.0000   1.0000   1.0000   1.0000   0.0000
     0.0000   0.0000   0.0000   0.0000   0.0000

          k = 0.1667 0.4811 0.1023 (  2800 PWs)   bands (ev):

   -74.8438 -74.8254 -38.3210 -38.2790 -38.2005 -38.1623 -38.1117 -38.0823
    15.1179  15.9222  16.1501  16.7402  17.7868  18.0952  18.5437  19.8249
    20.1086  20.4612  21.7117  25.0522  27.9468

     occupation numbers 
     1.0000   1.0000   1.0000   1.0000   1.0000   1.0000   1.0000   1.0000
     1.0000   1.0000   1.0000   1.0000   1.0000   1.0000   1.0000   0.0000
     0.0000   0.0000   0.0000   0.0000   0.0000

          k = 0.1667 0.4811 0.2046 (  2802 PWs)   bands (ev):

   -74.8399 -74.8293 -38.3365 -38.3094 -38.1824 -38.1436 -38.1114 -38.0732
    15.2057  15.7223  16.4874  17.0094  17.6124  18.0779  18.7730  19.4984
    20.0509  20.5603  21.8618  23.5837  28.0948

     occupation numbers 
     1.0000   1.0000   1.0000   1.0000   1.0000   1.0000   1.0000   1.0000
     1.0000   1.0000   1.0000   1.0000   1.0000   1.0000   1.0000   0.0000
     0.0000   0.0000   0.0000   0.0000   0.0000

          k = 0.1667 0.4811-0.3068 (  2796 PWs)   bands (ev):

   -74.8346 -74.8346 -38.3328 -38.3328 -38.1612 -38.1612 -38.0842 -38.0842
    15.4262  15.4262  16.9019  16.9019  17.8082  17.8082  19.0571  19.0571
    20.3990  20.3990  22.3946  22.3946  28.9044

     occupation numbers 
     1.0000   1.0000   1.0000   1.0000   1.0000   1.0000   1.0000   1.0000
     1.0000   1.0000   1.0000   1.0000   1.0000   1.0000   1.0000   1.0000
     0.0000   0.0000   0.0000   0.0000   0.0000

          k = 0.1667 0.5774 0.0000 (  2802 PWs)   bands (ev):

   -74.8399 -74.8245 -38.3234 -38.2659 -38.2013 -38.1842 -38.1120 -38.1061
    15.5683  15.8340  15.9062  16.7902  17.8266  17.9393  18.5770  20.1661
    20.3445  20.3582  22.5867  24.1205  30.0307

     occupation numbers 
     1.0000   1.0000   1.0000   1.0000   1.0000   1.0000   1.0000   1.0000
     1.0000   1.0000   1.0000   1.0000   1.0000   1.0000   1.0000   0.0000
     0.0000   0.0000   0.0000   0.0000   0.0000

          k = 0.1667 0.5774 0.1023 (  2799 PWs)   bands (ev):

   -74.8388 -74.8255 -38.3341 -38.2841 -38.2047 -38.1549 -38.1244 -38.0905
    15.3958  15.8809  16.3033  16.5943  17.7425  18.1318  18.6617  20.0801
    20.1652  20.4209  22.6129  24.0147  29.0704

     occupation numbers 
     1.0000   1.0000   1.0000   1.0000   1.0000   1.0000   1.0000   1.0000
     1.0000   1.0000   1.0000   1.0000   1.0000   1.0000   1.0000   0.0000
     0.0000   0.0000   0.0000   0.0000   0.0000

          k = 0.1667 0.5774 0.2046 (  2796 PWs)   bands (ev):

   -74.8360 -74.8283 -38.3476 -38.3186 -38.1918 -38.1441 -38.1129 -38.0772
    15.3454  15.7824  16.5575  16.9225  17.5214  18.2579  18.9257  19.5700
    20.1947  20.4703  22.7361  23.6685  27.9984

     occupation numbers 
     1.0000   1.0000   1.0000   1.0000   1.0000   1.0000   1.0000   1.0000
     1.0000   1.0000   1.0000   1.0000   1.0000   1.0000   1.0000   0.0000
     0.0000   0.0000   0.0000   0.0000   0.0000

          k = 0.1667 0.5774-0.3068 (  2786 PWs)   bands (ev):

   -74.8321 -74.8321 -38.3435 -38.3435 -38.1687 -38.1687 -38.0838 -38.0838
    15.5034  15.5034  16.8902  16.8902  17.8641  17.8641  19.2263  19.2263
    20.3326  20.3326  23.1375  23.1375  27.6274

     occupation numbers 
     1.0000   1.0000   1.0000   1.0000   1.0000   1.0000   1.0000   1.0000
     1.0000   1.0000   1.0000   1.0000   1.0000   1.0000   0.0000   0.0000
     0.0000   0.0000   0.0000   0.0000   0.0000

          k = 0.2500 0.4330 0.0000 (  2810 PWs)   bands (ev):

   -74.8452 -74.8240 -38.2840 -38.2597 -38.2207 -38.1741 -38.1218 -38.0970
    15.1315  16.0423  16.3315  16.3712  17.6746  18.1465  18.4718  19.5734
    20.2960  20.3863  21.7055  27.2704  28.1418

     occupation numbers 
     1.0000   1.0000   1.0000   1.0000   1.0000   1.0000   1.0000   1.0000
     1.0000   1.0000   1.0000   1.0000   1.0000   1.0000   1.0000   0.0000
     0.0000   0.0000   0.0000   0.0000   0.0000

          k = 0.2500 0.4330 0.1023 (  2809 PWs)   bands (ev):

   -74.8438 -74.8254 -38.2902 -38.2879 -38.1861 -38.1847 -38.1241 -38.0843
    15.2056  15.9599  16.4002  16.5595  17.7198  17.9618  18.4808  19.6197
    20.0472  20.4693  21.8091  25.7836  28.4295

     occupation numbers 
     1.0000   1.0000   1.0000   1.0000   1.0000   1.0000   1.0000   1.0000
     1.0000   1.0000   1.0000   1.0000   1.0000   1.0000   1.0000   0.0000
     0.0000   0.0000   0.0000   0.0000   0.0000

          k = 0.2500 0.4330 0.2046 (  2794 PWs)   bands (ev):

   -74.8399 -74.8293 -38.3155 -38.3027 -38.1913 -38.1641 -38.1106 -38.0727
    15.3947  15.8198  16.6253  16.9242  17.5651  17.6940  18.5723  19.3951
    20.0087  20.5697  22.0466  23.9054  29.2093

     occupation numbers 
     1.0000   1.0000   1.0000   1.0000   1.0000   1.0000   1.0000   1.0000
     1.0000   1.0000   1.0000   1.0000   1.0000   1.0000   1.0000   0.0000
     0.0000   0.0000   0.0000   0.0000   0.0000

          k = 0.2500 0.4330-0.3068 (  2786 PWs)   bands (ev):

   -74.8346 -74.8346 -38.3179 -38.3179 -38.1782 -38.1782 -38.0822 -38.0822
    15.6239  15.6239  16.9745  16.9745  17.4615  17.4615  18.8812  18.8812
    20.4239  20.4239  22.6164  22.6164  30.2199

     occupation numbers 
     1.0000   1.0000   1.0000   1.0000   1.0000   1.0000   1.0000   1.0000
     1.0000   1.0000   1.0000   1.0000   1.0000   1.0000   1.0000   1.0000
     0.0000   0.0000   0.0000   0.0000   0.0000

          k = 0.2500 0.5292 0.0000 (  2818 PWs)   bands (ev):

   -74.8362 -74.8253 -38.2985 -38.2497 -38.2089 -38.1872 -38.1463 -38.1236
    15.8410  16.0127  16.1720  16.4670  17.6755  17.8901  18.6769  19.8957
    20.2607  20.3153  23.0207  25.3193  27.4471

     occupation numbers 
     1.0000   1.0000   1.0000   1.0000   1.0000   1.0000   1.0000   1.0000
     1.0000   1.0000   1.0000   1.0000   1.0000   1.0000   1.0000   0.0000
     0.0000   0.0000   0.0000   0.0000   0.0000

          k = 0.2500 0.5292 0.1023 (  2804 PWs)   bands (ev):

   -74.8355 -74.8260 -38.3038 -38.2720 -38.2258 -38.1650 -38.1442 -38.1033
    15.7818  16.1513  16.2564  16.5276  17.6504  17.7901  18.6910  19.9177
    20.0095  20.3731  23.1829  25.2853  27.5005

     occupation numbers 
     1.0000   1.0000   1.0000   1.0000   1.0000   1.0000   1.0000   1.0000
     1.0000   1.0000   1.0000   1.0000   1.0000   1.0000   1.0000   0.0000
     0.0000   0.0000   0.0000   0.0000   0.0000

          k = 0.2500 0.5292 0.2046 (  2796 PWs)   bands (ev):

   -74.8335 -74.8280 -38.3183 -38.3021 -38.2259 -38.1810 -38.1051 -38.0810
    15.8085  16.1064  16.5403  16.8753  17.3904  17.6526  18.7676  19.4268
    20.1042  20.4280  23.5661  24.8978  27.5681

     occupation numbers 
     1.0000   1.0000   1.0000   1.0000   1.0000   1.0000   1.0000   1.0000
     1.0000   1.0000   1.0000   1.0000   1.0000   1.0000   1.0000   0.0000
     0.0000   0.0000   0.0000   0.0000   0.0000

          k = 0.2500 0.5292-0.3068 (  2800 PWs)   bands (ev):

   -74.8307 -74.8307 -38.3206 -38.3206 -38.2056 -38.2056 -38.0804 -38.0804
    15.9410  15.9410  16.9401  16.9401  17.3646  17.3646  18.9825  18.9825
    20.3224  20.3224  24.1585  24.1585  28.1184

     occupation numbers 
     1.0000   1.0000   1.0000   1.0000   1.0000   1.0000   1.0000   1.0000
     1.0000   1.0000   1.0000   1.0000   1.0000   1.0000   1.0000   1.0000
     0.0000   0.0000   0.0000   0.0000   0.0000

          k = 0.3333 0.5774 0.0000 (  2826 PWs)   bands (ev):

   -74.8294 -74.8294 -38.2866 -38.2326 -38.2326 -38.1754 -38.1541 -38.1541
    16.0506  16.1888  16.1888  16.3776  17.7136  17.7136  18.7871  20.0724
    20.0724  20.2261  24.4853  25.3225  25.3225

     occupation numbers 
     1.0000   1.0000   1.0000   1.0000   1.0000   1.0000   1.0000   1.0000
     1.0000   1.0000   1.0000   1.0000   1.0000   1.0000   1.0000   0.0000
     0.0000   0.0000   0.0000   0.0000   0.0000

          k = 0.3333 0.5774 0.1023 (  2823 PWs)   bands (ev):

   -74.8293 -74.8293 -38.2792 -38.2596 -38.2596 -38.1829 -38.1269 -38.1269
    16.1265  16.2602  16.2602  16.4090  17.6268  17.6268  18.7672  19.9484
    20.1256  20.1256  24.9022  25.3663  25.3663

     occupation numbers 
     1.0000   1.0000   1.0000   1.0000   1.0000   1.0000   1.0000   1.0000
     1.0000   1.0000   1.0000   1.0000   1.0000   1.0000   1.0000   0.0000
     0.0000   0.0000   0.0000   0.0000   0.0000

          k = 0.3333 0.5774 0.2046 (  2802 PWs)   bands (ev):

   -74.8293 -74.8293 -38.2937 -38.2937 -38.2589 -38.2033 -38.0925 -38.0925
    16.3045  16.4297  16.4297  16.4657  17.4349  17.4349  18.7683  19.3932
    20.2237  20.2237  25.4743  25.4743  25.9173

     occupation numbers 
     1.0000   1.0000   1.0000   1.0000   1.0000   1.0000   1.0000   1.0000
     1.0000   1.0000   1.0000   1.0000   1.0000   1.0000   1.0000   0.0000
     0.0000   0.0000   0.0000   0.0000   0.0000

          k = 0.3333 0.5774-0.3068 (  2778 PWs)   bands (ev):

   -74.8293 -74.8293 -38.3069 -38.3069 -38.2311 -38.2311 -38.0790 -38.0790
    16.4500  16.4500  16.5391  16.5391  17.3178  17.3178  18.9465  18.9465
    20.2691  20.2691  25.5424  25.5424  27.2563

     occupation numbers 
     1.0000   1.0000   1.0000   1.0000   1.0000   1.0000   1.0000   1.0000
     1.0000   1.0000   1.0000   1.0000   1.0000   1.0000   1.0000   1.0000
     0.0000   0.0000   0.0000   0.0000   0.0000

     the Fermi energy is    19.1044 ev

!    total energy              =    -753.45477107 Ry
     total all-electron energy =     -5573.811462 Ry
     estimated scf accuracy    <          9.5E-09 Ry
     smearing contrib. (-TS)   =      -0.00002152 Ry
     internal energy E=F+TS    =    -753.45474954 Ry

     The total energy is F=E-TS. E is the sum of the following terms:
     one-electron contribution =    -278.61685012 Ry
     hartree contribution      =     163.48969092 Ry
     xc contribution           =     -61.42502165 Ry
     ewald contribution        =    -401.72656036 Ry
     one-center paw contrib.   =    -175.17600833 Ry
      -> PAW hartree energy AE =     222.15890459 Ry
      -> PAW hartree energy PS =    -221.10282690 Ry
      -> PAW xc energy AE      =    -117.67731060 Ry
      -> PAW xc energy PS      =      29.03322874 Ry
      -> total E_H with PAW    =     164.54576861 Ry
      -> total E_XC with PAW   =    -150.06910351 Ry

     total magnetization       =     3.23 Bohr mag/cell
     absolute magnetization    =     3.55 Bohr mag/cell

     convergence has been achieved in  11 iterations

     Writing all to output data dir ./out/Co.save/
 
     init_run     :      0.38s CPU      0.50s WALL (       1 calls)
     electrons    :     28.99s CPU     30.60s WALL (       1 calls)

     Called by init_run:
     wfcinit      :      0.23s CPU      0.31s WALL (       1 calls)
     potinit      :      0.11s CPU      0.13s WALL (       1 calls)
     hinit0       :      0.03s CPU      0.03s WALL (       1 calls)

     Called by electrons:
     c_bands      :     25.62s CPU     26.87s WALL (      11 calls)
     sum_band     :      2.18s CPU      2.29s WALL (      11 calls)
     v_of_rho     :      0.04s CPU      0.04s WALL (      12 calls)
     v_h          :      0.00s CPU      0.00s WALL (      12 calls)
     v_xc         :      0.04s CPU      0.04s WALL (      12 calls)
     newd         :      0.04s CPU      0.06s WALL (      12 calls)
     PAW_pot      :      1.19s CPU      1.44s WALL (      12 calls)
     mix_rho      :      0.01s CPU      0.01s WALL (      11 calls)

     Called by c_bands:
     init_us_2    :      0.14s CPU      0.14s WALL (    3344 calls)
     init_us_2:cp :      0.14s CPU      0.13s WALL (    3344 calls)
     cegterg      :     24.79s CPU     25.92s WALL (    1711 calls)

     Called by sum_band:
     sum_band:wei :      0.02s CPU      0.02s WALL (      11 calls)
     sum_band:loo :      2.06s CPU      2.16s WALL (      11 calls)
     sum_band:buf :      0.01s CPU      0.01s WALL (    1672 calls)
     sum_band:ini :      0.08s CPU      0.07s WALL (    1672 calls)
     sum_band:cal :      0.16s CPU      0.15s WALL (    1672 calls)
     sum_band:bec :      0.00s CPU      0.01s WALL (    1672 calls)
     addusdens    :      0.09s CPU      0.09s WALL (      11 calls)
                                        0.00s GPU  (      11 calls)
     addusd:skk   :      0.00s CPU      0.00s WALL (      11 calls)
                                        0.00s GPU  (      11 calls)

     Called by *egterg:
     cdiaghg      :      6.53s CPU      6.72s WALL (   11188 calls)
     cegterg:over :      0.85s CPU      0.83s WALL (    9668 calls)
     cegterg:upda :      0.11s CPU      0.21s WALL (    9668 calls)
     cegterg:last :      0.39s CPU      0.41s WALL (    7011 calls)
     h_psi        :     15.75s CPU     16.59s WALL (   11379 calls)
     s_psi        :      0.34s CPU      0.30s WALL (   11379 calls)
     g_psi        :      0.06s CPU      0.07s WALL (    9668 calls)

     Called by h_psi:
     h_psi:calbec :      0.77s CPU      0.73s WALL (   11379 calls)
     vloc_psi     :     14.70s CPU     15.45s WALL (   11379 calls)
     add_vuspsi   :      0.23s CPU      0.33s WALL (   11379 calls)

     General routines
     calbec       :      0.91s CPU      0.86s WALL (   13051 calls)
     fft          :      0.02s CPU      0.02s WALL (     294 calls)
     ffts         :      0.00s CPU      0.00s WALL (      46 calls)
     fftw         :     15.46s CPU     16.00s WALL (  350254 calls)
     interpolate  :      0.00s CPU      0.00s WALL (      24 calls)
 
     Parallel routines

     PAW routines
     PAW_pot      :      1.19s CPU      1.44s WALL (      12 calls)
     PAW_symme    :      0.01s CPU      0.01s WALL (      22 calls)
 
     PWSCF        :     29.69s CPU     31.86s WALL

 
   This run was terminated on:   8:46:16  22Mar2024            

=------------------------------------------------------------------------------=
   JOB DONE.
=------------------------------------------------------------------------------=
