
     Program PWSCF v.7.2 starts on 22Mar2024 at  8:50:36 

     This program is part of the open-source Quantum ESPRESSO suite
     for quantum simulation of materials; please cite
         "P. Giannozzi et al., J. Phys.:Condens. Matter 21 395502 (2009);
         "P. Giannozzi et al., J. Phys.:Condens. Matter 29 465901 (2017);
         "P. Giannozzi et al., J. Chem. Phys. 152 154105 (2020);
          URL http://www.quantum-espresso.org", 
     in publications or presentations arising from this work. More details at
     http://www.quantum-espresso.org/quote

     Parallel version (MPI), running on    20 processors

     MPI processes distributed on     1 nodes
     352373 MiB available memory on the printing compute node when the environment starts
 
     Waiting for input...
     Reading input from standard input

     Current dimensions of program PWSCF are:
     Max number of different atomic species (ntypx) = 10
     Max number of k-points (npk) = 120000
     Max angular momentum in pseudopotentials (lmaxx) =  4
     file Co.pbe-spn-kjpaw_psl.0.3.1.UPF: wavefunction(s)  3P 3D renormalized
 
     R & G space division:  proc/nbgrp/npool/nimage =      20
     Subspace diagonalization in iterative solution of the eigenvalue problem:
     a serial algorithm will be used

 
     Parallelization info
     --------------------
     sticks:   dense  smooth     PW     G-vecs:    dense   smooth      PW
     Min          34      33      9                 1191     1149     181
     Max          36      34     10                 1198     1158     188
     Sum         691     673    199                23865    23067    3741
 
     Using Slab Decomposition
 


     bravais-lattice index     =            4
     lattice parameter (alat)  =       4.7432  a.u.
     unit-cell volume          =     148.3815 (a.u.)^3
     number of atoms/cell      =            2
     number of atomic types    =            1
     number of electrons       =        34.00
     number of Kohn-Sham states=           21
     kinetic-energy cutoff     =     110.0000  Ry
     charge density cutoff     =     450.0000  Ry
     scf convergence threshold =      1.0E-06
     mixing beta               =       0.7000
     number of iterations used =            8  plain     mixing
     Exchange-correlation= SLA  PW   PBX  PBC
                           (   1   4   3   4   0   0   0)

     celldm(1)=   4.743213  celldm(2)=   0.000000  celldm(3)=   1.605578
     celldm(4)=   0.000000  celldm(5)=   0.000000  celldm(6)=   0.000000

     crystal axes: (cart. coord. in units of alat)
               a(1) = (   1.000000   0.000000   0.000000 )  
               a(2) = (  -0.500000   0.866025   0.000000 )  
               a(3) = (   0.000000   0.000000   1.605578 )  

     reciprocal axes: (cart. coord. in units 2 pi/alat)
               b(1) = (  1.000000  0.577350  0.000000 )  
               b(2) = (  0.000000  1.154701  0.000000 )  
               b(3) = (  0.000000  0.000000  0.622829 )  


     PseudoPot. # 1 for Co read from file:
     /truba/home/amuhaymin/ZnS/pseudo/QE/Co.pbe-spn-kjpaw_psl.0.3.1.UPF
     MD5 check sum: b0a1ad65bf214e88c1f3d33b20c7d919
     Pseudo is Projector augmented-wave + core cor, Zval = 17.0
     Generated using &quot;atomic&quot; code by A. Dal Corso  v.6.2.2
     Shape of augmentation charge: PSQ
     Using radial grid of 1193 points,  6 beta functions with: 
                l(1) =   0
                l(2) =   0
                l(3) =   1
                l(4) =   1
                l(5) =   2
                l(6) =   2
     Q(r) pseudized with 0 coefficients 


     atomic species   valence    mass     pseudopotential
        Co            17.00    58.93300     Co( 1.00)

     Starting magnetic structure 
     atomic species   magnetization
        Co           0.294

     24 Sym. Ops., with inversion, found (12 have fractional translation)


                                    s                        frac. trans.

      isym =  1     identity                                     

 cryst.   s( 1) = (     1          0          0      )
                  (     0          1          0      )
                  (     0          0          1      )

 cart.    s( 1) = (  1.0000000  0.0000000  0.0000000 )
                  (  0.0000000  1.0000000  0.0000000 )
                  (  0.0000000  0.0000000  1.0000000 )


      isym =  2     180 deg rotation - cart. axis [0,0,1]        

 cryst.   s( 2) = (    -1          0          0      )    f =(  0.0000000 )
                  (     0         -1          0      )       ( -0.0000000 )
                  (     0          0          1      )       ( -0.5000000 )

 cart.    s( 2) = ( -1.0000000  0.0000000  0.0000000 )    f =(  0.0000000 )
                  (  0.0000000 -1.0000000  0.0000000 )       ( -0.0000000 )
                  (  0.0000000  0.0000000  1.0000000 )       ( -0.8027888 )


      isym =  3     180 deg rotation - cart. axis [0,1,0]        

 cryst.   s( 3) = (    -1          0          0      )    f =(  0.0000000 )
                  (     1          1          0      )       (  0.0000000 )
                  (     0          0         -1      )       (  0.5000000 )

 cart.    s( 3) = ( -1.0000000  0.0000000  0.0000000 )    f =(  0.0000000 )
                  (  0.0000000  1.0000000  0.0000000 )       (  0.0000000 )
                  (  0.0000000  0.0000000 -1.0000000 )       (  0.8027888 )


      isym =  4     180 deg rotation - cart. axis [1,0,0]        

 cryst.   s( 4) = (     1          0          0      )
                  (    -1         -1          0      )
                  (     0          0         -1      )

 cart.    s( 4) = (  1.0000000  0.0000000  0.0000000 )
                  (  0.0000000 -1.0000000  0.0000000 )
                  (  0.0000000  0.0000000 -1.0000000 )


      isym =  5      60 deg rotation - cryst. axis [0,0,1]       

 cryst.   s( 5) = (     1          1          0      )    f =(  0.0000000 )
                  (    -1          0          0      )       ( -0.0000000 )
                  (     0          0          1      )       ( -0.5000000 )

 cart.    s( 5) = (  0.5000000 -0.8660254  0.0000000 )    f =(  0.0000000 )
                  (  0.8660254  0.5000000  0.0000000 )       ( -0.0000000 )
                  (  0.0000000  0.0000000  1.0000000 )       ( -0.8027888 )


      isym =  6      60 deg rotation - cryst. axis [0,0,-1]      

 cryst.   s( 6) = (     0         -1          0      )    f =(  0.0000000 )
                  (     1          1          0      )       ( -0.0000000 )
                  (     0          0          1      )       ( -0.5000000 )

 cart.    s( 6) = (  0.5000000  0.8660254  0.0000000 )    f =(  0.0000000 )
                  ( -0.8660254  0.5000000  0.0000000 )       ( -0.0000000 )
                  (  0.0000000  0.0000000  1.0000000 )       ( -0.8027888 )


      isym =  7     120 deg rotation - cryst. axis [0,0,1]       

 cryst.   s( 7) = (     0          1          0      )
                  (    -1         -1          0      )
                  (     0          0          1      )

 cart.    s( 7) = ( -0.5000000 -0.8660254  0.0000000 )
                  (  0.8660254 -0.5000000  0.0000000 )
                  (  0.0000000  0.0000000  1.0000000 )


      isym =  8     120 deg rotation - cryst. axis [0,0,-1]      

 cryst.   s( 8) = (    -1         -1          0      )
                  (     1          0          0      )
                  (     0          0          1      )

 cart.    s( 8) = ( -0.5000000  0.8660254  0.0000000 )
                  ( -0.8660254 -0.5000000  0.0000000 )
                  (  0.0000000  0.0000000  1.0000000 )


      isym =  9     180 deg rotation - cryst. axis [1,-1,0]      

 cryst.   s( 9) = (     0         -1          0      )    f =( -0.0000000 )
                  (    -1          0          0      )       ( -0.0000000 )
                  (     0          0         -1      )       (  0.5000000 )

 cart.    s( 9) = (  0.5000000 -0.8660254  0.0000000 )    f =( -0.0000000 )
                  ( -0.8660254 -0.5000000  0.0000000 )       ( -0.0000000 )
                  (  0.0000000  0.0000000 -1.0000000 )       (  0.8027888 )


      isym = 10     180 deg rotation - cryst. axis [2,1,0]       

 cryst.   s(10) = (     1          1          0      )    f =(  0.0000000 )
                  (     0         -1          0      )       ( -0.0000000 )
                  (     0          0         -1      )       (  0.5000000 )

 cart.    s(10) = (  0.5000000  0.8660254  0.0000000 )    f =(  0.0000000 )
                  (  0.8660254 -0.5000000  0.0000000 )       ( -0.0000000 )
                  (  0.0000000  0.0000000 -1.0000000 )       (  0.8027888 )


      isym = 11     180 deg rotation - cryst. axis [0,1,0]       

 cryst.   s(11) = (    -1         -1          0      )
                  (     0          1          0      )
                  (     0          0         -1      )

 cart.    s(11) = ( -0.5000000 -0.8660254  0.0000000 )
                  ( -0.8660254  0.5000000  0.0000000 )
                  (  0.0000000  0.0000000 -1.0000000 )


      isym = 12     180 deg rotation - cryst. axis [1,1,0]       

 cryst.   s(12) = (     0          1          0      )
                  (     1          0          0      )
                  (     0          0         -1      )

 cart.    s(12) = ( -0.5000000  0.8660254  0.0000000 )
                  (  0.8660254  0.5000000  0.0000000 )
                  (  0.0000000  0.0000000 -1.0000000 )


      isym = 13     inversion                                    

 cryst.   s(13) = (    -1          0          0      )
                  (     0         -1          0      )
                  (     0          0         -1      )

 cart.    s(13) = ( -1.0000000  0.0000000  0.0000000 )
                  (  0.0000000 -1.0000000  0.0000000 )
                  (  0.0000000  0.0000000 -1.0000000 )


      isym = 14     inv. 180 deg rotation - cart. axis [0,0,1]   

 cryst.   s(14) = (     1          0          0      )    f =(  0.0000000 )
                  (     0          1          0      )       (  0.0000000 )
                  (     0          0         -1      )       (  0.5000000 )

 cart.    s(14) = (  1.0000000  0.0000000  0.0000000 )    f =(  0.0000000 )
                  (  0.0000000  1.0000000  0.0000000 )       (  0.0000000 )
                  (  0.0000000  0.0000000 -1.0000000 )       (  0.8027888 )


      isym = 15     inv. 180 deg rotation - cart. axis [0,1,0]   

 cryst.   s(15) = (     1          0          0      )    f =(  0.0000000 )
                  (    -1         -1          0      )       ( -0.0000000 )
                  (     0          0          1      )       ( -0.5000000 )

 cart.    s(15) = (  1.0000000  0.0000000  0.0000000 )    f =(  0.0000000 )
                  (  0.0000000 -1.0000000  0.0000000 )       ( -0.0000000 )
                  (  0.0000000  0.0000000  1.0000000 )       ( -0.8027888 )


      isym = 16     inv. 180 deg rotation - cart. axis [1,0,0]   

 cryst.   s(16) = (    -1          0          0      )
                  (     1          1          0      )
                  (     0          0          1      )

 cart.    s(16) = ( -1.0000000  0.0000000  0.0000000 )
                  (  0.0000000  1.0000000  0.0000000 )
                  (  0.0000000  0.0000000  1.0000000 )


      isym = 17     inv.  60 deg rotation - cryst. axis [0,0,1]  

 cryst.   s(17) = (    -1         -1          0      )    f =(  0.0000000 )
                  (     1          0          0      )       ( -0.0000000 )
                  (     0          0         -1      )       (  0.5000000 )

 cart.    s(17) = ( -0.5000000  0.8660254  0.0000000 )    f =(  0.0000000 )
                  ( -0.8660254 -0.5000000  0.0000000 )       ( -0.0000000 )
                  (  0.0000000  0.0000000 -1.0000000 )       (  0.8027888 )


      isym = 18     inv.  60 deg rotation - cryst. axis [0,0,-1] 

 cryst.   s(18) = (     0          1          0      )    f =( -0.0000000 )
                  (    -1         -1          0      )       ( -0.0000000 )
                  (     0          0         -1      )       (  0.5000000 )

 cart.    s(18) = ( -0.5000000 -0.8660254  0.0000000 )    f =(  0.0000000 )
                  (  0.8660254 -0.5000000  0.0000000 )       ( -0.0000000 )
                  (  0.0000000  0.0000000 -1.0000000 )       (  0.8027888 )


      isym = 19     inv. 120 deg rotation - cryst. axis [0,0,1]  

 cryst.   s(19) = (     0         -1          0      )
                  (     1          1          0      )
                  (     0          0         -1      )

 cart.    s(19) = (  0.5000000  0.8660254  0.0000000 )
                  ( -0.8660254  0.5000000  0.0000000 )
                  (  0.0000000  0.0000000 -1.0000000 )


      isym = 20     inv. 120 deg rotation - cryst. axis [0,0,-1] 

 cryst.   s(20) = (     1          1          0      )
                  (    -1          0          0      )
                  (     0          0         -1      )

 cart.    s(20) = (  0.5000000 -0.8660254  0.0000000 )
                  (  0.8660254  0.5000000  0.0000000 )
                  (  0.0000000  0.0000000 -1.0000000 )


      isym = 21     inv. 180 deg rotation - cryst. axis [1,-1,0] 

 cryst.   s(21) = (     0          1          0      )    f =(  0.0000000 )
                  (     1          0          0      )       ( -0.0000000 )
                  (     0          0          1      )       ( -0.5000000 )

 cart.    s(21) = ( -0.5000000  0.8660254  0.0000000 )    f =(  0.0000000 )
                  (  0.8660254  0.5000000  0.0000000 )       ( -0.0000000 )
                  (  0.0000000  0.0000000  1.0000000 )       ( -0.8027888 )


      isym = 22     inv. 180 deg rotation - cryst. axis [2,1,0]  

 cryst.   s(22) = (    -1         -1          0      )    f =(  0.0000000 )
                  (     0          1          0      )       ( -0.0000000 )
                  (     0          0          1      )       ( -0.5000000 )

 cart.    s(22) = ( -0.5000000 -0.8660254  0.0000000 )    f =(  0.0000000 )
                  ( -0.8660254  0.5000000  0.0000000 )       ( -0.0000000 )
                  (  0.0000000  0.0000000  1.0000000 )       ( -0.8027888 )


      isym = 23     inv. 180 deg rotation - cryst. axis [0,1,0]  

 cryst.   s(23) = (     1          1          0      )
                  (     0         -1          0      )
                  (     0          0          1      )

 cart.    s(23) = (  0.5000000  0.8660254  0.0000000 )
                  (  0.8660254 -0.5000000  0.0000000 )
                  (  0.0000000  0.0000000  1.0000000 )


      isym = 24     inv. 180 deg rotation - cryst. axis [1,1,0]  

 cryst.   s(24) = (     0         -1          0      )
                  (    -1          0          0      )
                  (     0          0          1      )

 cart.    s(24) = (  0.5000000 -0.8660254  0.0000000 )
                  ( -0.8660254 -0.5000000  0.0000000 )
                  (  0.0000000  0.0000000  1.0000000 )


     point group D_6h(6/mmm)
     there are 12 classes
     the character table:

       E     2C6   2C3   C2    3C2'  3C2'' i     2S3   2S6   s_h   3s_d  3s_v 
A_1g   1.00  1.00  1.00  1.00  1.00  1.00  1.00  1.00  1.00  1.00  1.00  1.00
A_2g   1.00  1.00  1.00  1.00 -1.00 -1.00  1.00  1.00  1.00  1.00 -1.00 -1.00
B_1g   1.00 -1.00  1.00 -1.00  1.00 -1.00  1.00 -1.00  1.00 -1.00  1.00 -1.00
B_2g   1.00 -1.00  1.00 -1.00 -1.00  1.00  1.00 -1.00  1.00 -1.00 -1.00  1.00
E_1g   2.00  1.00 -1.00 -2.00  0.00  0.00  2.00  1.00 -1.00 -2.00  0.00  0.00
E_2g   2.00 -1.00 -1.00  2.00  0.00  0.00  2.00 -1.00 -1.00  2.00  0.00  0.00
A_1u   1.00  1.00  1.00  1.00  1.00  1.00 -1.00 -1.00 -1.00 -1.00 -1.00 -1.00
A_2u   1.00  1.00  1.00  1.00 -1.00 -1.00 -1.00 -1.00 -1.00 -1.00  1.00  1.00
B_1u   1.00 -1.00  1.00 -1.00  1.00 -1.00 -1.00  1.00 -1.00  1.00 -1.00  1.00
B_2u   1.00 -1.00  1.00 -1.00 -1.00  1.00 -1.00  1.00 -1.00  1.00  1.00 -1.00
E_1u   2.00  1.00 -1.00 -2.00  0.00  0.00 -2.00 -1.00  1.00  2.00  0.00  0.00
E_2u   2.00 -1.00 -1.00  2.00  0.00  0.00 -2.00  1.00  1.00 -2.00  0.00  0.00

     the symmetry operations in each class and the name of the first element:

     E        1
          identity                                               
     2C6      5    6
           60 deg rotation - cryst. axis [0,0,1]                 
     2C3      7    8
          120 deg rotation - cryst. axis [0,0,1]                 
     C2       2
          180 deg rotation - cart. axis [0,0,1]                  
     3C2'     4   12   11
          180 deg rotation - cart. axis [1,0,0]                  
     3C2''    3    9   10
          180 deg rotation - cart. axis [0,1,0]                  
     i       13
          inversion                                              
     2S3     17   18
          inv.  60 deg rotation - cryst. axis [0,0,1]            
     2S6     19   20
          inv. 120 deg rotation - cryst. axis [0,0,1]            
     s_h     14
          inv. 180 deg rotation - cart. axis [0,0,1]             
     3s_d    16   24   23
          inv. 180 deg rotation - cart. axis [1,0,0]             
     3s_v    15   21   22
          inv. 180 deg rotation - cart. axis [0,1,0]             

   Cartesian axes

     site n.     atom                  positions (alat units)
         1           Co  tau(   1) = (  -0.0000000   0.5773503   0.4013944  )
         2           Co  tau(   2) = (   0.5000000   0.2886751   1.2041833  )

   Crystallographic axes

     site n.     atom                  positions (cryst. coord.)
         1           Co  tau(   1) = (  0.3333333  0.6666667  0.2500000  )
         2           Co  tau(   2) = (  0.6666667  0.3333333  0.7500000  )

     number of k points=    76  Gaussian smearing, width (Ry)=  0.0010
                       cart. coord. in units 2pi/alat
        k(    1) = (   0.0000000   0.0000000   0.0000000), wk =   0.0011574
        k(    2) = (   0.0000000   0.0000000   0.1038048), wk =   0.0023148
        k(    3) = (   0.0000000   0.0000000   0.2076096), wk =   0.0023148
        k(    4) = (   0.0000000   0.0000000  -0.3114144), wk =   0.0011574
        k(    5) = (   0.0000000   0.0962250   0.0000000), wk =   0.0069444
        k(    6) = (   0.0000000   0.0962250   0.1038048), wk =   0.0138889
        k(    7) = (   0.0000000   0.0962250   0.2076096), wk =   0.0138889
        k(    8) = (   0.0000000   0.0962250  -0.3114144), wk =   0.0069444
        k(    9) = (   0.0000000   0.1924501   0.0000000), wk =   0.0069444
        k(   10) = (   0.0000000   0.1924501   0.1038048), wk =   0.0138889
        k(   11) = (   0.0000000   0.1924501   0.2076096), wk =   0.0138889
        k(   12) = (   0.0000000   0.1924501  -0.3114144), wk =   0.0069444
        k(   13) = (   0.0000000   0.2886751   0.0000000), wk =   0.0069444
        k(   14) = (   0.0000000   0.2886751   0.1038048), wk =   0.0138889
        k(   15) = (   0.0000000   0.2886751   0.2076096), wk =   0.0138889
        k(   16) = (   0.0000000   0.2886751  -0.3114144), wk =   0.0069444
        k(   17) = (   0.0000000   0.3849002   0.0000000), wk =   0.0069444
        k(   18) = (   0.0000000   0.3849002   0.1038048), wk =   0.0138889
        k(   19) = (   0.0000000   0.3849002   0.2076096), wk =   0.0138889
        k(   20) = (   0.0000000   0.3849002  -0.3114144), wk =   0.0069444
        k(   21) = (   0.0000000   0.4811252   0.0000000), wk =   0.0069444
        k(   22) = (   0.0000000   0.4811252   0.1038048), wk =   0.0138889
        k(   23) = (   0.0000000   0.4811252   0.2076096), wk =   0.0138889
        k(   24) = (   0.0000000   0.4811252  -0.3114144), wk =   0.0069444
        k(   25) = (   0.0000000  -0.5773503   0.0000000), wk =   0.0034722
        k(   26) = (   0.0000000  -0.5773503   0.1038048), wk =   0.0069444
        k(   27) = (   0.0000000  -0.5773503   0.2076096), wk =   0.0069444
        k(   28) = (   0.0000000  -0.5773503  -0.3114144), wk =   0.0034722
        k(   29) = (   0.0833333   0.1443376   0.0000000), wk =   0.0069444
        k(   30) = (   0.0833333   0.1443376   0.1038048), wk =   0.0138889
        k(   31) = (   0.0833333   0.1443376   0.2076096), wk =   0.0138889
        k(   32) = (   0.0833333   0.1443376  -0.3114144), wk =   0.0069444
        k(   33) = (   0.0833333   0.2405626   0.0000000), wk =   0.0138889
        k(   34) = (   0.0833333   0.2405626   0.1038048), wk =   0.0277778
        k(   35) = (   0.0833333   0.2405626   0.2076096), wk =   0.0277778
        k(   36) = (   0.0833333   0.2405626  -0.3114144), wk =   0.0138889
        k(   37) = (   0.0833333   0.3367877   0.0000000), wk =   0.0138889
        k(   38) = (   0.0833333   0.3367877   0.1038048), wk =   0.0277778
        k(   39) = (   0.0833333   0.3367877   0.2076096), wk =   0.0277778
        k(   40) = (   0.0833333   0.3367877  -0.3114144), wk =   0.0138889
        k(   41) = (   0.0833333   0.4330127   0.0000000), wk =   0.0138889
        k(   42) = (   0.0833333   0.4330127   0.1038048), wk =   0.0277778
        k(   43) = (   0.0833333   0.4330127   0.2076096), wk =   0.0277778
        k(   44) = (   0.0833333   0.4330127  -0.3114144), wk =   0.0138889
        k(   45) = (   0.0833333   0.5292377   0.0000000), wk =   0.0138889
        k(   46) = (   0.0833333   0.5292377   0.1038048), wk =   0.0277778
        k(   47) = (   0.0833333   0.5292377   0.2076096), wk =   0.0277778
        k(   48) = (   0.0833333   0.5292377  -0.3114144), wk =   0.0138889
        k(   49) = (   0.1666667   0.2886751   0.0000000), wk =   0.0069444
        k(   50) = (   0.1666667   0.2886751   0.1038048), wk =   0.0138889
        k(   51) = (   0.1666667   0.2886751   0.2076096), wk =   0.0138889
        k(   52) = (   0.1666667   0.2886751  -0.3114144), wk =   0.0069444
        k(   53) = (   0.1666667   0.3849002   0.0000000), wk =   0.0138889
        k(   54) = (   0.1666667   0.3849002   0.1038048), wk =   0.0277778
        k(   55) = (   0.1666667   0.3849002   0.2076096), wk =   0.0277778
        k(   56) = (   0.1666667   0.3849002  -0.3114144), wk =   0.0138889
        k(   57) = (   0.1666667   0.4811252   0.0000000), wk =   0.0138889
        k(   58) = (   0.1666667   0.4811252   0.1038048), wk =   0.0277778
        k(   59) = (   0.1666667   0.4811252   0.2076096), wk =   0.0277778
        k(   60) = (   0.1666667   0.4811252  -0.3114144), wk =   0.0138889
        k(   61) = (   0.1666667   0.5773503   0.0000000), wk =   0.0069444
        k(   62) = (   0.1666667   0.5773503   0.1038048), wk =   0.0138889
        k(   63) = (   0.1666667   0.5773503   0.2076096), wk =   0.0138889
        k(   64) = (   0.1666667   0.5773503  -0.3114144), wk =   0.0069444
        k(   65) = (   0.2500000   0.4330127   0.0000000), wk =   0.0069444
        k(   66) = (   0.2500000   0.4330127   0.1038048), wk =   0.0138889
        k(   67) = (   0.2500000   0.4330127   0.2076096), wk =   0.0138889
        k(   68) = (   0.2500000   0.4330127  -0.3114144), wk =   0.0069444
        k(   69) = (   0.2500000   0.5292377   0.0000000), wk =   0.0138889
        k(   70) = (   0.2500000   0.5292377   0.1038048), wk =   0.0277778
        k(   71) = (   0.2500000   0.5292377   0.2076096), wk =   0.0277778
        k(   72) = (   0.2500000   0.5292377  -0.3114144), wk =   0.0138889
        k(   73) = (   0.3333333   0.5773503   0.0000000), wk =   0.0023148
        k(   74) = (   0.3333333   0.5773503   0.1038048), wk =   0.0046296
        k(   75) = (   0.3333333   0.5773503   0.2076096), wk =   0.0046296
        k(   76) = (   0.3333333   0.5773503  -0.3114144), wk =   0.0023148

                       cryst. coord.
        k(    1) = (   0.0000000   0.0000000   0.0000000), wk =   0.0011574
        k(    2) = (   0.0000000   0.0000000   0.1666667), wk =   0.0023148
        k(    3) = (   0.0000000   0.0000000   0.3333333), wk =   0.0023148
        k(    4) = (   0.0000000   0.0000000  -0.5000000), wk =   0.0011574
        k(    5) = (   0.0000000   0.0833333   0.0000000), wk =   0.0069444
        k(    6) = (   0.0000000   0.0833333   0.1666667), wk =   0.0138889
        k(    7) = (   0.0000000   0.0833333   0.3333333), wk =   0.0138889
        k(    8) = (   0.0000000   0.0833333  -0.5000000), wk =   0.0069444
        k(    9) = (   0.0000000   0.1666667   0.0000000), wk =   0.0069444
        k(   10) = (   0.0000000   0.1666667   0.1666667), wk =   0.0138889
        k(   11) = (   0.0000000   0.1666667   0.3333333), wk =   0.0138889
        k(   12) = (   0.0000000   0.1666667  -0.5000000), wk =   0.0069444
        k(   13) = (   0.0000000   0.2500000   0.0000000), wk =   0.0069444
        k(   14) = (   0.0000000   0.2500000   0.1666667), wk =   0.0138889
        k(   15) = (   0.0000000   0.2500000   0.3333333), wk =   0.0138889
        k(   16) = (   0.0000000   0.2500000  -0.5000000), wk =   0.0069444
        k(   17) = (   0.0000000   0.3333333   0.0000000), wk =   0.0069444
        k(   18) = (   0.0000000   0.3333333   0.1666667), wk =   0.0138889
        k(   19) = (   0.0000000   0.3333333   0.3333333), wk =   0.0138889
        k(   20) = (   0.0000000   0.3333333  -0.5000000), wk =   0.0069444
        k(   21) = (   0.0000000   0.4166667   0.0000000), wk =   0.0069444
        k(   22) = (   0.0000000   0.4166667   0.1666667), wk =   0.0138889
        k(   23) = (   0.0000000   0.4166667   0.3333333), wk =   0.0138889
        k(   24) = (   0.0000000   0.4166667  -0.5000000), wk =   0.0069444
        k(   25) = (   0.0000000  -0.5000000   0.0000000), wk =   0.0034722
        k(   26) = (   0.0000000  -0.5000000   0.1666667), wk =   0.0069444
        k(   27) = (   0.0000000  -0.5000000   0.3333333), wk =   0.0069444
        k(   28) = (   0.0000000  -0.5000000  -0.5000000), wk =   0.0034722
        k(   29) = (   0.0833333   0.0833333   0.0000000), wk =   0.0069444
        k(   30) = (   0.0833333   0.0833333   0.1666667), wk =   0.0138889
        k(   31) = (   0.0833333   0.0833333   0.3333333), wk =   0.0138889
        k(   32) = (   0.0833333   0.0833333  -0.5000000), wk =   0.0069444
        k(   33) = (   0.0833333   0.1666667   0.0000000), wk =   0.0138889
        k(   34) = (   0.0833333   0.1666667   0.1666667), wk =   0.0277778
        k(   35) = (   0.0833333   0.1666667   0.3333333), wk =   0.0277778
        k(   36) = (   0.0833333   0.1666667  -0.5000000), wk =   0.0138889
        k(   37) = (   0.0833333   0.2500000   0.0000000), wk =   0.0138889
        k(   38) = (   0.0833333   0.2500000   0.1666667), wk =   0.0277778
        k(   39) = (   0.0833333   0.2500000   0.3333333), wk =   0.0277778
        k(   40) = (   0.0833333   0.2500000  -0.5000000), wk =   0.0138889
        k(   41) = (   0.0833333   0.3333333   0.0000000), wk =   0.0138889
        k(   42) = (   0.0833333   0.3333333   0.1666667), wk =   0.0277778
        k(   43) = (   0.0833333   0.3333333   0.3333333), wk =   0.0277778
        k(   44) = (   0.0833333   0.3333333  -0.5000000), wk =   0.0138889
        k(   45) = (   0.0833333   0.4166667   0.0000000), wk =   0.0138889
        k(   46) = (   0.0833333   0.4166667   0.1666667), wk =   0.0277778
        k(   47) = (   0.0833333   0.4166667   0.3333333), wk =   0.0277778
        k(   48) = (   0.0833333   0.4166667  -0.5000000), wk =   0.0138889
        k(   49) = (   0.1666667   0.1666667   0.0000000), wk =   0.0069444
        k(   50) = (   0.1666667   0.1666667   0.1666667), wk =   0.0138889
        k(   51) = (   0.1666667   0.1666667   0.3333333), wk =   0.0138889
        k(   52) = (   0.1666667   0.1666667  -0.5000000), wk =   0.0069444
        k(   53) = (   0.1666667   0.2500000   0.0000000), wk =   0.0138889
        k(   54) = (   0.1666667   0.2500000   0.1666667), wk =   0.0277778
        k(   55) = (   0.1666667   0.2500000   0.3333333), wk =   0.0277778
        k(   56) = (   0.1666667   0.2500000  -0.5000000), wk =   0.0138889
        k(   57) = (   0.1666667   0.3333333   0.0000000), wk =   0.0138889
        k(   58) = (   0.1666667   0.3333333   0.1666667), wk =   0.0277778
        k(   59) = (   0.1666667   0.3333333   0.3333333), wk =   0.0277778
        k(   60) = (   0.1666667   0.3333333  -0.5000000), wk =   0.0138889
        k(   61) = (   0.1666667   0.4166667   0.0000000), wk =   0.0069444
        k(   62) = (   0.1666667   0.4166667   0.1666667), wk =   0.0138889
        k(   63) = (   0.1666667   0.4166667   0.3333333), wk =   0.0138889
        k(   64) = (   0.1666667   0.4166667  -0.5000000), wk =   0.0069444
        k(   65) = (   0.2500000   0.2500000   0.0000000), wk =   0.0069444
        k(   66) = (   0.2500000   0.2500000   0.1666667), wk =   0.0138889
        k(   67) = (   0.2500000   0.2500000   0.3333333), wk =   0.0138889
        k(   68) = (   0.2500000   0.2500000  -0.5000000), wk =   0.0069444
        k(   69) = (   0.2500000   0.3333333   0.0000000), wk =   0.0138889
        k(   70) = (   0.2500000   0.3333333   0.1666667), wk =   0.0277778
        k(   71) = (   0.2500000   0.3333333   0.3333333), wk =   0.0277778
        k(   72) = (   0.2500000   0.3333333  -0.5000000), wk =   0.0138889
        k(   73) = (   0.3333333   0.3333333   0.0000000), wk =   0.0023148
        k(   74) = (   0.3333333   0.3333333   0.1666667), wk =   0.0046296
        k(   75) = (   0.3333333   0.3333333   0.3333333), wk =   0.0046296
        k(   76) = (   0.3333333   0.3333333  -0.5000000), wk =   0.0023148

     Dense  grid:    23865 G-vectors     FFT dimensions: (  36,  36,  54)

     Smooth grid:    23067 G-vectors     FFT dimensions: (  32,  32,  54)

     Dynamical RAM for                 wfc:       0.05 MB

     Dynamical RAM for     wfc (w. buffer):       7.06 MB

     Dynamical RAM for           str. fact:       0.02 MB

     Dynamical RAM for           local pot:       0.00 MB

     Dynamical RAM for          nlocal pot:       0.08 MB

     Dynamical RAM for                qrad:       1.70 MB

     Dynamical RAM for          rho,v,vnew:       0.29 MB

     Dynamical RAM for               rhoin:       0.10 MB

     Dynamical RAM for            rho*nmix:       0.58 MB

     Dynamical RAM for           G-vectors:       0.08 MB

     Dynamical RAM for          h,s,v(r/c):       0.08 MB

     Dynamical RAM for          <psi|beta>:       0.01 MB

     Dynamical RAM for                 psi:       0.09 MB

     Dynamical RAM for                hpsi:       0.09 MB

     Dynamical RAM for                spsi:       0.09 MB

     Dynamical RAM for      wfcinit/wfcrot:       0.10 MB

     Dynamical RAM for           addusdens:       3.44 MB

     Estimated static dynamical RAM per process >       9.53 MB

     Estimated max dynamical RAM per process >      13.55 MB

     Estimated total dynamical RAM >     271.07 MB

     Check: negative core charge=   -0.000043
     Generating pointlists ...
     new r_m :   0.4079 (alat units)  1.9347 (a.u.) for type    1

     The initial density is read from file :
     ./out/Co.save/charge-density


     starting charge      34.0422, renormalised to      34.0000
     Starting wfcs from file
     Checking if some PAW data can be deallocated... 

     total cpu time spent up to now is        0.6 secs

     Self-consistent Calculation

     iteration #  1     ecut=   110.00 Ry     beta= 0.70
     Davidson diagonalization with overlap

---- Real-time Memory Report at c_bands before calling an iterative solver
            55 MiB given to the printing process from OS
             0 MiB allocation reported by mallinfo(arena+hblkhd)
        351789 MiB available memory on the node where the printing process lives
------------------
     ethr =  1.00E-05,  avg # of iterations =  2.4

     total cpu time spent up to now is        2.3 secs

     total energy              =    -753.45439417 Ry
     estimated scf accuracy    <       0.00075398 Ry

     total magnetization       =     3.31 Bohr mag/cell
     absolute magnetization    =     3.64 Bohr mag/cell

     iteration #  2     ecut=   110.00 Ry     beta= 0.70
     Davidson diagonalization with overlap

---- Real-time Memory Report at c_bands before calling an iterative solver
            76 MiB given to the printing process from OS
             0 MiB allocation reported by mallinfo(arena+hblkhd)
        351570 MiB available memory on the node where the printing process lives
------------------
     ethr =  2.22E-06,  avg # of iterations =  4.3

     total cpu time spent up to now is        4.3 secs

     total energy              =    -753.45455250 Ry
     estimated scf accuracy    <       0.00162069 Ry

     total magnetization       =     3.31 Bohr mag/cell
     absolute magnetization    =     3.65 Bohr mag/cell

     iteration #  3     ecut=   110.00 Ry     beta= 0.70
     Davidson diagonalization with overlap

---- Real-time Memory Report at c_bands before calling an iterative solver
            78 MiB given to the printing process from OS
             0 MiB allocation reported by mallinfo(arena+hblkhd)
        351560 MiB available memory on the node where the printing process lives
------------------
     ethr =  2.22E-06,  avg # of iterations =  3.9

     total cpu time spent up to now is        5.9 secs

     total energy              =    -753.45488845 Ry
     estimated scf accuracy    <       0.00000562 Ry

     total magnetization       =     3.31 Bohr mag/cell
     absolute magnetization    =     3.64 Bohr mag/cell

     iteration #  4     ecut=   110.00 Ry     beta= 0.70
     Davidson diagonalization with overlap

---- Real-time Memory Report at c_bands before calling an iterative solver
            78 MiB given to the printing process from OS
             0 MiB allocation reported by mallinfo(arena+hblkhd)
        351554 MiB available memory on the node where the printing process lives
------------------
     ethr =  1.65E-08,  avg # of iterations =  6.4

     total cpu time spent up to now is        8.4 secs

     total energy              =    -753.45490148 Ry
     estimated scf accuracy    <       0.00000572 Ry

     total magnetization       =     3.31 Bohr mag/cell
     absolute magnetization    =     3.64 Bohr mag/cell

     iteration #  5     ecut=   110.00 Ry     beta= 0.70
     Davidson diagonalization with overlap

---- Real-time Memory Report at c_bands before calling an iterative solver
            79 MiB given to the printing process from OS
             0 MiB allocation reported by mallinfo(arena+hblkhd)
        351543 MiB available memory on the node where the printing process lives
------------------
     ethr =  1.65E-08,  avg # of iterations =  2.3
 
     Magnetic moment per site  (integrated on atomic sphere of radius R)
     atom   1 (R=0.408)  charge= 15.5833  magn=  1.7302
     atom   2 (R=0.408)  charge= 15.5833  magn=  1.7302

     total cpu time spent up to now is        9.7 secs

     End of self-consistent calculation

 ------ SPIN UP ------------


          k = 0.0000 0.0000 0.0000 (  2863 PWs)   bands (ev):

   -77.7273 -77.6724 -41.1216 -40.8483 -40.8483 -40.8035 -40.8008 -40.8008
     9.4710  13.2648  15.7845  15.7845  15.7924  16.0994  16.0994  16.4087
    16.4087  17.5217  17.5217  18.2421  24.6735

     occupation numbers 
     1.0000   1.0000   1.0000   1.0000   1.0000   1.0000   1.0000   1.0000
     1.0000   1.0000   1.0000   1.0000   1.0000   1.0000   1.0000   1.0000
     1.0000   1.0000   1.0000   1.0000   0.0000

          k = 0.0000 0.0000 0.1038 (  2857 PWs)   bands (ev):

   -77.7236 -77.6761 -41.1006 -40.8451 -40.8451 -40.8251 -40.8040 -40.8040
     9.7484  13.1988  15.7145  15.7145  15.7207  16.0233  16.0233  16.5779
    16.5779  17.2663  17.5069  17.5069  26.2150

     occupation numbers 
     1.0000   1.0000   1.0000   1.0000   1.0000   1.0000   1.0000   1.0000
     1.0000   1.0000   1.0000   1.0000   1.0000   1.0000   1.0000   1.0000
     1.0000   1.0000   1.0000   1.0000   0.0000

          k = 0.0000 0.0000 0.2076 (  2882 PWs)   bands (ev):

   -77.7136 -77.6862 -41.0430 -40.8839 -40.8364 -40.8364 -40.8127 -40.8127
    10.5444  12.7688  15.5541  15.6560  15.6560  15.8563  15.8563  15.9269
    16.9055  16.9055  17.4214  17.4214  29.4522

     occupation numbers 
     1.0000   1.0000   1.0000   1.0000   1.0000   1.0000   1.0000   1.0000
     1.0000   1.0000   1.0000   1.0000   1.0000   1.0000   1.0000   1.0000
     1.0000   1.0000   1.0000   1.0000   0.0000

          k = 0.0000 0.0000-0.3114 (  2858 PWs)   bands (ev):

   -77.6999 -77.6999 -40.9637 -40.9637 -40.8246 -40.8246 -40.8246 -40.8246
    11.7048  11.7048  15.4720  15.4720  15.7084  15.7084  15.7084  15.7084
    17.2153  17.2153  17.2153  17.2153  33.3063

     occupation numbers 
     1.0000   1.0000   1.0000   1.0000   1.0000   1.0000   1.0000   1.0000
     1.0000   1.0000   1.0000   1.0000   1.0000   1.0000   1.0000   1.0000
     1.0000   1.0000   1.0000   1.0000   0.0000

          k = 0.0000 0.0962 0.0000 (  2867 PWs)   bands (ev):

   -77.7244 -77.6711 -41.1149 -40.8627 -40.8531 -40.8158 -40.8065 -40.8032
     9.7090  13.4053  15.5582  15.8951  15.9797  16.0567  16.1968  16.2642
    16.3390  16.7636  17.5521  19.3113  24.7143

     occupation numbers 
     1.0000   1.0000   1.0000   1.0000   1.0000   1.0000   1.0000   1.0000
     1.0000   1.0000   1.0000   1.0000   1.0000   1.0000   1.0000   1.0000
     1.0000   1.0000   1.0000   0.0000   0.0000

          k = 0.0000 0.0962 0.1038 (  2876 PWs)   bands (ev):

   -77.7208 -77.6747 -41.0950 -40.8590 -40.8497 -40.8356 -40.8107 -40.8065
     9.9823  13.3541  15.5532  15.8002  15.8074  15.8760  16.1145  16.4323
    16.5363  16.6436  17.5299  18.5070  26.3238

     occupation numbers 
     1.0000   1.0000   1.0000   1.0000   1.0000   1.0000   1.0000   1.0000
     1.0000   1.0000   1.0000   1.0000   1.0000   1.0000   1.0000   1.0000
     1.0000   1.0000   1.0000   0.0000   0.0000

          k = 0.0000 0.0962 0.2076 (  2871 PWs)   bands (ev):

   -77.7111 -77.6845 -41.0407 -40.8909 -40.8488 -40.8406 -40.8211 -40.8157
    10.7659  12.9533  15.4545  15.5238  15.5894  15.7424  15.9466  16.0398
    16.8815  16.9286  17.4278  17.7209  29.6035

     occupation numbers 
     1.0000   1.0000   1.0000   1.0000   1.0000   1.0000   1.0000   1.0000
     1.0000   1.0000   1.0000   1.0000   1.0000   1.0000   1.0000   1.0000
     1.0000   1.0000   1.0000   1.0000   0.0000

          k = 0.0000 0.0962-0.3114 (  2876 PWs)   bands (ev):

   -77.6978 -77.6978 -40.9660 -40.9660 -40.8349 -40.8349 -40.8282 -40.8282
    11.9078  11.9078  15.3143  15.3143  15.7362  15.7362  15.7967  15.7967
    17.2049  17.2049  17.3072  17.3072  33.4703

     occupation numbers 
     1.0000   1.0000   1.0000   1.0000   1.0000   1.0000   1.0000   1.0000
     1.0000   1.0000   1.0000   1.0000   1.0000   1.0000   1.0000   1.0000
     1.0000   1.0000   1.0000   1.0000   0.0000

          k = 0.0000 0.1925 0.0000 (  2874 PWs)   bands (ev):

   -77.7162 -77.6678 -41.0955 -40.9022 -40.8659 -40.8565 -40.8155 -40.8099
    10.3980  13.7530  15.2840  15.5810  15.8921  16.1668  16.2076  16.2789
    16.3884  16.4698  17.6173  20.8785  24.8569

     occupation numbers 
     1.0000   1.0000   1.0000   1.0000   1.0000   1.0000   1.0000   1.0000
     1.0000   1.0000   1.0000   1.0000   1.0000   1.0000   1.0000   1.0000
     1.0000   1.0000   1.0000   0.0000   0.0000

          k = 0.0000 0.1925 0.1038 (  2876 PWs)   bands (ev):

   -77.7130 -77.6711 -41.0797 -40.8969 -40.8722 -40.8622 -40.8213 -40.8137
    10.6556  13.7468  15.3037  15.3283  15.7761  16.0029  16.1615  16.3513
    16.5249  16.6320  17.5785  19.7271  26.6766

     occupation numbers 
     1.0000   1.0000   1.0000   1.0000   1.0000   1.0000   1.0000   1.0000
     1.0000   1.0000   1.0000   1.0000   1.0000   1.0000   1.0000   1.0000
     1.0000   1.0000   1.0000   0.0000   0.0000

          k = 0.0000 0.1925 0.2076 (  2884 PWs)   bands (ev):

   -77.7041 -77.6799 -41.0364 -40.9175 -40.8799 -40.8519 -40.8372 -40.8239
    11.3908  13.4325  14.9646  15.3731  15.5019  15.9527  15.9798  16.1976
    16.8577  17.0235  17.4415  18.3643  30.0550

     occupation numbers 
     1.0000   1.0000   1.0000   1.0000   1.0000   1.0000   1.0000   1.0000
     1.0000   1.0000   1.0000   1.0000   1.0000   1.0000   1.0000   1.0000
     1.0000   1.0000   1.0000   0.0163   0.0000

          k = 0.0000 0.1925-0.3114 (  2900 PWs)   bands (ev):

   -77.6920 -77.6920 -40.9770 -40.9770 -40.8587 -40.8587 -40.8379 -40.8379
    12.4553  12.4553  15.0788  15.0788  15.6885  15.6885  16.0324  16.0324
    17.1903  17.1903  17.5543  17.5543  33.9086

     occupation numbers 
     1.0000   1.0000   1.0000   1.0000   1.0000   1.0000   1.0000   1.0000
     1.0000   1.0000   1.0000   1.0000   1.0000   1.0000   1.0000   1.0000
     1.0000   1.0000   1.0000   1.0000   0.0000

          k = 0.0000 0.2887 0.0000 (  2880 PWs)   bands (ev):

   -77.7046 -77.6637 -41.0665 -40.9567 -40.9111 -40.8829 -40.8303 -40.8195
    11.4435  14.0360  14.8730  15.1111  15.8057  15.9598  16.1972  16.6605
    16.6931  16.8623  17.6797  22.6494  25.1290

     occupation numbers 
     1.0000   1.0000   1.0000   1.0000   1.0000   1.0000   1.0000   1.0000
     1.0000   1.0000   1.0000   1.0000   1.0000   1.0000   1.0000   1.0000
     1.0000   1.0000   1.0000   0.0000   0.0000

          k = 0.0000 0.2887 0.1038 (  2887 PWs)   bands (ev):

   -77.7018 -77.6665 -41.0599 -40.9465 -40.9244 -40.8787 -40.8341 -40.8238
    11.6593  14.0837  14.7276  15.1613  15.6536  15.9966  16.2034  16.7068
    16.8090  16.8155  17.6253  20.9964  27.3027

     occupation numbers 
     1.0000   1.0000   1.0000   1.0000   1.0000   1.0000   1.0000   1.0000
     1.0000   1.0000   1.0000   1.0000   1.0000   1.0000   1.0000   1.0000
     1.0000   1.0000   1.0000   0.0000   0.0000

          k = 0.0000 0.2887 0.2076 (  2884 PWs)   bands (ev):

   -77.6944 -77.6739 -41.0390 -40.9644 -40.9124 -40.8671 -40.8494 -40.8354
    12.2607  13.8641  14.6324  15.2054  15.5120  16.0437  16.1160  16.5533
    16.9727  17.1868  17.4663  19.1350  30.6393

     occupation numbers 
     1.0000   1.0000   1.0000   1.0000   1.0000   1.0000   1.0000   1.0000
     1.0000   1.0000   1.0000   1.0000   1.0000   1.0000   1.0000   1.0000
     1.0000   1.0000   1.0000   0.0000   0.0000

          k = 0.0000 0.2887-0.3114 (  2910 PWs)   bands (ev):

   -77.6842 -77.6842 -41.0048 -41.0048 -40.8780 -40.8780 -40.8513 -40.8513
    13.0929  13.0929  14.9284  14.9284  15.7430  15.7430  16.3159  16.3159
    17.2293  17.2293  17.8993  17.8993  32.5530

     occupation numbers 
     1.0000   1.0000   1.0000   1.0000   1.0000   1.0000   1.0000   1.0000
     1.0000   1.0000   1.0000   1.0000   1.0000   1.0000   1.0000   1.0000
     1.0000   1.0000   1.0000   1.0000   0.0000

          k = 0.0000 0.3849 0.0000 (  2880 PWs)   bands (ev):

   -77.6920 -77.6605 -41.0324 -41.0117 -40.9647 -40.8996 -40.8502 -40.8295
    12.5951  13.9778  14.3570  15.2064  15.7733  15.9245  16.0304  17.1423
    17.2884  17.3522  17.7232  24.5807  25.1516

     occupation numbers 
     1.0000   1.0000   1.0000   1.0000   1.0000   1.0000   1.0000   1.0000
     1.0000   1.0000   1.0000   1.0000   1.0000   1.0000   1.0000   1.0000
     1.0000   1.0000   1.0000   0.0000   0.0000

          k = 0.0000 0.3849 0.1038 (  2885 PWs)   bands (ev):

   -77.6899 -77.6626 -41.0522 -40.9880 -40.9687 -40.8949 -40.8502 -40.8342
    12.7004  14.0171  14.3827  15.0817  15.8326  15.8647  16.3630  17.1660
    17.1954  17.2897  17.6663  22.2244  27.1924

     occupation numbers 
     1.0000   1.0000   1.0000   1.0000   1.0000   1.0000   1.0000   1.0000
     1.0000   1.0000   1.0000   1.0000   1.0000   1.0000   1.0000   1.0000
     1.0000   1.0000   1.0000   0.0000   0.0000

          k = 0.0000 0.3849 0.2076 (  2886 PWs)   bands (ev):

   -77.6842 -77.6684 -41.0592 -41.0151 -40.9259 -40.8821 -40.8589 -40.8471
    12.9918  13.8461  14.5135  15.0232  15.9125  16.1227  16.6441  16.8902
    17.2701  17.4106  17.5411  20.0168  28.2351

     occupation numbers 
     1.0000   1.0000   1.0000   1.0000   1.0000   1.0000   1.0000   1.0000
     1.0000   1.0000   1.0000   1.0000   1.0000   1.0000   1.0000   1.0000
     1.0000   1.0000   1.0000   0.0000   0.0000

          k = 0.0000 0.3849-0.3114 (  2900 PWs)   bands (ev):

   -77.6763 -77.6763 -41.0448 -41.0448 -40.8848 -40.8848 -40.8646 -40.8646
    13.4097  13.4097  14.8118  14.8118  16.3179  16.3179  16.4954  16.4954
    17.3998  17.3998  18.3762  18.3762  29.3626

     occupation numbers 
     1.0000   1.0000   1.0000   1.0000   1.0000   1.0000   1.0000   1.0000
     1.0000   1.0000   1.0000   1.0000   1.0000   1.0000   1.0000   1.0000
     1.0000   1.0000   0.0004   0.0004   0.0000

          k = 0.0000 0.4811 0.0000 (  2900 PWs)   bands (ev):

   -77.6817 -77.6593 -41.0522 -41.0034 -41.0008 -40.9115 -40.8714 -40.8370
    13.3720  13.7962  14.0480  15.5491  15.6460  15.9129  16.1198  17.5016
    17.6420  17.7469  18.4287  23.2429  26.5745

     occupation numbers 
     1.0000   1.0000   1.0000   1.0000   1.0000   1.0000   1.0000   1.0000
     1.0000   1.0000   1.0000   1.0000   1.0000   1.0000   1.0000   1.0000
     1.0000   1.0000   0.0000   0.0000   0.0000

          k = 0.0000 0.4811 0.1038 (  2903 PWs)   bands (ev):

   -77.6802 -77.6608 -41.0710 -41.0208 -40.9687 -40.9066 -40.8673 -40.8420
    13.2732  13.8006  14.3490  14.9835  15.7583  16.1104  16.7016  17.4588
    17.5440  17.7258  18.2727  22.5066  25.8036

     occupation numbers 
     1.0000   1.0000   1.0000   1.0000   1.0000   1.0000   1.0000   1.0000
     1.0000   1.0000   1.0000   1.0000   1.0000   1.0000   1.0000   1.0000
     1.0000   1.0000   1.0000   0.0000   0.0000

          k = 0.0000 0.4811 0.2076 (  2889 PWs)   bands (ev):

   -77.6761 -77.6649 -41.0854 -41.0526 -40.9222 -40.8930 -40.8674 -40.8557
    13.2510  13.7317  14.5025  14.8390  16.0774  16.3349  17.0606  17.5702
    17.6383  17.6824  17.9691  20.8252  25.9030

     occupation numbers 
     1.0000   1.0000   1.0000   1.0000   1.0000   1.0000   1.0000   1.0000
     1.0000   1.0000   1.0000   1.0000   1.0000   1.0000   1.0000   1.0000
     1.0000   1.0000   1.0000   0.0000   0.0000

          k = 0.0000 0.4811-0.3114 (  2892 PWs)   bands (ev):

   -77.6705 -77.6705 -41.0783 -41.0783 -40.8855 -40.8855 -40.8744 -40.8744
    13.4391  13.4391  14.6969  14.6969  16.5460  16.5460  17.0291  17.0291
    17.6258  17.6258  19.1876  19.1876  26.6843

     occupation numbers 
     1.0000   1.0000   1.0000   1.0000   1.0000   1.0000   1.0000   1.0000
     1.0000   1.0000   1.0000   1.0000   1.0000   1.0000   1.0000   1.0000
     1.0000   1.0000   0.0000   0.0000   0.0000

          k = 0.0000-0.5774 0.0000 (  2898 PWs)   bands (ev):

   -77.6774 -77.6594 -41.0672 -41.0175 -40.9860 -40.9159 -40.8825 -40.8398
    13.6438  13.6536  13.9453  15.6010  15.7881  15.8706  16.1953  17.6313
    17.7542  17.7852  19.5605  21.5262  27.8657

     occupation numbers 
     1.0000   1.0000   1.0000   1.0000   1.0000   1.0000   1.0000   1.0000
     1.0000   1.0000   1.0000   1.0000   1.0000   1.0000   1.0000   1.0000
     1.0000   1.0000   0.0000   0.0000   0.0000

          k = 0.0000-0.5774 0.1038 (  2892 PWs)   bands (ev):

   -77.6762 -77.6606 -41.0822 -41.0341 -40.9605 -40.9108 -40.8760 -40.8449
    13.3825  13.7055  14.3860  14.9568  15.7193  16.1979  16.8937  17.5292
    17.6902  17.7773  19.3622  21.3610  26.9586

     occupation numbers 
     1.0000   1.0000   1.0000   1.0000   1.0000   1.0000   1.0000   1.0000
     1.0000   1.0000   1.0000   1.0000   1.0000   1.0000   1.0000   1.0000
     1.0000   1.0000   0.0000   0.0000   0.0000

          k = 0.0000-0.5774 0.2076 (  2888 PWs)   bands (ev):

   -77.6729 -77.6639 -41.0966 -41.0663 -40.9180 -40.8969 -40.8717 -40.8589
    13.2757  13.6872  14.5258  14.7555  16.0559  16.4779  17.0989  17.6977
    17.7515  17.7557  19.0597  20.7945  25.8443

     occupation numbers 
     1.0000   1.0000   1.0000   1.0000   1.0000   1.0000   1.0000   1.0000
     1.0000   1.0000   1.0000   1.0000   1.0000   1.0000   1.0000   1.0000
     1.0000   1.0000   0.0000   0.0000   0.0000

          k = 0.0000-0.5774-0.3114 (  2884 PWs)   bands (ev):

   -77.6684 -77.6684 -41.0910 -41.0910 -40.8852 -40.8852 -40.8779 -40.8779
    13.4240  13.4240  14.6512  14.6512  16.5518  16.5518  17.2698  17.2698
    17.7261  17.7261  19.8253  19.8253  25.4449

     occupation numbers 
     1.0000   1.0000   1.0000   1.0000   1.0000   1.0000   1.0000   1.0000
     1.0000   1.0000   1.0000   1.0000   1.0000   1.0000   1.0000   1.0000
     1.0000   1.0000   0.0000   0.0000   0.0000

          k = 0.0833 0.1443 0.0000 (  2862 PWs)   bands (ev):

   -77.7188 -77.6688 -41.1018 -40.8872 -40.8675 -40.8386 -40.8125 -40.8096
    10.1733  13.6548  15.3429  15.8202  15.9543  16.1211  16.1363  16.1440
    16.4126  16.5013  17.5907  20.4386  24.8079

     occupation numbers 
     1.0000   1.0000   1.0000   1.0000   1.0000   1.0000   1.0000   1.0000
     1.0000   1.0000   1.0000   1.0000   1.0000   1.0000   1.0000   1.0000
     1.0000   1.0000   1.0000   0.0000   0.0000

          k = 0.0833 0.1443 0.1038 (  2861 PWs)   bands (ev):

   -77.7155 -77.6722 -41.0846 -40.8823 -40.8682 -40.8521 -40.8174 -40.8132
    10.4368  13.6341  15.3661  15.4915  15.8173  15.9707  16.1346  16.2709
    16.5579  16.6062  17.5600  19.3960  26.5566

     occupation numbers 
     1.0000   1.0000   1.0000   1.0000   1.0000   1.0000   1.0000   1.0000
     1.0000   1.0000   1.0000   1.0000   1.0000   1.0000   1.0000   1.0000
     1.0000   1.0000   1.0000   0.0000   0.0000

          k = 0.0833 0.1443 0.2076 (  2876 PWs)   bands (ev):

   -77.7063 -77.6814 -41.0373 -40.9078 -40.8690 -40.8513 -40.8302 -40.8229
    11.1907  13.2914  15.0871  15.4197  15.5139  15.8948  15.9903  16.1188
    16.8868  16.9667  17.4412  18.1778  29.9079

     occupation numbers 
     1.0000   1.0000   1.0000   1.0000   1.0000   1.0000   1.0000   1.0000
     1.0000   1.0000   1.0000   1.0000   1.0000   1.0000   1.0000   1.0000
     1.0000   1.0000   1.0000   1.0000   0.0000

          k = 0.0833 0.1443-0.3114 (  2880 PWs)   bands (ev):

   -77.6939 -77.6939 -40.9725 -40.9725 -40.8518 -40.8518 -40.8352 -40.8352
    12.2865  12.2865  15.1375  15.1375  15.6880  15.6880  15.9709  15.9709
    17.1957  17.1957  17.4770  17.4770  33.7848

     occupation numbers 
     1.0000   1.0000   1.0000   1.0000   1.0000   1.0000   1.0000   1.0000
     1.0000   1.0000   1.0000   1.0000   1.0000   1.0000   1.0000   1.0000
     1.0000   1.0000   1.0000   1.0000   0.0000

          k = 0.0833 0.2406 0.0000 (  2886 PWs)   bands (ev):

   -77.7089 -77.6651 -41.0776 -40.9306 -40.9027 -40.8668 -40.8245 -40.8207
    11.0484  14.0115  15.0721  15.1337  15.8415  15.9272  16.3498  16.3833
    16.5329  16.8157  17.6390  22.0099  25.0367

     occupation numbers 
     1.0000   1.0000   1.0000   1.0000   1.0000   1.0000   1.0000   1.0000
     1.0000   1.0000   1.0000   1.0000   1.0000   1.0000   1.0000   1.0000
     1.0000   1.0000   1.0000   0.0000   0.0000

          k = 0.0833 0.2406 0.1038 (  2876 PWs)   bands (ev):

   -77.7060 -77.6681 -41.0665 -40.9233 -40.9098 -40.8711 -40.8284 -40.8238
    11.2852  14.0498  14.9231  15.1200  15.7170  15.9701  16.1590  16.4833
    16.7301  16.8026  17.6018  20.5587  27.0686

     occupation numbers 
     1.0000   1.0000   1.0000   1.0000   1.0000   1.0000   1.0000   1.0000
     1.0000   1.0000   1.0000   1.0000   1.0000   1.0000   1.0000   1.0000
     1.0000   1.0000   1.0000   0.0000   0.0000

          k = 0.0833 0.2406 0.2076 (  2885 PWs)   bands (ev):

   -77.6980 -77.6761 -41.0357 -40.9453 -40.8991 -40.8682 -40.8412 -40.8342
    11.9544  13.8024  14.7141  15.2216  15.4622  15.8773  16.0963  16.4272
    16.9744  17.0972  17.4812  18.8668  30.4976

     occupation numbers 
     1.0000   1.0000   1.0000   1.0000   1.0000   1.0000   1.0000   1.0000
     1.0000   1.0000   1.0000   1.0000   1.0000   1.0000   1.0000   1.0000
     1.0000   1.0000   1.0000   0.0000   0.0000

          k = 0.0833 0.2406-0.3114 (  2904 PWs)   bands (ev):

   -77.6870 -77.6870 -40.9916 -40.9916 -40.8734 -40.8734 -40.8470 -40.8470
    12.9074  12.9074  14.9792  14.9792  15.5895  15.5895  16.2416  16.2416
    17.2379  17.2379  17.7754  17.7754  34.0211

     occupation numbers 
     1.0000   1.0000   1.0000   1.0000   1.0000   1.0000   1.0000   1.0000
     1.0000   1.0000   1.0000   1.0000   1.0000   1.0000   1.0000   1.0000
     1.0000   1.0000   1.0000   1.0000   0.0000

          k = 0.0833 0.3368 0.0000 (  2889 PWs)   bands (ev):

   -77.6968 -77.6615 -41.0457 -40.9841 -40.9475 -40.8921 -40.8421 -40.8326
    12.1816  14.1353  14.5684  14.9914  15.7443  15.8557  16.1635  16.7702
    17.0214  17.3631  17.6801  23.8235  25.3722

     occupation numbers 
     1.0000   1.0000   1.0000   1.0000   1.0000   1.0000   1.0000   1.0000
     1.0000   1.0000   1.0000   1.0000   1.0000   1.0000   1.0000   1.0000
     1.0000   1.0000   1.0000   0.0000   0.0000

          k = 0.0833 0.3368 0.1038 (  2887 PWs)   bands (ev):

   -77.6944 -77.6639 -41.0498 -40.9711 -40.9523 -40.8917 -40.8442 -40.8349
    12.3496  14.2064  14.4715  15.0420  15.6329  15.9678  16.1468  16.7875
    17.1137  17.2359  17.6806  21.8117  27.7647

     occupation numbers 
     1.0000   1.0000   1.0000   1.0000   1.0000   1.0000   1.0000   1.0000
     1.0000   1.0000   1.0000   1.0000   1.0000   1.0000   1.0000   1.0000
     1.0000   1.0000   1.0000   0.0000   0.0000

          k = 0.0833 0.3368 0.2076 (  2889 PWs)   bands (ev):

   -77.6880 -77.6704 -41.0460 -40.9935 -40.9215 -40.8844 -40.8555 -40.8435
    12.8039  13.9840  14.5624  15.1304  15.5382  16.0030  16.1784  16.7528
    17.1981  17.3577  17.6407  19.7177  29.8666

     occupation numbers 
     1.0000   1.0000   1.0000   1.0000   1.0000   1.0000   1.0000   1.0000
     1.0000   1.0000   1.0000   1.0000   1.0000   1.0000   1.0000   1.0000
     1.0000   1.0000   1.0000   0.0000   0.0000

          k = 0.0833 0.3368-0.3114 (  2894 PWs)   bands (ev):

   -77.6792 -77.6792 -41.0254 -41.0254 -40.8879 -40.8879 -40.8590 -40.8590
    13.4082  13.4082  14.9069  14.9069  15.7494  15.7494  16.4377  16.4377
    17.4239  17.4239  18.2295  18.2295  31.0576

     occupation numbers 
     1.0000   1.0000   1.0000   1.0000   1.0000   1.0000   1.0000   1.0000
     1.0000   1.0000   1.0000   1.0000   1.0000   1.0000   1.0000   1.0000
     1.0000   1.0000   1.0000   1.0000   0.0000

          k = 0.0833 0.4330 0.0000 (  2896 PWs)   bands (ev):

   -77.6852 -77.6595 -41.0315 -41.0119 -40.9872 -40.9116 -40.8636 -40.8428
    13.1944  13.9708  14.1849  15.2048  15.6242  15.9811  16.0413  17.2542
    17.4394  17.7061  18.1388  24.5890  25.7944

     occupation numbers 
     1.0000   1.0000   1.0000   1.0000   1.0000   1.0000   1.0000   1.0000
     1.0000   1.0000   1.0000   1.0000   1.0000   1.0000   1.0000   1.0000
     1.0000   1.0000   1.0000   0.0000   0.0000

          k = 0.0833 0.4330 0.1038 (  2893 PWs)   bands (ev):

   -77.6835 -77.6612 -41.0563 -41.0064 -40.9703 -40.9082 -40.8622 -40.8453
    13.1969  14.0027  14.3240  14.9893  15.7025  16.0381  16.3181  17.2024
    17.5015  17.5211  18.1429  22.8616  26.2892

     occupation numbers 
     1.0000   1.0000   1.0000   1.0000   1.0000   1.0000   1.0000   1.0000
     1.0000   1.0000   1.0000   1.0000   1.0000   1.0000   1.0000   1.0000
     1.0000   1.0000   1.0000   0.0000   0.0000

          k = 0.0833 0.4330 0.2076 (  2886 PWs)   bands (ev):

   -77.6788 -77.6659 -41.0698 -41.0354 -40.9274 -40.8950 -40.8698 -40.8511
    13.2927  13.8789  14.5037  14.9844  15.8093  16.2263  16.6803  16.9482
    17.3787  17.6684  18.2117  20.7215  26.9840

     occupation numbers 
     1.0000   1.0000   1.0000   1.0000   1.0000   1.0000   1.0000   1.0000
     1.0000   1.0000   1.0000   1.0000   1.0000   1.0000   1.0000   1.0000
     1.0000   1.0000   1.0000   0.0000   0.0000

          k = 0.0833 0.4330-0.3114 (  2886 PWs)   bands (ev):

   -77.6723 -77.6723 -41.0612 -41.0612 -40.8966 -40.8966 -40.8664 -40.8664
    13.5444  13.5444  14.8001  14.8001  16.2429  16.2429  16.6201  16.6201
    17.6207  17.6207  19.0534  19.0534  28.0338

     occupation numbers 
     1.0000   1.0000   1.0000   1.0000   1.0000   1.0000   1.0000   1.0000
     1.0000   1.0000   1.0000   1.0000   1.0000   1.0000   1.0000   1.0000
     1.0000   1.0000   0.0000   0.0000   0.0000

          k = 0.0833 0.5292 0.0000 (  2902 PWs)   bands (ev):

   -77.6774 -77.6594 -41.0592 -41.0102 -40.9862 -40.9224 -40.8823 -40.8488
    13.6622  13.8103  13.9929  15.5541  15.5740  15.8618  16.1921  17.5989
    17.6683  17.7178  19.3867  22.2803  27.6746

     occupation numbers 
     1.0000   1.0000   1.0000   1.0000   1.0000   1.0000   1.0000   1.0000
     1.0000   1.0000   1.0000   1.0000   1.0000   1.0000   1.0000   1.0000
     1.0000   1.0000   0.0000   0.0000   0.0000

          k = 0.0833 0.5292 0.1038 (  2895 PWs)   bands (ev):

   -77.6762 -77.6606 -41.0743 -41.0273 -40.9624 -40.9156 -40.8777 -40.8516
    13.4587  13.8327  14.4111  14.9366  15.6285  16.2329  16.5637  17.4818
    17.6370  17.7021  19.3249  22.0386  26.3617

     occupation numbers 
     1.0000   1.0000   1.0000   1.0000   1.0000   1.0000   1.0000   1.0000
     1.0000   1.0000   1.0000   1.0000   1.0000   1.0000   1.0000   1.0000
     1.0000   1.0000   0.0000   0.0000   0.0000

          k = 0.0833 0.5292 0.2076 (  2898 PWs)   bands (ev):

   -77.6729 -77.6639 -41.0888 -41.0592 -40.9279 -40.8951 -40.8814 -40.8562
    13.3758  13.8104  14.5321  14.8568  15.8010  16.5306  16.9507  17.1799
    17.5924  17.7832  19.3777  21.2196  25.5901

     occupation numbers 
     1.0000   1.0000   1.0000   1.0000   1.0000   1.0000   1.0000   1.0000
     1.0000   1.0000   1.0000   1.0000   1.0000   1.0000   1.0000   1.0000
     1.0000   1.0000   0.0000   0.0000   0.0000

          k = 0.0833 0.5292-0.3114 (  2888 PWs)   bands (ev):

   -77.6684 -77.6684 -41.0835 -41.0835 -40.9018 -40.9018 -40.8689 -40.8689
    13.5341  13.5341  14.7198  14.7198  16.3465  16.3465  17.0414  17.0414
    17.6605  17.6605  20.1150  20.1150  25.8572

     occupation numbers 
     1.0000   1.0000   1.0000   1.0000   1.0000   1.0000   1.0000   1.0000
     1.0000   1.0000   1.0000   1.0000   1.0000   1.0000   1.0000   1.0000
     1.0000   1.0000   0.0000   0.0000   0.0000

          k = 0.1667 0.2887 0.0000 (  2886 PWs)   bands (ev):

   -77.6985 -77.6620 -41.0504 -40.9620 -40.9529 -40.8833 -40.8401 -40.8394
    12.0355  14.2994  14.6794  14.7843  15.6791  15.8520  16.2504  16.5472
    17.0097  17.3820  17.6438  23.5672  25.4178

     occupation numbers 
     1.0000   1.0000   1.0000   1.0000   1.0000   1.0000   1.0000   1.0000
     1.0000   1.0000   1.0000   1.0000   1.0000   1.0000   1.0000   1.0000
     1.0000   1.0000   1.0000   0.0000   0.0000

          k = 0.1667 0.2887 0.1038 (  2896 PWs)   bands (ev):

   -77.6960 -77.6644 -41.0498 -40.9596 -40.9467 -40.8906 -40.8441 -40.8373
    12.2246  14.3959  14.5404  14.8364  15.6564  15.8624  16.1242  16.6179
    17.1295  17.2276  17.6921  21.6739  27.7810

     occupation numbers 
     1.0000   1.0000   1.0000   1.0000   1.0000   1.0000   1.0000   1.0000
     1.0000   1.0000   1.0000   1.0000   1.0000   1.0000   1.0000   1.0000
     1.0000   1.0000   1.0000   0.0000   0.0000

          k = 0.1667 0.2887 0.2076 (  2887 PWs)   bands (ev):

   -77.6893 -77.6711 -41.0402 -40.9841 -40.9142 -40.8928 -40.8539 -40.8431
    12.7426  14.1031  14.6584  14.9881  15.4911  15.7272  16.1144  16.6929
    17.2164  17.3311  17.7155  19.6400  31.1269

     occupation numbers 
     1.0000   1.0000   1.0000   1.0000   1.0000   1.0000   1.0000   1.0000
     1.0000   1.0000   1.0000   1.0000   1.0000   1.0000   1.0000   1.0000
     1.0000   1.0000   1.0000   0.0000   0.0000

          k = 0.1667 0.2887-0.3114 (  2894 PWs)   bands (ev):

   -77.6802 -77.6802 -41.0163 -41.0163 -40.8907 -40.8907 -40.8572 -40.8572
    13.4406  13.4406  14.9816  14.9816  15.4416  15.4416  16.3893  16.3893
    17.4733  17.4733  18.2080  18.2080  32.7707

     occupation numbers 
     1.0000   1.0000   1.0000   1.0000   1.0000   1.0000   1.0000   1.0000
     1.0000   1.0000   1.0000   1.0000   1.0000   1.0000   1.0000   1.0000
     1.0000   1.0000   1.0000   1.0000   0.0000

          k = 0.1667 0.3849 0.0000 (  2899 PWs)   bands (ev):

   -77.6871 -77.6597 -41.0179 -41.0043 -40.9832 -40.9092 -40.8595 -40.8587
    13.1233  14.2940  14.3211  14.7465  15.5289  15.9931  16.0666  16.8443
    17.4417  17.6443  18.1583  25.4019  25.7500

     occupation numbers 
     1.0000   1.0000   1.0000   1.0000   1.0000   1.0000   1.0000   1.0000
     1.0000   1.0000   1.0000   1.0000   1.0000   1.0000   1.0000   1.0000
     1.0000   1.0000   1.0000   0.0000   0.0000

          k = 0.1667 0.3849 0.1038 (  2897 PWs)   bands (ev):

   -77.6853 -77.6615 -41.0412 -41.0002 -40.9604 -40.9153 -40.8649 -40.8507
    13.2080  14.2501  14.3986  14.8298  15.5866  15.9650  16.0223  16.8716
    17.4241  17.5308  18.2515  22.9483  27.7242

     occupation numbers 
     1.0000   1.0000   1.0000   1.0000   1.0000   1.0000   1.0000   1.0000
     1.0000   1.0000   1.0000   1.0000   1.0000   1.0000   1.0000   1.0000
     1.0000   1.0000   1.0000   0.0000   0.0000

          k = 0.1667 0.3849 0.2076 (  2887 PWs)   bands (ev):

   -77.6803 -77.6665 -41.0530 -41.0212 -40.9263 -40.9110 -40.8726 -40.8486
    13.4354  14.0514  14.6445  15.0668  15.5110  15.7962  16.1477  16.8264
    17.3220  17.6830  18.4367  20.7378  28.6655

     occupation numbers 
     1.0000   1.0000   1.0000   1.0000   1.0000   1.0000   1.0000   1.0000
     1.0000   1.0000   1.0000   1.0000   1.0000   1.0000   1.0000   1.0000
     1.0000   1.0000   0.0000   0.0000   0.0000

          k = 0.1667 0.3849-0.3114 (  2882 PWs)   bands (ev):

   -77.6734 -77.6734 -41.0443 -41.0443 -40.9099 -40.9099 -40.8621 -40.8621
    13.7444  13.7444  14.9871  14.9871  15.5814  15.5814  16.4147  16.4147
    17.6766  17.6766  19.1387  19.1387  29.8265

     occupation numbers 
     1.0000   1.0000   1.0000   1.0000   1.0000   1.0000   1.0000   1.0000
     1.0000   1.0000   1.0000   1.0000   1.0000   1.0000   1.0000   1.0000
     1.0000   1.0000   0.0000   0.0000   0.0000

          k = 0.1667 0.4811 0.0000 (  2900 PWs)   bands (ev):

   -77.6775 -77.6593 -41.0383 -40.9973 -40.9865 -40.9340 -40.8819 -40.8713
    13.8255  14.0993  14.1018  15.0386  15.4862  15.8688  16.1892  17.2364
    17.6434  17.6590  19.3040  23.9168  27.3900

     occupation numbers 
     1.0000   1.0000   1.0000   1.0000   1.0000   1.0000   1.0000   1.0000
     1.0000   1.0000   1.0000   1.0000   1.0000   1.0000   1.0000   1.0000
     1.0000   1.0000   0.0000   0.0000   0.0000

          k = 0.1667 0.4811 0.1038 (  2898 PWs)   bands (ev):

   -77.6763 -77.6605 -41.0536 -41.0168 -40.9629 -40.9282 -40.8842 -40.8635
    13.6862  14.1692  14.3442  14.8741  15.5373  15.9936  16.2488  17.2194
    17.4453  17.7221  19.3898  23.4067  26.1344

     occupation numbers 
     1.0000   1.0000   1.0000   1.0000   1.0000   1.0000   1.0000   1.0000
     1.0000   1.0000   1.0000   1.0000   1.0000   1.0000   1.0000   1.0000
     1.0000   1.0000   0.0000   0.0000   0.0000

          k = 0.1667 0.4811 0.2076 (  2898 PWs)   bands (ev):

   -77.6729 -77.6639 -41.0693 -41.0445 -40.9448 -40.9110 -40.8847 -40.8548
    13.6546  14.0935  14.5436  15.0886  15.4309  16.1082  16.4520  16.9162
    17.4030  17.8004  19.7067  21.9201  26.1764

     occupation numbers 
     1.0000   1.0000   1.0000   1.0000   1.0000   1.0000   1.0000   1.0000
     1.0000   1.0000   1.0000   1.0000   1.0000   1.0000   1.0000   1.0000
     1.0000   1.0000   0.0000   0.0000   0.0000

          k = 0.1667 0.4811-0.3114 (  2886 PWs)   bands (ev):

   -77.6684 -77.6684 -41.0660 -41.0660 -40.9254 -40.9254 -40.8630 -40.8630
    13.8133  13.8133  14.8923  14.8923  15.8351  15.8351  16.6000  16.6000
    17.6820  17.6820  20.5180  20.5180  27.0575

     occupation numbers 
     1.0000   1.0000   1.0000   1.0000   1.0000   1.0000   1.0000   1.0000
     1.0000   1.0000   1.0000   1.0000   1.0000   1.0000   1.0000   1.0000
     1.0000   1.0000   0.0000   0.0000   0.0000

          k = 0.1667 0.5774 0.0000 (  2912 PWs)   bands (ev):

   -77.6732 -77.6600 -41.0506 -41.0013 -40.9705 -40.9445 -40.8946 -40.8758
    14.0024  14.0083  14.0247  15.2510  15.5000  15.7675  16.2730  17.5018
    17.6408  17.6427  20.5487  22.0825  28.4198

     occupation numbers 
     1.0000   1.0000   1.0000   1.0000   1.0000   1.0000   1.0000   1.0000
     1.0000   1.0000   1.0000   1.0000   1.0000   1.0000   1.0000   1.0000
     1.0000   1.0000   0.0000   0.0000   0.0000

          k = 0.1667 0.5774 0.1038 (  2902 PWs)   bands (ev):

   -77.6723 -77.6609 -41.0626 -41.0194 -40.9670 -40.9229 -40.8962 -40.8689
    13.7180  14.0849  14.5073  14.8559  15.4618  16.1098  16.3363  17.4163
    17.4979  17.6967  20.6531  22.0401  27.4440

     occupation numbers 
     1.0000   1.0000   1.0000   1.0000   1.0000   1.0000   1.0000   1.0000
     1.0000   1.0000   1.0000   1.0000   1.0000   1.0000   1.0000   1.0000
     1.0000   1.0000   0.0000   0.0000   0.0000

          k = 0.1667 0.5774 0.2076 (  2896 PWs)   bands (ev):

   -77.6699 -77.6633 -41.0769 -41.0517 -40.9525 -40.9102 -40.8875 -40.8580
    13.6552  14.1061  14.5796  15.0489  15.3483  16.3073  16.5680  16.9856
    17.5129  17.7361  20.9690  21.8628  26.1456

     occupation numbers 
     1.0000   1.0000   1.0000   1.0000   1.0000   1.0000   1.0000   1.0000
     1.0000   1.0000   1.0000   1.0000   1.0000   1.0000   1.0000   1.0000
     1.0000   1.0000   0.0000   0.0000   0.0000

          k = 0.1667 0.5774-0.3114 (  2890 PWs)   bands (ev):

   -77.6666 -77.6666 -41.0741 -41.0741 -40.9314 -40.9314 -40.8629 -40.8629
    13.8170  13.8170  14.8533  14.8533  15.8756  15.8756  16.7978  16.7978
    17.6222  17.6222  21.4581  21.4581  25.6508

     occupation numbers 
     1.0000   1.0000   1.0000   1.0000   1.0000   1.0000   1.0000   1.0000
     1.0000   1.0000   1.0000   1.0000   1.0000   1.0000   1.0000   1.0000
     1.0000   1.0000   0.0000   0.0000   0.0000

          k = 0.2500 0.4330 0.0000 (  2902 PWs)   bands (ev):

   -77.6775 -77.6593 -41.0200 -40.9994 -40.9867 -40.9336 -40.8881 -40.8818
    13.9453  14.1601  14.4776  14.5378  15.4270  15.8809  16.1964  17.0193
    17.6052  17.6659  19.3091  25.6760  26.3892

     occupation numbers 
     1.0000   1.0000   1.0000   1.0000   1.0000   1.0000   1.0000   1.0000
     1.0000   1.0000   1.0000   1.0000   1.0000   1.0000   1.0000   1.0000
     1.0000   1.0000   0.0000   0.0000   0.0000

          k = 0.2500 0.4330 0.1038 (  2901 PWs)   bands (ev):

   -77.6763 -77.6605 -41.0327 -41.0238 -40.9479 -40.9468 -40.8909 -40.8674
    13.9569  14.1114  14.5514  14.6599  15.5753  15.7390  16.1841  17.0488
    17.3961  17.7303  19.4372  24.2115  26.6747

     occupation numbers 
     1.0000   1.0000   1.0000   1.0000   1.0000   1.0000   1.0000   1.0000
     1.0000   1.0000   1.0000   1.0000   1.0000   1.0000   1.0000   1.0000
     1.0000   1.0000   0.0000   0.0000   0.0000

          k = 0.2500 0.4330 0.2076 (  2893 PWs)   bands (ev):

   -77.6729 -77.6639 -41.0545 -41.0393 -40.9510 -40.9261 -40.8837 -40.8547
    13.9735  14.0586  14.7168  15.0447  15.4185  15.6864  16.2075  16.8344
    17.3740  17.8070  19.8177  22.1967  27.4634

     occupation numbers 
     1.0000   1.0000   1.0000   1.0000   1.0000   1.0000   1.0000   1.0000
     1.0000   1.0000   1.0000   1.0000   1.0000   1.0000   1.0000   1.0000
     1.0000   1.0000   0.0000   0.0000   0.0000

          k = 0.2500 0.4330-0.3114 (  2892 PWs)   bands (ev):

   -77.6684 -77.6684 -41.0551 -41.0551 -40.9382 -40.9382 -40.8613 -40.8613
    14.0099  14.0099  15.0354  15.0354  15.4705  15.4705  16.4095  16.4095
    17.7011  17.7011  20.6700  20.6700  28.4962

     occupation numbers 
     1.0000   1.0000   1.0000   1.0000   1.0000   1.0000   1.0000   1.0000
     1.0000   1.0000   1.0000   1.0000   1.0000   1.0000   1.0000   1.0000
     1.0000   1.0000   0.0000   0.0000   0.0000

          k = 0.2500 0.5292 0.0000 (  2906 PWs)   bands (ev):

   -77.6702 -77.6608 -41.0324 -40.9905 -40.9610 -40.9586 -40.9068 -40.9046
    14.0834  14.2437  14.3499  14.8315  15.4457  15.6897  16.3604  17.2843
    17.5820  17.6170  20.9340  23.4532  25.7464

     occupation numbers 
     1.0000   1.0000   1.0000   1.0000   1.0000   1.0000   1.0000   1.0000
     1.0000   1.0000   1.0000   1.0000   1.0000   1.0000   1.0000   1.0000
     1.0000   1.0000   0.0000   0.0000   0.0000

          k = 0.2500 0.5292 0.1038 (  2905 PWs)   bands (ev):

   -77.6696 -77.6615 -41.0387 -41.0136 -40.9793 -40.9286 -40.9109 -40.8827
    14.0231  14.3772  14.4747  14.7370  15.4746  15.6868  16.3614  17.2923
    17.3706  17.6603  21.1246  23.4837  25.8050

     occupation numbers 
     1.0000   1.0000   1.0000   1.0000   1.0000   1.0000   1.0000   1.0000
     1.0000   1.0000   1.0000   1.0000   1.0000   1.0000   1.0000   1.0000
     1.0000   1.0000   0.0000   0.0000   0.0000

          k = 0.2500 0.5292 0.2076 (  2903 PWs)   bands (ev):

   -77.6679 -77.6632 -41.0549 -41.0408 -40.9778 -40.9373 -40.8810 -40.8616
    14.0421  14.3869  14.6412  14.9237  15.3469  15.6995  16.3985  16.8659
    17.4377  17.6990  21.6262  23.2238  25.7538

     occupation numbers 
     1.0000   1.0000   1.0000   1.0000   1.0000   1.0000   1.0000   1.0000
     1.0000   1.0000   1.0000   1.0000   1.0000   1.0000   1.0000   1.0000
     1.0000   1.0000   0.0000   0.0000   0.0000

          k = 0.2500 0.5292-0.3114 (  2898 PWs)   bands (ev):

   -77.6655 -77.6655 -41.0577 -41.0577 -40.9588 -40.9588 -40.8601 -40.8601
    14.1787  14.1787  14.9318  14.9318  15.4781  15.4781  16.5242  16.5242
    17.6124  17.6124  22.3972  22.3972  26.2947

     occupation numbers 
     1.0000   1.0000   1.0000   1.0000   1.0000   1.0000   1.0000   1.0000
     1.0000   1.0000   1.0000   1.0000   1.0000   1.0000   1.0000   1.0000
     1.0000   1.0000   0.0000   0.0000   0.0000

          k = 0.3333 0.5774 0.0000 (  2928 PWs)   bands (ev):

   -77.6645 -77.6645 -41.0249 -40.9778 -40.9778 -40.9307 -40.9307 -40.9284
    14.0877  14.4347  14.4347  14.7269  15.5231  15.5231  16.4569  17.4251
    17.4251  17.5575  22.6539  23.4429  23.4429

     occupation numbers 
     1.0000   1.0000   1.0000   1.0000   1.0000   1.0000   1.0000   1.0000
     1.0000   1.0000   1.0000   1.0000   1.0000   1.0000   1.0000   1.0000
     1.0000   1.0000   0.0000   0.0000   0.0000

          k = 0.3333 0.5774 0.1038 (  2898 PWs)   bands (ev):

   -77.6645 -77.6645 -41.0185 -41.0058 -41.0058 -40.9349 -40.9025 -40.9025
    14.1816  14.4617  14.4617  14.7478  15.4960  15.4960  16.4278  17.3209
    17.4623  17.4623  23.0562  23.5227  23.5227

     occupation numbers 
     1.0000   1.0000   1.0000   1.0000   1.0000   1.0000   1.0000   1.0000
     1.0000   1.0000   1.0000   1.0000   1.0000   1.0000   1.0000   1.0000
     1.0000   1.0000   0.0000   0.0000   0.0000

          k = 0.3333 0.5774 0.2076 (  2901 PWs)   bands (ev):

   -77.6645 -77.6645 -41.0371 -41.0371 -41.0009 -40.9526 -40.8710 -40.8710
    14.4216  14.5145  14.5145  14.7669  15.4480  15.4480  16.3875  16.8395
    17.5319  17.5319  23.7219  23.7219  24.0821

     occupation numbers 
     1.0000   1.0000   1.0000   1.0000   1.0000   1.0000   1.0000   1.0000
     1.0000   1.0000   1.0000   1.0000   1.0000   1.0000   1.0000   1.0000
     1.0000   1.0000   0.0000   0.0000   0.0000

          k = 0.3333 0.5774-0.3114 (  2922 PWs)   bands (ev):

   -77.6645 -77.6645 -41.0490 -41.0490 -40.9768 -40.9768 -40.8590 -40.8590
    14.5401  14.5401  14.6691  14.6691  15.4272  15.4272  16.4803  16.4803
    17.5647  17.5647  23.8517  23.8517  25.4903

     occupation numbers 
     1.0000   1.0000   1.0000   1.0000   1.0000   1.0000   1.0000   1.0000
     1.0000   1.0000   1.0000   1.0000   1.0000   1.0000   1.0000   1.0000
     1.0000   1.0000   0.0000   0.0000   0.0000

 ------ SPIN DOWN ----------


          k = 0.0000 0.0000 0.0000 (  2863 PWs)   bands (ev):

   -75.6102 -75.5510 -39.0797 -38.7845 -38.7845 -38.7333 -38.7333 -38.7324
     9.4636  14.2429  17.4788  17.4788  17.4932  17.8514  17.8514  18.1736
    18.2237  18.2237  19.4630  19.4630  25.7277

     occupation numbers 
     1.0000   1.0000   1.0000   1.0000   1.0000   1.0000   1.0000   1.0000
     1.0000   1.0000   1.0000   1.0000   1.0000   1.0000   1.0000   1.0000
     1.0000   1.0000   0.0000   0.0000   0.0000

          k = 0.0000 0.0000 0.1038 (  2857 PWs)   bands (ev):

   -75.6062 -75.5550 -39.0568 -38.7811 -38.7811 -38.7560 -38.7368 -38.7368
     9.7425  14.0106  17.3994  17.4047  17.4047  17.5759  17.7633  17.7633
    18.4108  18.4108  19.4501  19.4501  27.0586

     occupation numbers 
     1.0000   1.0000   1.0000   1.0000   1.0000   1.0000   1.0000   1.0000
     1.0000   1.0000   1.0000   1.0000   1.0000   1.0000   1.0000   1.0000
     0.0000   0.0000   0.0000   0.0000   0.0000

          k = 0.0000 0.0000 0.2076 (  2882 PWs)   bands (ev):

   -75.5954 -75.5659 -38.9939 -38.8202 -38.7717 -38.7717 -38.7461 -38.7461
    10.5493  13.1198  16.9335  17.1608  17.3422  17.3422  17.5714  17.5714
    18.7793  18.7793  19.3596  19.3596  30.0569

     occupation numbers 
     1.0000   1.0000   1.0000   1.0000   1.0000   1.0000   1.0000   1.0000
     1.0000   1.0000   1.0000   1.0000   1.0000   1.0000   1.0000   1.0000
     0.0000   0.0000   0.0000   0.0000   0.0000

          k = 0.0000 0.0000-0.3114 (  2858 PWs)   bands (ev):

   -75.5807 -75.5807 -38.9074 -38.9074 -38.7589 -38.7589 -38.7589 -38.7589
    11.7731  11.7731  16.9136  16.9136  17.4027  17.4027  17.4027  17.4027
    19.1294  19.1294  19.1294  19.1294  33.7290

     occupation numbers 
     1.0000   1.0000   1.0000   1.0000   1.0000   1.0000   1.0000   1.0000
     1.0000   1.0000   1.0000   1.0000   1.0000   1.0000   1.0000   1.0000
     0.0000   0.0000   0.0000   0.0000   0.0000

          k = 0.0000 0.0962 0.0000 (  2867 PWs)   bands (ev):

   -75.6070 -75.5497 -39.0723 -38.8002 -38.7897 -38.7498 -38.7359 -38.7356
     9.7027  14.4042  17.2061  17.5368  17.6013  17.7056  17.7925  17.9593
    18.1415  18.1637  19.4994  20.3108  25.7447

     occupation numbers 
     1.0000   1.0000   1.0000   1.0000   1.0000   1.0000   1.0000   1.0000
     1.0000   1.0000   1.0000   1.0000   1.0000   1.0000   1.0000   1.0000
     1.0000   1.0000   0.0000   0.0000   0.0000

          k = 0.0000 0.0962 0.1038 (  2876 PWs)   bands (ev):

   -75.6032 -75.5535 -39.0507 -38.7963 -38.7861 -38.7689 -38.7427 -38.7395
     9.9779  14.1855  17.1026  17.2016  17.5004  17.5087  17.8105  17.8628
    18.3604  18.3826  19.4775  19.9589  27.1410

     occupation numbers 
     1.0000   1.0000   1.0000   1.0000   1.0000   1.0000   1.0000   1.0000
     1.0000   1.0000   1.0000   1.0000   1.0000   1.0000   1.0000   1.0000
     0.0426   0.0000   0.0000   0.0000   0.0000

          k = 0.0000 0.0962 0.2076 (  2871 PWs)   bands (ev):

   -75.5927 -75.5640 -38.9915 -38.8283 -38.7852 -38.7763 -38.7549 -38.7493
    10.7740  13.3118  16.7018  17.1415  17.2423  17.4381  17.6099  17.6698
    18.7498  18.7877  19.3669  19.5512  30.1921

     occupation numbers 
     1.0000   1.0000   1.0000   1.0000   1.0000   1.0000   1.0000   1.0000
     1.0000   1.0000   1.0000   1.0000   1.0000   1.0000   1.0000   1.0000
     0.0000   0.0000   0.0000   0.0000   0.0000

          k = 0.0000 0.0962-0.3114 (  2876 PWs)   bands (ev):

   -75.5784 -75.5784 -38.9101 -38.9101 -38.7701 -38.7701 -38.7628 -38.7628
    11.9814  11.9814  16.8080  16.8080  17.3797  17.3797  17.4996  17.4996
    19.1164  19.1164  19.1935  19.1935  33.8864

     occupation numbers 
     1.0000   1.0000   1.0000   1.0000   1.0000   1.0000   1.0000   1.0000
     1.0000   1.0000   1.0000   1.0000   1.0000   1.0000   1.0000   1.0000
     0.0000   0.0000   0.0000   0.0000   0.0000

          k = 0.0000 0.1925 0.0000 (  2874 PWs)   bands (ev):

   -75.5982 -75.5461 -39.0510 -38.8436 -38.8037 -38.7942 -38.7452 -38.7431
    10.3992  14.8192  16.7025  16.8477  17.5744  17.9400  17.9494  18.0097
    18.0344  18.2625  19.5767  21.7630  25.8130

     occupation numbers 
     1.0000   1.0000   1.0000   1.0000   1.0000   1.0000   1.0000   1.0000
     1.0000   1.0000   1.0000   1.0000   1.0000   1.0000   1.0000   1.0000
     1.0000   1.0000   0.0000   0.0000   0.0000

          k = 0.0000 0.1925 0.1038 (  2876 PWs)   bands (ev):

   -75.5947 -75.5496 -39.0339 -38.8377 -38.8104 -38.7997 -38.7525 -38.7472
    10.6617  14.6455  16.4420  16.8842  17.4632  17.7349  17.7505  18.1161
    18.3386  18.4086  19.5346  20.9685  27.4176

     occupation numbers 
     1.0000   1.0000   1.0000   1.0000   1.0000   1.0000   1.0000   1.0000
     1.0000   1.0000   1.0000   1.0000   1.0000   1.0000   1.0000   1.0000
     0.7059   0.0000   0.0000   0.0000   0.0000

          k = 0.0000 0.1925 0.2076 (  2884 PWs)   bands (ev):

   -75.5852 -75.5591 -38.9869 -38.8585 -38.8188 -38.7886 -38.7712 -38.7583
    11.4195  13.8285  16.3097  16.9608  17.1112  17.5634  17.6733  17.9433
    18.7172  18.8537  19.3815  20.0188  30.5988

     occupation numbers 
     1.0000   1.0000   1.0000   1.0000   1.0000   1.0000   1.0000   1.0000
     1.0000   1.0000   1.0000   1.0000   1.0000   1.0000   1.0000   1.0000
     0.0000   0.0000   0.0000   0.0000   0.0000

          k = 0.0000 0.1925-0.3114 (  2900 PWs)   bands (ev):

   -75.5722 -75.5722 -38.9226 -38.9226 -38.7954 -38.7954 -38.7734 -38.7734
    12.5651  12.5651  16.5951  16.5951  17.2801  17.2801  17.7590  17.7590
    19.0964  19.0964  19.3738  19.3738  34.3119

     occupation numbers 
     1.0000   1.0000   1.0000   1.0000   1.0000   1.0000   1.0000   1.0000
     1.0000   1.0000   1.0000   1.0000   1.0000   1.0000   1.0000   1.0000
     0.0000   0.0000   0.0000   0.0000   0.0000

          k = 0.0000 0.2887 0.0000 (  2880 PWs)   bands (ev):

   -75.5857 -75.5417 -39.0191 -38.9033 -38.8538 -38.8222 -38.7613 -38.7535
    11.4809  15.2308  16.0358  16.5263  17.4266  17.6994  17.8028  18.4604
    18.4650  18.7004  19.6496  23.4379  25.9547

     occupation numbers 
     1.0000   1.0000   1.0000   1.0000   1.0000   1.0000   1.0000   1.0000
     1.0000   1.0000   1.0000   1.0000   1.0000   1.0000   1.0000   0.0000
     0.0000   0.0000   0.0000   0.0000   0.0000

          k = 0.0000 0.2887 0.1038 (  2887 PWs)   bands (ev):

   -75.5827 -75.5446 -39.0123 -38.8919 -38.8677 -38.8177 -38.7659 -38.7581
    11.7143  15.1301  15.9029  16.5857  17.2837  17.7353  17.7530  18.5059
    18.6176  18.6572  19.5881  22.0780  27.9346

     occupation numbers 
     1.0000   1.0000   1.0000   1.0000   1.0000   1.0000   1.0000   1.0000
     1.0000   1.0000   1.0000   1.0000   1.0000   1.0000   1.0000   0.0000
     0.0000   0.0000   0.0000   0.0000   0.0000

          k = 0.0000 0.2887 0.2076 (  2884 PWs)   bands (ev):

   -75.5747 -75.5527 -38.9904 -38.9108 -38.8537 -38.8051 -38.7834 -38.7707
    12.3815  14.4354  16.0159  16.6727  17.0577  17.5457  17.8584  18.3361
    18.8388  19.0044  19.4070  20.5915  31.1391

     occupation numbers 
     1.0000   1.0000   1.0000   1.0000   1.0000   1.0000   1.0000   1.0000
     1.0000   1.0000   1.0000   1.0000   1.0000   1.0000   1.0000   0.7893
     0.0000   0.0000   0.0000   0.0000   0.0000

          k = 0.0000 0.2887-0.3114 (  2910 PWs)   bands (ev):

   -75.5637 -75.5637 -38.9540 -38.9540 -38.8153 -38.8153 -38.7879 -38.7879
    13.3686  13.3686  16.3927  16.3927  17.2239  17.2239  18.0738  18.0738
    19.1348  19.1348  19.6227  19.6227  33.0036

     occupation numbers 
     1.0000   1.0000   1.0000   1.0000   1.0000   1.0000   1.0000   1.0000
     1.0000   1.0000   1.0000   1.0000   1.0000   1.0000   1.0000   1.0000
     0.0000   0.0000   0.0000   0.0000   0.0000

          k = 0.0000 0.3849 0.0000 (  2880 PWs)   bands (ev):

   -75.5722 -75.5382 -38.9817 -38.9635 -38.9122 -38.8403 -38.7829 -38.7642
    12.7839  15.2751  15.5655  16.3892  17.4839  17.5203  17.5991  19.0148
    19.0958  19.1790  19.6998  25.2668  25.8231

     occupation numbers 
[...]
    19.6085  19.6922  20.7677  23.2237  28.1684

     occupation numbers 
     1.0000   1.0000   1.0000   1.0000   1.0000   1.0000   1.0000   1.0000
     1.0000   1.0000   1.0000   1.0000   1.0000   1.0000   1.0000   0.0000
     0.0000   0.0000   0.0000   0.0000   0.0000

          k = 0.0833 0.5292 0.1038 (  2895 PWs)   bands (ev):

   -75.5551 -75.5383 -39.0314 -38.9800 -38.9059 -38.8576 -38.8134 -38.7878
    14.3930  15.0344  15.5647  16.0699  17.2816  17.7983  17.8600  19.4085
    19.5719  19.6508  20.6340  22.9041  27.0703

     occupation numbers 
     1.0000   1.0000   1.0000   1.0000   1.0000   1.0000   1.0000   1.0000
     1.0000   1.0000   1.0000   1.0000   1.0000   1.0000   1.0000   0.0000
     0.0000   0.0000   0.0000   0.0000   0.0000

          k = 0.0833 0.5292 0.2076 (  2898 PWs)   bands (ev):

   -75.5515 -75.5418 -39.0468 -39.0146 -38.8695 -38.8344 -38.8190 -38.7916
    14.3839  14.8681  15.8666  16.1868  17.3397  18.0877  18.2905  18.9446
    19.5204  19.7465  20.4189  21.9957  26.4897

     occupation numbers 
     1.0000   1.0000   1.0000   1.0000   1.0000   1.0000   1.0000   1.0000
     1.0000   1.0000   1.0000   1.0000   1.0000   1.0000   1.0000   0.0000
     0.0000   0.0000   0.0000   0.0000   0.0000

          k = 0.0833 0.5292-0.3114 (  2888 PWs)   bands (ev):

   -75.5467 -75.5467 -39.0410 -39.0410 -38.8416 -38.8416 -38.8053 -38.8053
    14.5656  14.5656  16.1442  16.1442  17.8290  17.8290  18.5888  18.5888
    19.5993  19.5993  20.9540  20.9540  26.7394

     occupation numbers 
     1.0000   1.0000   1.0000   1.0000   1.0000   1.0000   1.0000   1.0000
     1.0000   1.0000   1.0000   1.0000   1.0000   1.0000   0.0000   0.0000
     0.0000   0.0000   0.0000   0.0000   0.0000

          k = 0.1667 0.2887 0.0000 (  2886 PWs)   bands (ev):

   -75.5791 -75.5398 -39.0014 -38.9087 -38.8994 -38.8228 -38.7759 -38.7711
    12.0974  15.5101  15.8605  16.2040  17.3383  17.4563  17.9041  18.3458
    18.8365  19.1938  19.6067  24.3242  26.1732

     occupation numbers 
     1.0000   1.0000   1.0000   1.0000   1.0000   1.0000   1.0000   1.0000
     1.0000   1.0000   1.0000   1.0000   1.0000   1.0000   1.0000   0.4186
     0.0000   0.0000   0.0000   0.0000   0.0000

          k = 0.1667 0.2887 0.1038 (  2896 PWs)   bands (ev):

   -75.5765 -75.5424 -39.0014 -38.9066 -38.8916 -38.8302 -38.7803 -38.7696
    12.3127  15.4524  15.7518  16.2694  17.2661  17.4843  17.7889  18.4100
    18.9651  19.0763  19.6133  22.6774  28.3678

     occupation numbers 
     1.0000   1.0000   1.0000   1.0000   1.0000   1.0000   1.0000   1.0000
     1.0000   1.0000   1.0000   1.0000   1.0000   1.0000   1.0000   0.0000
     0.0000   0.0000   0.0000   0.0000   0.0000

          k = 0.1667 0.2887 0.2076 (  2887 PWs)   bands (ev):

   -75.5693 -75.5496 -38.9920 -38.9325 -38.8553 -38.8324 -38.7909 -38.7768
    12.9232  14.7678  15.9978  16.4360  17.0313  17.3132  17.8428  18.4421
    19.0909  19.1924  19.5633  20.9614  31.6036

     occupation numbers 
     1.0000   1.0000   1.0000   1.0000   1.0000   1.0000   1.0000   1.0000
     1.0000   1.0000   1.0000   1.0000   1.0000   1.0000   1.0000   0.0000
     0.0000   0.0000   0.0000   0.0000   0.0000

          k = 0.1667 0.2887-0.3114 (  2894 PWs)   bands (ev):

   -75.5594 -75.5594 -38.9667 -38.9667 -38.8297 -38.8297 -38.7936 -38.7936
    13.8136  13.8136  16.3738  16.3738  16.9966  16.9966  18.1452  18.1452
    19.3850  19.3850  19.7955  19.7955  33.1852

     occupation numbers 
     1.0000   1.0000   1.0000   1.0000   1.0000   1.0000   1.0000   1.0000
     1.0000   1.0000   1.0000   1.0000   1.0000   1.0000   1.0000   1.0000
     0.0000   0.0000   0.0000   0.0000   0.0000

          k = 0.1667 0.3849 0.0000 (  2899 PWs)   bands (ev):

   -75.5669 -75.5373 -38.9658 -38.9554 -38.9321 -38.8510 -38.7961 -38.7930
    13.3390  15.5559  15.5881  16.0035  17.1457  17.5931  17.6820  18.6745
    19.3337  19.6071  19.8918  26.0766  26.3654

     occupation numbers 
     1.0000   1.0000   1.0000   1.0000   1.0000   1.0000   1.0000   1.0000
     1.0000   1.0000   1.0000   1.0000   1.0000   1.0000   1.0000   0.0000
     0.0000   0.0000   0.0000   0.0000   0.0000

          k = 0.1667 0.3849 0.1038 (  2897 PWs)   bands (ev):

   -75.5649 -75.5393 -38.9933 -38.9507 -38.9054 -38.8572 -38.8025 -38.7845
    13.4917  15.4190  15.6931  16.1067  17.1346  17.5382  17.6461  18.7003
    19.3353  19.4357  20.0069  23.7584  28.3369

     occupation numbers 
     1.0000   1.0000   1.0000   1.0000   1.0000   1.0000   1.0000   1.0000
     1.0000   1.0000   1.0000   1.0000   1.0000   1.0000   1.0000   0.0000
     0.0000   0.0000   0.0000   0.0000   0.0000

          k = 0.1667 0.3849 0.2076 (  2887 PWs)   bands (ev):

   -75.5595 -75.5447 -39.0068 -38.9732 -38.8683 -38.8519 -38.8108 -38.7826
    13.9097  15.0348  15.9795  16.3253  17.0139  17.2525  17.8261  18.6276
    19.2009  19.6198  20.0884  21.7671  29.2619

     occupation numbers 
     1.0000   1.0000   1.0000   1.0000   1.0000   1.0000   1.0000   1.0000
     1.0000   1.0000   1.0000   1.0000   1.0000   1.0000   1.0000   0.0000
     0.0000   0.0000   0.0000   0.0000   0.0000

          k = 0.1667 0.3849-0.3114 (  2882 PWs)   bands (ev):

   -75.5521 -75.5521 -38.9978 -38.9978 -38.8509 -38.8509 -38.7981 -38.7981
    14.4788  14.4788  16.3220  16.3220  16.9826  16.9826  18.1808  18.1808
    19.6250  19.6250  20.4437  20.4437  30.3797

     occupation numbers 
     1.0000   1.0000   1.0000   1.0000   1.0000   1.0000   1.0000   1.0000
     1.0000   1.0000   1.0000   1.0000   1.0000   1.0000   1.0000   1.0000
     0.0000   0.0000   0.0000   0.0000   0.0000

          k = 0.1667 0.4811 0.0000 (  2900 PWs)   bands (ev):

   -75.5565 -75.5369 -38.9926 -38.9475 -38.9314 -38.8781 -38.8174 -38.8098
    14.4455  15.3762  15.3773  16.0345  17.0882  17.4342  17.8251  19.1082
    19.5946  19.6057  20.7740  24.6698  27.9623

     occupation numbers 
     1.0000   1.0000   1.0000   1.0000   1.0000   1.0000   1.0000   1.0000
     1.0000   1.0000   1.0000   1.0000   1.0000   1.0000   1.0000   0.0000
     0.0000   0.0000   0.0000   0.0000   0.0000

          k = 0.1667 0.4811 0.1038 (  2898 PWs)   bands (ev):

   -75.5552 -75.5382 -39.0084 -38.9684 -38.9074 -38.8708 -38.8226 -38.7991
    14.4720  15.3280  15.5392  16.0812  17.1071  17.4167  17.8695  19.0916
    19.3686  19.6702  20.8275  24.0970  26.8850

     occupation numbers 
     1.0000   1.0000   1.0000   1.0000   1.0000   1.0000   1.0000   1.0000
     1.0000   1.0000   1.0000   1.0000   1.0000   1.0000   1.0000   0.0000
     0.0000   0.0000   0.0000   0.0000   0.0000

          k = 0.1667 0.4811 0.2076 (  2898 PWs)   bands (ev):

   -75.5516 -75.5418 -39.0251 -38.9985 -38.8888 -38.8517 -38.8230 -38.7893
    14.5911  15.1241  15.8743  16.3700  16.9497  17.3859  18.0577  18.7560
    19.3020  19.7673  20.9800  22.6830  26.9789

     occupation numbers 
     1.0000   1.0000   1.0000   1.0000   1.0000   1.0000   1.0000   1.0000
     1.0000   1.0000   1.0000   1.0000   1.0000   1.0000   1.0000   0.0000
     0.0000   0.0000   0.0000   0.0000   0.0000

          k = 0.1667 0.4811-0.3114 (  2886 PWs)   bands (ev):

   -75.5467 -75.5467 -39.0216 -39.0216 -38.8680 -38.8680 -38.7985 -38.7985
    14.8273  14.8273  16.2902  16.2902  17.1179  17.1179  18.3255  18.3255
    19.6184  19.6184  21.5092  21.5092  27.7879

     occupation numbers 
     1.0000   1.0000   1.0000   1.0000   1.0000   1.0000   1.0000   1.0000
     1.0000   1.0000   1.0000   1.0000   1.0000   1.0000   0.9713   0.9713
     0.0000   0.0000   0.0000   0.0000   0.0000

          k = 0.1667 0.5774 0.0000 (  2912 PWs)   bands (ev):

   -75.5518 -75.5376 -39.0061 -38.9519 -38.9139 -38.8895 -38.8312 -38.8147
    14.9208  15.2435  15.3176  16.0821  17.1204  17.2900  17.9292  19.4114
    19.5816  19.6047  21.6600  23.1120  28.8307

     occupation numbers 
     1.0000   1.0000   1.0000   1.0000   1.0000   1.0000   1.0000   1.0000
     1.0000   1.0000   1.0000   1.0000   1.0000   1.0000   1.0000   0.0000
     0.0000   0.0000   0.0000   0.0000   0.0000

          k = 0.1667 0.5774 0.1038 (  2902 PWs)   bands (ev):

   -75.5509 -75.5386 -39.0186 -38.9713 -38.9122 -38.8645 -38.8350 -38.8055
    14.7853  15.2888  15.6761  15.9226  17.0626  17.4531  17.9825  19.3362
    19.4082  19.6468  21.6938  23.0208  28.0351

     occupation numbers 
     1.0000   1.0000   1.0000   1.0000   1.0000   1.0000   1.0000   1.0000
     1.0000   1.0000   1.0000   1.0000   1.0000   1.0000   1.0000   0.0000
     0.0000   0.0000   0.0000   0.0000   0.0000

          k = 0.1667 0.5774 0.2076 (  2896 PWs)   bands (ev):

   -75.5483 -75.5412 -39.0338 -39.0062 -38.8973 -38.8513 -38.8253 -38.7929
    14.7530  15.1817  15.9364  16.2854  16.8608  17.5561  18.2019  18.8294
    19.4296  19.6901  21.8283  22.7138  26.9330

     occupation numbers 
     1.0000   1.0000   1.0000   1.0000   1.0000   1.0000   1.0000   1.0000
     1.0000   1.0000   1.0000   1.0000   1.0000   1.0000   1.0000   0.0000
     0.0000   0.0000   0.0000   0.0000   0.0000

          k = 0.1667 0.5774-0.3114 (  2890 PWs)   bands (ev):

   -75.5447 -75.5447 -39.0305 -39.0305 -38.8745 -38.8745 -38.7983 -38.7983
    14.9110  14.9110  16.2828  16.2828  17.1667  17.1667  18.4874  18.4874
    19.5549  19.5549  22.2207  22.2207  26.5430

     occupation numbers 
     1.0000   1.0000   1.0000   1.0000   1.0000   1.0000   1.0000   1.0000
     1.0000   1.0000   1.0000   1.0000   1.0000   1.0000   0.0000   0.0000
     0.0000   0.0000   0.0000   0.0000   0.0000

          k = 0.2500 0.4330 0.0000 (  2902 PWs)   bands (ev):

   -75.5565 -75.5369 -38.9727 -38.9497 -38.9316 -38.8778 -38.8281 -38.8172
    14.4454  15.4472  15.7117  15.7237  17.0018  17.4567  17.8271  18.8794
    19.5617  19.6008  20.8085  26.2348  26.9974

     occupation numbers 
     1.0000   1.0000   1.0000   1.0000   1.0000   1.0000   1.0000   1.0000
     1.0000   1.0000   1.0000   1.0000   1.0000   1.0000   1.0000   0.0000
     0.0000   0.0000   0.0000   0.0000   0.0000

          k = 0.2500 0.4330 0.1038 (  2901 PWs)   bands (ev):

   -75.5552 -75.5382 -38.9846 -38.9766 -38.8915 -38.8909 -38.8311 -38.8023
    14.5310  15.3653  15.7807  15.9117  17.0488  17.2850  17.8207  18.9070
    19.3144  19.6796  20.9156  24.8504  27.2885

     occupation numbers 
     1.0000   1.0000   1.0000   1.0000   1.0000   1.0000   1.0000   1.0000
     1.0000   1.0000   1.0000   1.0000   1.0000   1.0000   1.0000   0.0000
     0.0000   0.0000   0.0000   0.0000   0.0000

          k = 0.2500 0.4330 0.2076 (  2893 PWs)   bands (ev):

   -75.5516 -75.5418 -39.0086 -38.9929 -38.8961 -38.8684 -38.8218 -38.7889
    14.7494  15.2245  16.0029  16.2739  16.9080  17.0304  17.8842  18.6628
    19.2632  19.7752  21.1530  22.9990  28.0758

     occupation numbers 
     1.0000   1.0000   1.0000   1.0000   1.0000   1.0000   1.0000   1.0000
     1.0000   1.0000   1.0000   1.0000   1.0000   1.0000   1.0000   0.0000
     0.0000   0.0000   0.0000   0.0000   0.0000

          k = 0.2500 0.4330-0.3114 (  2892 PWs)   bands (ev):

   -75.5467 -75.5467 -39.0096 -39.0096 -38.8822 -38.8822 -38.7965 -38.7965
    15.0106  15.0106  16.3425  16.3425  16.8018  16.8018  18.1679  18.1679
    19.6415  19.6415  21.7198  21.7198  29.0944

     occupation numbers 
     1.0000   1.0000   1.0000   1.0000   1.0000   1.0000   1.0000   1.0000
     1.0000   1.0000   1.0000   1.0000   1.0000   1.0000   1.0000   1.0000
     0.0000   0.0000   0.0000   0.0000   0.0000

          k = 0.2500 0.5292 0.0000 (  2906 PWs)   bands (ev):

   -75.5486 -75.5385 -38.9861 -38.9400 -38.9077 -38.9009 -38.8485 -38.8420
    15.1710  15.4083  15.5497  15.7982  17.0046  17.2247  18.0239  19.1748
    19.5348  19.5526  22.0570  24.2580  26.3191

     occupation numbers 
     1.0000   1.0000   1.0000   1.0000   1.0000   1.0000   1.0000   1.0000
     1.0000   1.0000   1.0000   1.0000   1.0000   1.0000   1.0000   0.0000
     0.0000   0.0000   0.0000   0.0000   0.0000

          k = 0.2500 0.5292 0.1038 (  2905 PWs)   bands (ev):

   -75.5480 -75.5392 -38.9924 -38.9646 -38.9268 -38.8703 -38.8518 -38.8192
    15.1460  15.5145  15.6365  15.8688  16.9853  17.1278  18.0249  19.1847
    19.2836  19.6042  22.2217  24.2455  26.4041

     occupation numbers 
     1.0000   1.0000   1.0000   1.0000   1.0000   1.0000   1.0000   1.0000
     1.0000   1.0000   1.0000   1.0000   1.0000   1.0000   1.0000   0.0000
     0.0000   0.0000   0.0000   0.0000   0.0000

          k = 0.2500 0.5292 0.2076 (  2903 PWs)   bands (ev):

   -75.5461 -75.5410 -39.0094 -38.9941 -38.9256 -38.8814 -38.8178 -38.7964
    15.1935  15.4818  15.9128  16.2163  16.7489  16.9847  18.0782  18.7057
    19.3458  19.6468  22.6069  23.9135  26.4982

     occupation numbers 
     1.0000   1.0000   1.0000   1.0000   1.0000   1.0000   1.0000   1.0000
     1.0000   1.0000   1.0000   1.0000   1.0000   1.0000   1.0000   0.0000
     0.0000   0.0000   0.0000   0.0000   0.0000

          k = 0.2500 0.5292-0.3114 (  2898 PWs)   bands (ev):

   -75.5436 -75.5436 -39.0124 -39.0124 -38.9050 -38.9050 -38.7949 -38.7949
    15.3292  15.3292  16.3076  16.3076  16.7011  16.7011  18.2756  18.2756
    19.5416  19.5416  23.1979  23.1979  27.0415

     occupation numbers 
     1.0000   1.0000   1.0000   1.0000   1.0000   1.0000   1.0000   1.0000
     1.0000   1.0000   1.0000   1.0000   1.0000   1.0000   1.0000   1.0000
     0.0000   0.0000   0.0000   0.0000   0.0000

          k = 0.3333 0.5774 0.0000 (  2928 PWs)   bands (ev):

   -75.5424 -75.5424 -38.9777 -38.9263 -38.9263 -38.8720 -38.8704 -38.8704
    15.4363  15.5254  15.5254  15.7366  17.0530  17.0530  18.1295  19.3378
    19.3378  19.5066  23.4796  24.2427  24.2427

     occupation numbers 
     1.0000   1.0000   1.0000   1.0000   1.0000   1.0000   1.0000   1.0000
     1.0000   1.0000   1.0000   1.0000   1.0000   1.0000   1.0000   0.0000
     0.0000   0.0000   0.0000   0.0000   0.0000

          k = 0.3333 0.5774 0.1038 (  2898 PWs)   bands (ev):

   -75.5424 -75.5424 -38.9706 -38.9558 -38.9558 -38.8791 -38.8407 -38.8407
    15.5102  15.6027  15.6027  15.7702  16.9696  16.9696  18.1052  19.2284
    19.3795  19.3795  23.8982  24.2972  24.2972

     occupation numbers 
     1.0000   1.0000   1.0000   1.0000   1.0000   1.0000   1.0000   1.0000
     1.0000   1.0000   1.0000   1.0000   1.0000   1.0000   1.0000   0.0000
     0.0000   0.0000   0.0000   0.0000   0.0000

          k = 0.3333 0.5774 0.2076 (  2901 PWs)   bands (ev):

   -75.5424 -75.5424 -38.9896 -38.9896 -38.9514 -38.8985 -38.8066 -38.8066
    15.6836  15.7865  15.7865  15.8327  16.7812  16.7812  18.0933  18.6814
    19.4543  19.4543  24.4324  24.4324  24.9090

     occupation numbers 
     1.0000   1.0000   1.0000   1.0000   1.0000   1.0000   1.0000   1.0000
     1.0000   1.0000   1.0000   1.0000   1.0000   1.0000   1.0000   0.0000
     0.0000   0.0000   0.0000   0.0000   0.0000

          k = 0.3333 0.5774-0.3114 (  2922 PWs)   bands (ev):

   -75.5424 -75.5424 -39.0025 -39.0025 -38.9250 -38.9250 -38.7937 -38.7937
    15.8237  15.8237  15.9062  15.9062  16.6628  16.6628  18.2523  18.2523
    19.4878  19.4878  24.5188  24.5188  26.2380

     occupation numbers 
     1.0000   1.0000   1.0000   1.0000   1.0000   1.0000   1.0000   1.0000
     1.0000   1.0000   1.0000   1.0000   1.0000   1.0000   1.0000   1.0000
     0.0000   0.0000   0.0000   0.0000   0.0000

     the Fermi energy is    18.3438 ev

!    total energy              =    -753.45490255 Ry
     total all-electron energy =     -5573.811594 Ry
     estimated scf accuracy    <       0.00000028 Ry
     smearing contrib. (-TS)   =      -0.00002099 Ry
     internal energy E=F+TS    =    -753.45488156 Ry

     The total energy is F=E-TS. E is the sum of the following terms:
     one-electron contribution =    -285.80762111 Ry
     hartree contribution      =     166.17544958 Ry
     xc contribution           =     -61.38400614 Ry
     ewald contribution        =    -397.26460310 Ry
     one-center paw contrib.   =    -175.17410079 Ry
      -> PAW hartree energy AE =     221.95416330 Ry
      -> PAW hartree energy PS =    -220.89867915 Ry
      -> PAW xc energy AE      =    -117.66843247 Ry
      -> PAW xc energy PS      =      29.02589792 Ry
      -> total E_H with PAW    =     167.23093373 Ry
      -> total E_XC with PAW   =    -150.02654069 Ry

     total magnetization       =     3.31 Bohr mag/cell
     absolute magnetization    =     3.64 Bohr mag/cell

     convergence has been achieved in   5 iterations

     Writing all to output data dir ./out/Co.save/
 
     init_run     :      0.41s CPU      0.53s WALL (       1 calls)
     electrons    :      8.64s CPU      9.12s WALL (       1 calls)

     Called by init_run:
     wfcinit      :      0.27s CPU      0.37s WALL (       1 calls)
     potinit      :      0.09s CPU      0.11s WALL (       1 calls)
     hinit0       :      0.03s CPU      0.03s WALL (       1 calls)

     Called by electrons:
     c_bands      :      7.29s CPU      7.63s WALL (       5 calls)
     sum_band     :      0.90s CPU      0.95s WALL (       5 calls)
     v_of_rho     :      0.02s CPU      0.02s WALL (       6 calls)
     v_h          :      0.00s CPU      0.00s WALL (       6 calls)
     v_xc         :      0.02s CPU      0.02s WALL (       6 calls)
     newd         :      0.02s CPU      0.03s WALL (       6 calls)
     PAW_pot      :      0.48s CPU      0.58s WALL (       6 calls)
     mix_rho      :      0.00s CPU      0.00s WALL (       5 calls)

     Called by c_bands:
     init_us_2    :      0.05s CPU      0.06s WALL (    1520 calls)
     init_us_2:cp :      0.04s CPU      0.06s WALL (    1520 calls)
     cegterg      :      6.94s CPU      7.22s WALL (     760 calls)

     Called by sum_band:
     sum_band:wei :      0.01s CPU      0.01s WALL (       5 calls)
     sum_band:loo :      0.86s CPU      0.90s WALL (       5 calls)
     sum_band:buf :      0.00s CPU      0.01s WALL (     760 calls)
     sum_band:ini :      0.03s CPU      0.03s WALL (     760 calls)
     sum_band:cal :      0.08s CPU      0.07s WALL (     760 calls)
     sum_band:bec :      0.00s CPU      0.01s WALL (     760 calls)
     addusdens    :      0.03s CPU      0.04s WALL (       5 calls)
                                        0.00s GPU  (       5 calls)
     addusd:skk   :      0.00s CPU      0.00s WALL (       5 calls)
                                        0.00s GPU  (       5 calls)

     Called by *egterg:
     cdiaghg      :      1.69s CPU      1.71s WALL (    3541 calls)
     cegterg:over :      0.24s CPU      0.21s WALL (    2933 calls)
     cegterg:upda :      0.03s CPU      0.05s WALL (    2933 calls)
     cegterg:last :      0.06s CPU      0.09s WALL (    2053 calls)
     h_psi        :      4.65s CPU      4.87s WALL (    3693 calls)
     s_psi        :      0.09s CPU      0.08s WALL (    3693 calls)
     g_psi        :      0.01s CPU      0.02s WALL (    2933 calls)

     Called by h_psi:
     h_psi:calbec :      0.27s CPU      0.25s WALL (    3693 calls)
     vloc_psi     :      4.31s CPU      4.51s WALL (    3693 calls)
     add_vuspsi   :      0.05s CPU      0.09s WALL (    3693 calls)

     General routines
     calbec       :      0.35s CPU      0.31s WALL (    4453 calls)
     fft          :      0.01s CPU      0.01s WALL (     144 calls)
     ffts         :      0.00s CPU      0.00s WALL (      22 calls)
     fftw         :      4.72s CPU      4.88s WALL (  115892 calls)
     interpolate  :      0.00s CPU      0.00s WALL (      12 calls)
 
     Parallel routines

     PAW routines
     PAW_pot      :      0.48s CPU      0.58s WALL (       6 calls)
     PAW_symme    :      0.01s CPU      0.01s WALL (      10 calls)
 
     PWSCF        :      9.38s CPU     10.43s WALL

 
   This run was terminated on:   8:50:46  22Mar2024            

=------------------------------------------------------------------------------=
   JOB DONE.
=------------------------------------------------------------------------------=
