
     Program PWSCF v.7.2 starts on 22Mar2024 at  9:30: 9 

     This program is part of the open-source Quantum ESPRESSO suite
     for quantum simulation of materials; please cite
         "P. Giannozzi et al., J. Phys.:Condens. Matter 21 395502 (2009);
         "P. Giannozzi et al., J. Phys.:Condens. Matter 29 465901 (2017);
         "P. Giannozzi et al., J. Chem. Phys. 152 154105 (2020);
          URL http://www.quantum-espresso.org", 
     in publications or presentations arising from this work. More details at
     http://www.quantum-espresso.org/quote

     Parallel version (MPI), running on    20 processors

     MPI processes distributed on     1 nodes
     336900 MiB available memory on the printing compute node when the environment starts
 
     Waiting for input...
     Reading input from standard input

     Current dimensions of program PWSCF are:
     Max number of different atomic species (ntypx) = 10
     Max number of k-points (npk) = 120000
     Max angular momentum in pseudopotentials (lmaxx) =  4
     file Co.pbe-spn-kjpaw_psl.0.3.1.UPF: wavefunction(s)  3P 3D renormalized
 
     R & G space division:  proc/nbgrp/npool/nimage =      20
     Subspace diagonalization in iterative solution of the eigenvalue problem:
     a serial algorithm will be used

 
     Parallelization info
     --------------------
     sticks:   dense  smooth     PW     G-vecs:    dense   smooth      PW
     Min          32      32      9                 1141     1096     181
     Max          34      33     10                 1153     1103     186
     Sum         661     649    199                22899    21999    3659
 
     Using Slab Decomposition
 


     bravais-lattice index     =            4
     lattice parameter (alat)  =       4.6109  a.u.
     unit-cell volume          =     141.6124 (a.u.)^3
     number of atoms/cell      =            2
     number of atomic types    =            1
     number of electrons       =        34.00
     number of Kohn-Sham states=           21
     kinetic-energy cutoff     =     110.0000  Ry
     charge density cutoff     =     450.0000  Ry
     scf convergence threshold =      1.0E-06
     mixing beta               =       0.7000
     number of iterations used =            8  plain     mixing
     Exchange-correlation= SLA  PW   PBX  PBC
                           (   1   4   3   4   0   0   0)

     celldm(1)=   4.610932  celldm(2)=   0.000000  celldm(3)=   1.668033
     celldm(4)=   0.000000  celldm(5)=   0.000000  celldm(6)=   0.000000

     crystal axes: (cart. coord. in units of alat)
               a(1) = (   1.000000   0.000000   0.000000 )  
               a(2) = (  -0.500000   0.866025   0.000000 )  
               a(3) = (   0.000000   0.000000   1.668033 )  

     reciprocal axes: (cart. coord. in units 2 pi/alat)
               b(1) = (  1.000000  0.577350  0.000000 )  
               b(2) = (  0.000000  1.154701  0.000000 )  
               b(3) = (  0.000000  0.000000  0.599509 )  


     PseudoPot. # 1 for Co read from file:
     /truba/home/amuhaymin/ZnS/pseudo/QE/Co.pbe-spn-kjpaw_psl.0.3.1.UPF
     MD5 check sum: b0a1ad65bf214e88c1f3d33b20c7d919
     Pseudo is Projector augmented-wave + core cor, Zval = 17.0
     Generated using &quot;atomic&quot; code by A. Dal Corso  v.6.2.2
     Shape of augmentation charge: PSQ
     Using radial grid of 1193 points,  6 beta functions with: 
                l(1) =   0
                l(2) =   0
                l(3) =   1
                l(4) =   1
                l(5) =   2
                l(6) =   2
     Q(r) pseudized with 0 coefficients 


     atomic species   valence    mass     pseudopotential
        Co            17.00    58.93300     Co( 1.00)

     Starting magnetic structure 
     atomic species   magnetization
        Co           0.294

     24 Sym. Ops., with inversion, found (12 have fractional translation)


                                    s                        frac. trans.

      isym =  1     identity                                     

 cryst.   s( 1) = (     1          0          0      )
                  (     0          1          0      )
                  (     0          0          1      )

 cart.    s( 1) = (  1.0000000  0.0000000  0.0000000 )
                  (  0.0000000  1.0000000  0.0000000 )
                  (  0.0000000  0.0000000  1.0000000 )


      isym =  2     180 deg rotation - cart. axis [0,0,1]        

 cryst.   s( 2) = (    -1          0          0      )    f =(  0.0000000 )
                  (     0         -1          0      )       (  0.0000000 )
                  (     0          0          1      )       ( -0.5000000 )

 cart.    s( 2) = ( -1.0000000  0.0000000  0.0000000 )    f =(  0.0000000 )
                  (  0.0000000 -1.0000000  0.0000000 )       (  0.0000000 )
                  (  0.0000000  0.0000000  1.0000000 )       ( -0.8340164 )


      isym =  3     180 deg rotation - cart. axis [0,1,0]        

 cryst.   s( 3) = (    -1          0          0      )    f =(  0.0000000 )
                  (     1          1          0      )       (  0.0000000 )
                  (     0          0         -1      )       (  0.5000000 )

 cart.    s( 3) = ( -1.0000000  0.0000000  0.0000000 )    f =(  0.0000000 )
                  (  0.0000000  1.0000000  0.0000000 )       (  0.0000000 )
                  (  0.0000000  0.0000000 -1.0000000 )       (  0.8340164 )


      isym =  4     180 deg rotation - cart. axis [1,0,0]        

 cryst.   s( 4) = (     1          0          0      )
                  (    -1         -1          0      )
                  (     0          0         -1      )

 cart.    s( 4) = (  1.0000000  0.0000000  0.0000000 )
                  (  0.0000000 -1.0000000  0.0000000 )
                  (  0.0000000  0.0000000 -1.0000000 )


      isym =  5      60 deg rotation - cryst. axis [0,0,1]       

 cryst.   s( 5) = (     1          1          0      )    f =(  0.0000000 )
                  (    -1          0          0      )       ( -0.0000000 )
                  (     0          0          1      )       ( -0.5000000 )

 cart.    s( 5) = (  0.5000000 -0.8660254  0.0000000 )    f =(  0.0000000 )
                  (  0.8660254  0.5000000  0.0000000 )       ( -0.0000000 )
                  (  0.0000000  0.0000000  1.0000000 )       ( -0.8340164 )


      isym =  6      60 deg rotation - cryst. axis [0,0,-1]      

 cryst.   s( 6) = (     0         -1          0      )    f =(  0.0000000 )
                  (     1          1          0      )       ( -0.0000000 )
                  (     0          0          1      )       ( -0.5000000 )

 cart.    s( 6) = (  0.5000000  0.8660254  0.0000000 )    f =(  0.0000000 )
                  ( -0.8660254  0.5000000  0.0000000 )       ( -0.0000000 )
                  (  0.0000000  0.0000000  1.0000000 )       ( -0.8340164 )


      isym =  7     120 deg rotation - cryst. axis [0,0,1]       

 cryst.   s( 7) = (     0          1          0      )
                  (    -1         -1          0      )
                  (     0          0          1      )

 cart.    s( 7) = ( -0.5000000 -0.8660254  0.0000000 )
                  (  0.8660254 -0.5000000  0.0000000 )
                  (  0.0000000  0.0000000  1.0000000 )


      isym =  8     120 deg rotation - cryst. axis [0,0,-1]      

 cryst.   s( 8) = (    -1         -1          0      )
                  (     1          0          0      )
                  (     0          0          1      )

 cart.    s( 8) = ( -0.5000000  0.8660254  0.0000000 )
                  ( -0.8660254 -0.5000000  0.0000000 )
                  (  0.0000000  0.0000000  1.0000000 )


      isym =  9     180 deg rotation - cryst. axis [1,-1,0]      

 cryst.   s( 9) = (     0         -1          0      )    f =(  0.0000000 )
                  (    -1          0          0      )       (  0.0000000 )
                  (     0          0         -1      )       (  0.5000000 )

 cart.    s( 9) = (  0.5000000 -0.8660254  0.0000000 )    f =(  0.0000000 )
                  ( -0.8660254 -0.5000000  0.0000000 )       (  0.0000000 )
                  (  0.0000000  0.0000000 -1.0000000 )       (  0.8340164 )


      isym = 10     180 deg rotation - cryst. axis [2,1,0]       

 cryst.   s(10) = (     1          1          0      )    f =(  0.0000000 )
                  (     0         -1          0      )       ( -0.0000000 )
                  (     0          0         -1      )       (  0.5000000 )

 cart.    s(10) = (  0.5000000  0.8660254  0.0000000 )    f =(  0.0000000 )
                  (  0.8660254 -0.5000000  0.0000000 )       ( -0.0000000 )
                  (  0.0000000  0.0000000 -1.0000000 )       (  0.8340164 )


      isym = 11     180 deg rotation - cryst. axis [0,1,0]       

 cryst.   s(11) = (    -1         -1          0      )
                  (     0          1          0      )
                  (     0          0         -1      )

 cart.    s(11) = ( -0.5000000 -0.8660254  0.0000000 )
                  ( -0.8660254  0.5000000  0.0000000 )
                  (  0.0000000  0.0000000 -1.0000000 )


      isym = 12     180 deg rotation - cryst. axis [1,1,0]       

 cryst.   s(12) = (     0          1          0      )
                  (     1          0          0      )
                  (     0          0         -1      )

 cart.    s(12) = ( -0.5000000  0.8660254  0.0000000 )
                  (  0.8660254  0.5000000  0.0000000 )
                  (  0.0000000  0.0000000 -1.0000000 )


      isym = 13     inversion                                    

 cryst.   s(13) = (    -1          0          0      )
                  (     0         -1          0      )
                  (     0          0         -1      )

 cart.    s(13) = ( -1.0000000  0.0000000  0.0000000 )
                  (  0.0000000 -1.0000000  0.0000000 )
                  (  0.0000000  0.0000000 -1.0000000 )


      isym = 14     inv. 180 deg rotation - cart. axis [0,0,1]   

 cryst.   s(14) = (     1          0          0      )    f =(  0.0000000 )
                  (     0          1          0      )       (  0.0000000 )
                  (     0          0         -1      )       (  0.5000000 )

 cart.    s(14) = (  1.0000000  0.0000000  0.0000000 )    f =(  0.0000000 )
                  (  0.0000000  1.0000000  0.0000000 )       (  0.0000000 )
                  (  0.0000000  0.0000000 -1.0000000 )       (  0.8340164 )


      isym = 15     inv. 180 deg rotation - cart. axis [0,1,0]   

 cryst.   s(15) = (     1          0          0      )    f =(  0.0000000 )
                  (    -1         -1          0      )       (  0.0000000 )
                  (     0          0          1      )       ( -0.5000000 )

 cart.    s(15) = (  1.0000000  0.0000000  0.0000000 )    f =(  0.0000000 )
                  (  0.0000000 -1.0000000  0.0000000 )       (  0.0000000 )
                  (  0.0000000  0.0000000  1.0000000 )       ( -0.8340164 )


      isym = 16     inv. 180 deg rotation - cart. axis [1,0,0]   

 cryst.   s(16) = (    -1          0          0      )
                  (     1          1          0      )
                  (     0          0          1      )

 cart.    s(16) = ( -1.0000000  0.0000000  0.0000000 )
                  (  0.0000000  1.0000000  0.0000000 )
                  (  0.0000000  0.0000000  1.0000000 )


      isym = 17     inv.  60 deg rotation - cryst. axis [0,0,1]  

 cryst.   s(17) = (    -1         -1          0      )    f =(  0.0000000 )
                  (     1          0          0      )       (  0.0000000 )
                  (     0          0         -1      )       (  0.5000000 )

 cart.    s(17) = ( -0.5000000  0.8660254  0.0000000 )    f =(  0.0000000 )
                  ( -0.8660254 -0.5000000  0.0000000 )       (  0.0000000 )
                  (  0.0000000  0.0000000 -1.0000000 )       (  0.8340164 )


      isym = 18     inv.  60 deg rotation - cryst. axis [0,0,-1] 

 cryst.   s(18) = (     0          1          0      )    f =(  0.0000000 )
                  (    -1         -1          0      )       ( -0.0000000 )
                  (     0          0         -1      )       (  0.5000000 )

 cart.    s(18) = ( -0.5000000 -0.8660254  0.0000000 )    f =(  0.0000000 )
                  (  0.8660254 -0.5000000  0.0000000 )       ( -0.0000000 )
                  (  0.0000000  0.0000000 -1.0000000 )       (  0.8340164 )


      isym = 19     inv. 120 deg rotation - cryst. axis [0,0,1]  

 cryst.   s(19) = (     0         -1          0      )
                  (     1          1          0      )
                  (     0          0         -1      )

 cart.    s(19) = (  0.5000000  0.8660254  0.0000000 )
                  ( -0.8660254  0.5000000  0.0000000 )
                  (  0.0000000  0.0000000 -1.0000000 )


      isym = 20     inv. 120 deg rotation - cryst. axis [0,0,-1] 

 cryst.   s(20) = (     1          1          0      )
                  (    -1          0          0      )
                  (     0          0         -1      )

 cart.    s(20) = (  0.5000000 -0.8660254  0.0000000 )
                  (  0.8660254  0.5000000  0.0000000 )
                  (  0.0000000  0.0000000 -1.0000000 )


      isym = 21     inv. 180 deg rotation - cryst. axis [1,-1,0] 

 cryst.   s(21) = (     0          1          0      )    f =(  0.0000000 )
                  (     1          0          0      )       ( -0.0000000 )
                  (     0          0          1      )       ( -0.5000000 )

 cart.    s(21) = ( -0.5000000  0.8660254  0.0000000 )    f =(  0.0000000 )
                  (  0.8660254  0.5000000  0.0000000 )       ( -0.0000000 )
                  (  0.0000000  0.0000000  1.0000000 )       ( -0.8340164 )


      isym = 22     inv. 180 deg rotation - cryst. axis [2,1,0]  

 cryst.   s(22) = (    -1         -1          0      )    f =(  0.0000000 )
                  (     0          1          0      )       ( -0.0000000 )
                  (     0          0          1      )       ( -0.5000000 )

 cart.    s(22) = ( -0.5000000 -0.8660254  0.0000000 )    f =(  0.0000000 )
                  ( -0.8660254  0.5000000  0.0000000 )       ( -0.0000000 )
                  (  0.0000000  0.0000000  1.0000000 )       ( -0.8340164 )


      isym = 23     inv. 180 deg rotation - cryst. axis [0,1,0]  

 cryst.   s(23) = (     1          1          0      )
                  (     0         -1          0      )
                  (     0          0          1      )

 cart.    s(23) = (  0.5000000  0.8660254  0.0000000 )
                  (  0.8660254 -0.5000000  0.0000000 )
                  (  0.0000000  0.0000000  1.0000000 )


      isym = 24     inv. 180 deg rotation - cryst. axis [1,1,0]  

 cryst.   s(24) = (     0         -1          0      )
                  (    -1          0          0      )
                  (     0          0          1      )

 cart.    s(24) = (  0.5000000 -0.8660254  0.0000000 )
                  ( -0.8660254 -0.5000000  0.0000000 )
                  (  0.0000000  0.0000000  1.0000000 )


     point group D_6h(6/mmm)
     there are 12 classes
     the character table:

       E     2C6   2C3   C2    3C2'  3C2'' i     2S3   2S6   s_h   3s_d  3s_v 
A_1g   1.00  1.00  1.00  1.00  1.00  1.00  1.00  1.00  1.00  1.00  1.00  1.00
A_2g   1.00  1.00  1.00  1.00 -1.00 -1.00  1.00  1.00  1.00  1.00 -1.00 -1.00
B_1g   1.00 -1.00  1.00 -1.00  1.00 -1.00  1.00 -1.00  1.00 -1.00  1.00 -1.00
B_2g   1.00 -1.00  1.00 -1.00 -1.00  1.00  1.00 -1.00  1.00 -1.00 -1.00  1.00
E_1g   2.00  1.00 -1.00 -2.00  0.00  0.00  2.00  1.00 -1.00 -2.00  0.00  0.00
E_2g   2.00 -1.00 -1.00  2.00  0.00  0.00  2.00 -1.00 -1.00  2.00  0.00  0.00
A_1u   1.00  1.00  1.00  1.00  1.00  1.00 -1.00 -1.00 -1.00 -1.00 -1.00 -1.00
A_2u   1.00  1.00  1.00  1.00 -1.00 -1.00 -1.00 -1.00 -1.00 -1.00  1.00  1.00
B_1u   1.00 -1.00  1.00 -1.00  1.00 -1.00 -1.00  1.00 -1.00  1.00 -1.00  1.00
B_2u   1.00 -1.00  1.00 -1.00 -1.00  1.00 -1.00  1.00 -1.00  1.00  1.00 -1.00
E_1u   2.00  1.00 -1.00 -2.00  0.00  0.00 -2.00 -1.00  1.00  2.00  0.00  0.00
E_2u   2.00 -1.00 -1.00  2.00  0.00  0.00 -2.00  1.00  1.00 -2.00  0.00  0.00

     the symmetry operations in each class and the name of the first element:

     E        1
          identity                                               
     2C6      5    6
           60 deg rotation - cryst. axis [0,0,1]                 
     2C3      7    8
          120 deg rotation - cryst. axis [0,0,1]                 
     C2       2
          180 deg rotation - cart. axis [0,0,1]                  
     3C2'     4   12   11
          180 deg rotation - cart. axis [1,0,0]                  
     3C2''    3    9   10
          180 deg rotation - cart. axis [0,1,0]                  
     i       13
          inversion                                              
     2S3     17   18
          inv.  60 deg rotation - cryst. axis [0,0,1]            
     2S6     19   20
          inv. 120 deg rotation - cryst. axis [0,0,1]            
     s_h     14
          inv. 180 deg rotation - cart. axis [0,0,1]             
     3s_d    16   24   23
          inv. 180 deg rotation - cart. axis [1,0,0]             
     3s_v    15   21   22
          inv. 180 deg rotation - cart. axis [0,1,0]             

   Cartesian axes

     site n.     atom                  positions (alat units)
         1           Co  tau(   1) = (  -0.0000000   0.5773503   0.4170082  )
         2           Co  tau(   2) = (   0.5000000   0.2886751   1.2510246  )

   Crystallographic axes

     site n.     atom                  positions (cryst. coord.)
         1           Co  tau(   1) = (  0.3333333  0.6666667  0.2500000  )
         2           Co  tau(   2) = (  0.6666667  0.3333333  0.7500000  )

     number of k points=    76  Gaussian smearing, width (Ry)=  0.0010
                       cart. coord. in units 2pi/alat
        k(    1) = (   0.0000000   0.0000000   0.0000000), wk =   0.0011574
        k(    2) = (   0.0000000   0.0000000   0.0999181), wk =   0.0023148
        k(    3) = (   0.0000000   0.0000000   0.1998362), wk =   0.0023148
        k(    4) = (   0.0000000   0.0000000  -0.2997543), wk =   0.0011574
        k(    5) = (   0.0000000   0.0962250   0.0000000), wk =   0.0069444
        k(    6) = (   0.0000000   0.0962250   0.0999181), wk =   0.0138889
        k(    7) = (   0.0000000   0.0962250   0.1998362), wk =   0.0138889
        k(    8) = (   0.0000000   0.0962250  -0.2997543), wk =   0.0069444
        k(    9) = (   0.0000000   0.1924501   0.0000000), wk =   0.0069444
        k(   10) = (   0.0000000   0.1924501   0.0999181), wk =   0.0138889
        k(   11) = (   0.0000000   0.1924501   0.1998362), wk =   0.0138889
        k(   12) = (   0.0000000   0.1924501  -0.2997543), wk =   0.0069444
        k(   13) = (   0.0000000   0.2886751   0.0000000), wk =   0.0069444
        k(   14) = (   0.0000000   0.2886751   0.0999181), wk =   0.0138889
        k(   15) = (   0.0000000   0.2886751   0.1998362), wk =   0.0138889
        k(   16) = (   0.0000000   0.2886751  -0.2997543), wk =   0.0069444
        k(   17) = (   0.0000000   0.3849002   0.0000000), wk =   0.0069444
        k(   18) = (   0.0000000   0.3849002   0.0999181), wk =   0.0138889
        k(   19) = (   0.0000000   0.3849002   0.1998362), wk =   0.0138889
        k(   20) = (   0.0000000   0.3849002  -0.2997543), wk =   0.0069444
        k(   21) = (   0.0000000   0.4811252   0.0000000), wk =   0.0069444
        k(   22) = (   0.0000000   0.4811252   0.0999181), wk =   0.0138889
        k(   23) = (   0.0000000   0.4811252   0.1998362), wk =   0.0138889
        k(   24) = (   0.0000000   0.4811252  -0.2997543), wk =   0.0069444
        k(   25) = (   0.0000000  -0.5773503   0.0000000), wk =   0.0034722
        k(   26) = (   0.0000000  -0.5773503   0.0999181), wk =   0.0069444
        k(   27) = (   0.0000000  -0.5773503   0.1998362), wk =   0.0069444
        k(   28) = (   0.0000000  -0.5773503  -0.2997543), wk =   0.0034722
        k(   29) = (   0.0833333   0.1443376   0.0000000), wk =   0.0069444
        k(   30) = (   0.0833333   0.1443376   0.0999181), wk =   0.0138889
        k(   31) = (   0.0833333   0.1443376   0.1998362), wk =   0.0138889
        k(   32) = (   0.0833333   0.1443376  -0.2997543), wk =   0.0069444
        k(   33) = (   0.0833333   0.2405626   0.0000000), wk =   0.0138889
        k(   34) = (   0.0833333   0.2405626   0.0999181), wk =   0.0277778
        k(   35) = (   0.0833333   0.2405626   0.1998362), wk =   0.0277778
        k(   36) = (   0.0833333   0.2405626  -0.2997543), wk =   0.0138889
        k(   37) = (   0.0833333   0.3367877   0.0000000), wk =   0.0138889
        k(   38) = (   0.0833333   0.3367877   0.0999181), wk =   0.0277778
        k(   39) = (   0.0833333   0.3367877   0.1998362), wk =   0.0277778
        k(   40) = (   0.0833333   0.3367877  -0.2997543), wk =   0.0138889
        k(   41) = (   0.0833333   0.4330127   0.0000000), wk =   0.0138889
        k(   42) = (   0.0833333   0.4330127   0.0999181), wk =   0.0277778
        k(   43) = (   0.0833333   0.4330127   0.1998362), wk =   0.0277778
        k(   44) = (   0.0833333   0.4330127  -0.2997543), wk =   0.0138889
        k(   45) = (   0.0833333   0.5292377   0.0000000), wk =   0.0138889
        k(   46) = (   0.0833333   0.5292377   0.0999181), wk =   0.0277778
        k(   47) = (   0.0833333   0.5292377   0.1998362), wk =   0.0277778
        k(   48) = (   0.0833333   0.5292377  -0.2997543), wk =   0.0138889
        k(   49) = (   0.1666667   0.2886751   0.0000000), wk =   0.0069444
        k(   50) = (   0.1666667   0.2886751   0.0999181), wk =   0.0138889
        k(   51) = (   0.1666667   0.2886751   0.1998362), wk =   0.0138889
        k(   52) = (   0.1666667   0.2886751  -0.2997543), wk =   0.0069444
        k(   53) = (   0.1666667   0.3849002   0.0000000), wk =   0.0138889
        k(   54) = (   0.1666667   0.3849002   0.0999181), wk =   0.0277778
        k(   55) = (   0.1666667   0.3849002   0.1998362), wk =   0.0277778
        k(   56) = (   0.1666667   0.3849002  -0.2997543), wk =   0.0138889
        k(   57) = (   0.1666667   0.4811252   0.0000000), wk =   0.0138889
        k(   58) = (   0.1666667   0.4811252   0.0999181), wk =   0.0277778
        k(   59) = (   0.1666667   0.4811252   0.1998362), wk =   0.0277778
        k(   60) = (   0.1666667   0.4811252  -0.2997543), wk =   0.0138889
        k(   61) = (   0.1666667   0.5773503   0.0000000), wk =   0.0069444
        k(   62) = (   0.1666667   0.5773503   0.0999181), wk =   0.0138889
        k(   63) = (   0.1666667   0.5773503   0.1998362), wk =   0.0138889
        k(   64) = (   0.1666667   0.5773503  -0.2997543), wk =   0.0069444
        k(   65) = (   0.2500000   0.4330127   0.0000000), wk =   0.0069444
        k(   66) = (   0.2500000   0.4330127   0.0999181), wk =   0.0138889
        k(   67) = (   0.2500000   0.4330127   0.1998362), wk =   0.0138889
        k(   68) = (   0.2500000   0.4330127  -0.2997543), wk =   0.0069444
        k(   69) = (   0.2500000   0.5292377   0.0000000), wk =   0.0138889
        k(   70) = (   0.2500000   0.5292377   0.0999181), wk =   0.0277778
        k(   71) = (   0.2500000   0.5292377   0.1998362), wk =   0.0277778
        k(   72) = (   0.2500000   0.5292377  -0.2997543), wk =   0.0138889
        k(   73) = (   0.3333333   0.5773503   0.0000000), wk =   0.0023148
        k(   74) = (   0.3333333   0.5773503   0.0999181), wk =   0.0046296
        k(   75) = (   0.3333333   0.5773503   0.1998362), wk =   0.0046296
        k(   76) = (   0.3333333   0.5773503  -0.2997543), wk =   0.0023148

                       cryst. coord.
        k(    1) = (   0.0000000   0.0000000   0.0000000), wk =   0.0011574
        k(    2) = (   0.0000000   0.0000000   0.1666667), wk =   0.0023148
        k(    3) = (   0.0000000   0.0000000   0.3333333), wk =   0.0023148
        k(    4) = (   0.0000000   0.0000000  -0.5000000), wk =   0.0011574
        k(    5) = (   0.0000000   0.0833333   0.0000000), wk =   0.0069444
        k(    6) = (   0.0000000   0.0833333   0.1666667), wk =   0.0138889
        k(    7) = (   0.0000000   0.0833333   0.3333333), wk =   0.0138889
        k(    8) = (   0.0000000   0.0833333  -0.5000000), wk =   0.0069444
        k(    9) = (   0.0000000   0.1666667   0.0000000), wk =   0.0069444
        k(   10) = (   0.0000000   0.1666667   0.1666667), wk =   0.0138889
        k(   11) = (   0.0000000   0.1666667   0.3333333), wk =   0.0138889
        k(   12) = (   0.0000000   0.1666667  -0.5000000), wk =   0.0069444
        k(   13) = (   0.0000000   0.2500000   0.0000000), wk =   0.0069444
        k(   14) = (   0.0000000   0.2500000   0.1666667), wk =   0.0138889
        k(   15) = (   0.0000000   0.2500000   0.3333333), wk =   0.0138889
        k(   16) = (   0.0000000   0.2500000  -0.5000000), wk =   0.0069444
        k(   17) = (   0.0000000   0.3333333   0.0000000), wk =   0.0069444
        k(   18) = (   0.0000000   0.3333333   0.1666667), wk =   0.0138889
        k(   19) = (   0.0000000   0.3333333   0.3333333), wk =   0.0138889
        k(   20) = (   0.0000000   0.3333333  -0.5000000), wk =   0.0069444
        k(   21) = (   0.0000000   0.4166667   0.0000000), wk =   0.0069444
        k(   22) = (   0.0000000   0.4166667   0.1666667), wk =   0.0138889
        k(   23) = (   0.0000000   0.4166667   0.3333333), wk =   0.0138889
        k(   24) = (   0.0000000   0.4166667  -0.5000000), wk =   0.0069444
        k(   25) = (   0.0000000  -0.5000000   0.0000000), wk =   0.0034722
        k(   26) = (   0.0000000  -0.5000000   0.1666667), wk =   0.0069444
        k(   27) = (   0.0000000  -0.5000000   0.3333333), wk =   0.0069444
        k(   28) = (   0.0000000  -0.5000000  -0.5000000), wk =   0.0034722
        k(   29) = (   0.0833333   0.0833333   0.0000000), wk =   0.0069444
        k(   30) = (   0.0833333   0.0833333   0.1666667), wk =   0.0138889
        k(   31) = (   0.0833333   0.0833333   0.3333333), wk =   0.0138889
        k(   32) = (   0.0833333   0.0833333  -0.5000000), wk =   0.0069444
        k(   33) = (   0.0833333   0.1666667   0.0000000), wk =   0.0138889
        k(   34) = (   0.0833333   0.1666667   0.1666667), wk =   0.0277778
        k(   35) = (   0.0833333   0.1666667   0.3333333), wk =   0.0277778
        k(   36) = (   0.0833333   0.1666667  -0.5000000), wk =   0.0138889
        k(   37) = (   0.0833333   0.2500000   0.0000000), wk =   0.0138889
        k(   38) = (   0.0833333   0.2500000   0.1666667), wk =   0.0277778
        k(   39) = (   0.0833333   0.2500000   0.3333333), wk =   0.0277778
        k(   40) = (   0.0833333   0.2500000  -0.5000000), wk =   0.0138889
        k(   41) = (   0.0833333   0.3333333   0.0000000), wk =   0.0138889
        k(   42) = (   0.0833333   0.3333333   0.1666667), wk =   0.0277778
        k(   43) = (   0.0833333   0.3333333   0.3333333), wk =   0.0277778
        k(   44) = (   0.0833333   0.3333333  -0.5000000), wk =   0.0138889
        k(   45) = (   0.0833333   0.4166667   0.0000000), wk =   0.0138889
        k(   46) = (   0.0833333   0.4166667   0.1666667), wk =   0.0277778
        k(   47) = (   0.0833333   0.4166667   0.3333333), wk =   0.0277778
        k(   48) = (   0.0833333   0.4166667  -0.5000000), wk =   0.0138889
        k(   49) = (   0.1666667   0.1666667   0.0000000), wk =   0.0069444
        k(   50) = (   0.1666667   0.1666667   0.1666667), wk =   0.0138889
        k(   51) = (   0.1666667   0.1666667   0.3333333), wk =   0.0138889
        k(   52) = (   0.1666667   0.1666667  -0.5000000), wk =   0.0069444
        k(   53) = (   0.1666667   0.2500000   0.0000000), wk =   0.0138889
        k(   54) = (   0.1666667   0.2500000   0.1666667), wk =   0.0277778
        k(   55) = (   0.1666667   0.2500000   0.3333333), wk =   0.0277778
        k(   56) = (   0.1666667   0.2500000  -0.5000000), wk =   0.0138889
        k(   57) = (   0.1666667   0.3333333   0.0000000), wk =   0.0138889
        k(   58) = (   0.1666667   0.3333333   0.1666667), wk =   0.0277778
        k(   59) = (   0.1666667   0.3333333   0.3333333), wk =   0.0277778
        k(   60) = (   0.1666667   0.3333333  -0.5000000), wk =   0.0138889
        k(   61) = (   0.1666667   0.4166667   0.0000000), wk =   0.0069444
        k(   62) = (   0.1666667   0.4166667   0.1666667), wk =   0.0138889
        k(   63) = (   0.1666667   0.4166667   0.3333333), wk =   0.0138889
        k(   64) = (   0.1666667   0.4166667  -0.5000000), wk =   0.0069444
        k(   65) = (   0.2500000   0.2500000   0.0000000), wk =   0.0069444
        k(   66) = (   0.2500000   0.2500000   0.1666667), wk =   0.0138889
        k(   67) = (   0.2500000   0.2500000   0.3333333), wk =   0.0138889
        k(   68) = (   0.2500000   0.2500000  -0.5000000), wk =   0.0069444
        k(   69) = (   0.2500000   0.3333333   0.0000000), wk =   0.0138889
        k(   70) = (   0.2500000   0.3333333   0.1666667), wk =   0.0277778
        k(   71) = (   0.2500000   0.3333333   0.3333333), wk =   0.0277778
        k(   72) = (   0.2500000   0.3333333  -0.5000000), wk =   0.0138889
        k(   73) = (   0.3333333   0.3333333   0.0000000), wk =   0.0023148
        k(   74) = (   0.3333333   0.3333333   0.1666667), wk =   0.0046296
        k(   75) = (   0.3333333   0.3333333   0.3333333), wk =   0.0046296
        k(   76) = (   0.3333333   0.3333333  -0.5000000), wk =   0.0023148

     Dense  grid:    22899 G-vectors     FFT dimensions: (  32,  32,  54)

     Smooth grid:    21999 G-vectors     FFT dimensions: (  32,  32,  54)

     Dynamical RAM for                 wfc:       0.04 MB

     Dynamical RAM for     wfc (w. buffer):       6.72 MB

     Dynamical RAM for           str. fact:       0.02 MB

     Dynamical RAM for           local pot:       0.00 MB

     Dynamical RAM for          nlocal pot:       0.08 MB

     Dynamical RAM for                qrad:       1.70 MB

     Dynamical RAM for          rho,v,vnew:       0.25 MB

     Dynamical RAM for               rhoin:       0.08 MB

     Dynamical RAM for            rho*nmix:       0.56 MB

     Dynamical RAM for           G-vectors:       0.07 MB

     Dynamical RAM for          h,s,v(r/c):       0.08 MB

     Dynamical RAM for          <psi|beta>:       0.01 MB

     Dynamical RAM for                 psi:       0.09 MB

     Dynamical RAM for                hpsi:       0.09 MB

     Dynamical RAM for                spsi:       0.09 MB

     Dynamical RAM for      wfcinit/wfcrot:       0.10 MB

     Dynamical RAM for           addusdens:       3.30 MB

     Estimated static dynamical RAM per process >       9.09 MB

     Estimated max dynamical RAM per process >      12.95 MB

     Estimated total dynamical RAM >     259.06 MB

     Check: negative core charge=   -0.000044
     Generating pointlists ...
     new r_m :   0.4125 (alat units)  1.9020 (a.u.) for type    1

     The initial density is read from file :
     ./out2/Co.save/charge-density


     starting charge      34.0418, renormalised to      34.0000

     negative rho (up, down):  6.405E-02 4.298E-02
     Starting wfcs from file
     Checking if some PAW data can be deallocated... 

     total cpu time spent up to now is        0.6 secs

     Self-consistent Calculation

     iteration #  1     ecut=   110.00 Ry     beta= 0.70
     Davidson diagonalization with overlap

---- Real-time Memory Report at c_bands before calling an iterative solver
            54 MiB given to the printing process from OS
             0 MiB allocation reported by mallinfo(arena+hblkhd)
        336335 MiB available memory on the node where the printing process lives
------------------
     c_bands:  1 eigenvalues not converged
     c_bands:  1 eigenvalues not converged
     ethr =  1.00E-05,  avg # of iterations = 10.6

     negative rho (up, down):  9.638E-07 0.000E+00

     total cpu time spent up to now is        5.8 secs

     total energy              =    -753.31202880 Ry
     estimated scf accuracy    <       0.03091277 Ry

     total magnetization       =     3.29 Bohr mag/cell
     absolute magnetization    =     3.54 Bohr mag/cell

     iteration #  2     ecut=   110.00 Ry     beta= 0.70
     Davidson diagonalization with overlap

---- Real-time Memory Report at c_bands before calling an iterative solver
            72 MiB given to the printing process from OS
             0 MiB allocation reported by mallinfo(arena+hblkhd)
        336124 MiB available memory on the node where the printing process lives
------------------
     ethr =  9.09E-05,  avg # of iterations =  2.0

     total cpu time spent up to now is        7.3 secs

     total energy              =    -753.43770800 Ry
     estimated scf accuracy    <       0.00678053 Ry

     total magnetization       =     3.22 Bohr mag/cell
     absolute magnetization    =     3.47 Bohr mag/cell

     iteration #  3     ecut=   110.00 Ry     beta= 0.70
     Davidson diagonalization with overlap

---- Real-time Memory Report at c_bands before calling an iterative solver
            73 MiB given to the printing process from OS
             0 MiB allocation reported by mallinfo(arena+hblkhd)
        336111 MiB available memory on the node where the printing process lives
------------------
     ethr =  1.99E-05,  avg # of iterations =  5.6

     total cpu time spent up to now is        9.9 secs

     total energy              =    -753.45061952 Ry
     estimated scf accuracy    <       0.04353232 Ry

     total magnetization       =     3.27 Bohr mag/cell
     absolute magnetization    =     3.55 Bohr mag/cell

     iteration #  4     ecut=   110.00 Ry     beta= 0.70
     Davidson diagonalization with overlap

---- Real-time Memory Report at c_bands before calling an iterative solver
            75 MiB given to the printing process from OS
             0 MiB allocation reported by mallinfo(arena+hblkhd)
        336096 MiB available memory on the node where the printing process lives
------------------
     ethr =  1.99E-05,  avg # of iterations =  4.0

     total cpu time spent up to now is       11.9 secs

     total energy              =    -753.45204990 Ry
     estimated scf accuracy    <       0.00617673 Ry

     total magnetization       =     3.24 Bohr mag/cell
     absolute magnetization    =     3.53 Bohr mag/cell

     iteration #  5     ecut=   110.00 Ry     beta= 0.70
     Davidson diagonalization with overlap

---- Real-time Memory Report at c_bands before calling an iterative solver
            76 MiB given to the printing process from OS
             0 MiB allocation reported by mallinfo(arena+hblkhd)
        336086 MiB available memory on the node where the printing process lives
------------------
     ethr =  1.82E-05,  avg # of iterations =  1.8

     total cpu time spent up to now is       13.3 secs

     total energy              =    -753.45258700 Ry
     estimated scf accuracy    <       0.00065005 Ry

     total magnetization       =     3.22 Bohr mag/cell
     absolute magnetization    =     3.52 Bohr mag/cell

     iteration #  6     ecut=   110.00 Ry     beta= 0.70
     Davidson diagonalization with overlap

---- Real-time Memory Report at c_bands before calling an iterative solver
            77 MiB given to the printing process from OS
             0 MiB allocation reported by mallinfo(arena+hblkhd)
        336077 MiB available memory on the node where the printing process lives
------------------
     ethr =  1.91E-06,  avg # of iterations =  4.0

     total cpu time spent up to now is       15.2 secs

     total energy              =    -753.45303036 Ry
     estimated scf accuracy    <       0.00004099 Ry

     total magnetization       =     3.22 Bohr mag/cell
     absolute magnetization    =     3.51 Bohr mag/cell

     iteration #  7     ecut=   110.00 Ry     beta= 0.70
     Davidson diagonalization with overlap

---- Real-time Memory Report at c_bands before calling an iterative solver
            78 MiB given to the printing process from OS
             0 MiB allocation reported by mallinfo(arena+hblkhd)
        336070 MiB available memory on the node where the printing process lives
------------------
     ethr =  1.21E-07,  avg # of iterations =  4.0

     total cpu time spent up to now is       17.1 secs

     total energy              =    -753.45304277 Ry
     estimated scf accuracy    <       0.00000792 Ry

     total magnetization       =     3.22 Bohr mag/cell
     absolute magnetization    =     3.52 Bohr mag/cell

     iteration #  8     ecut=   110.00 Ry     beta= 0.70
     Davidson diagonalization with overlap

---- Real-time Memory Report at c_bands before calling an iterative solver
            79 MiB given to the printing process from OS
             0 MiB allocation reported by mallinfo(arena+hblkhd)
        336065 MiB available memory on the node where the printing process lives
------------------
     ethr =  2.33E-08,  avg # of iterations =  6.6

     total cpu time spent up to now is       19.9 secs

     total energy              =    -753.45305537 Ry
     estimated scf accuracy    <       0.00008525 Ry

     total magnetization       =     3.23 Bohr mag/cell
     absolute magnetization    =     3.53 Bohr mag/cell

     iteration #  9     ecut=   110.00 Ry     beta= 0.70
     Davidson diagonalization with overlap

---- Real-time Memory Report at c_bands before calling an iterative solver
            80 MiB given to the printing process from OS
             0 MiB allocation reported by mallinfo(arena+hblkhd)
        336059 MiB available memory on the node where the printing process lives
------------------
     ethr =  2.33E-08,  avg # of iterations =  2.2

     total cpu time spent up to now is       21.4 secs

     total energy              =    -753.45302902 Ry
     estimated scf accuracy    <       0.00004336 Ry

     total magnetization       =     3.23 Bohr mag/cell
     absolute magnetization    =     3.53 Bohr mag/cell

     iteration # 10     ecut=   110.00 Ry     beta= 0.70
     Davidson diagonalization with overlap

---- Real-time Memory Report at c_bands before calling an iterative solver
            81 MiB given to the printing process from OS
             0 MiB allocation reported by mallinfo(arena+hblkhd)
        336055 MiB available memory on the node where the printing process lives
------------------
     ethr =  2.33E-08,  avg # of iterations =  7.3

     total cpu time spent up to now is       24.5 secs

     total energy              =    -753.45305675 Ry
     estimated scf accuracy    <       0.00005574 Ry

     total magnetization       =     3.23 Bohr mag/cell
     absolute magnetization    =     3.54 Bohr mag/cell

     iteration # 11     ecut=   110.00 Ry     beta= 0.70
     Davidson diagonalization with overlap

---- Real-time Memory Report at c_bands before calling an iterative solver
            82 MiB given to the printing process from OS
             0 MiB allocation reported by mallinfo(arena+hblkhd)
        336053 MiB available memory on the node where the printing process lives
------------------
     ethr =  2.33E-08,  avg # of iterations =  1.6

     total cpu time spent up to now is       25.8 secs

     total energy              =    -753.45304950 Ry
     estimated scf accuracy    <       0.00003421 Ry

     total magnetization       =     3.24 Bohr mag/cell
     absolute magnetization    =     3.54 Bohr mag/cell

     iteration # 12     ecut=   110.00 Ry     beta= 0.70
     Davidson diagonalization with overlap

---- Real-time Memory Report at c_bands before calling an iterative solver
            82 MiB given to the printing process from OS
             0 MiB allocation reported by mallinfo(arena+hblkhd)
        336047 MiB available memory on the node where the printing process lives
------------------
     ethr =  2.33E-08,  avg # of iterations =  4.0

     total cpu time spent up to now is       27.6 secs

     total energy              =    -753.45305020 Ry
     estimated scf accuracy    <       0.00000561 Ry

     total magnetization       =     3.24 Bohr mag/cell
     absolute magnetization    =     3.54 Bohr mag/cell

     iteration # 13     ecut=   110.00 Ry     beta= 0.70
     Davidson diagonalization with overlap

---- Real-time Memory Report at c_bands before calling an iterative solver
            83 MiB given to the printing process from OS
             0 MiB allocation reported by mallinfo(arena+hblkhd)
        336042 MiB available memory on the node where the printing process lives
------------------
     ethr =  1.65E-08,  avg # of iterations =  3.5
 
     Magnetic moment per site  (integrated on atomic sphere of radius R)
     atom   1 (R=0.413)  charge= 15.5391  magn=  1.6930
     atom   2 (R=0.413)  charge= 15.5391  magn=  1.6930

     total cpu time spent up to now is       29.3 secs

     End of self-consistent calculation

 ------ SPIN UP ------------


          k = 0.0000 0.0000 0.0000 (  2779 PWs)   bands (ev):

   -76.6867 -76.6294 -40.1000 -39.7602 -39.7601 -39.7601 -39.7156 -39.7156
    10.2501  14.0678  16.6021  16.8069  16.8069  17.1032  17.1032  17.5818
    17.5818  18.6266  18.6266  18.8444  25.6018

     occupation numbers 
     1.0000   1.0000   1.0000   1.0000   1.0000   1.0000   1.0000   1.0000
     1.0000   1.0000   1.0000   1.0000   1.0000   1.0000   1.0000   1.0000
     1.0000   1.0000   1.0000   1.0000   0.0000

          k = 0.0000 0.0000 0.0999 (  2768 PWs)   bands (ev):

   -76.6829 -76.6332 -40.0775 -39.7832 -39.7572 -39.7572 -39.7186 -39.7186
    10.5221  13.9820  16.5360  16.7593  16.7593  17.0393  17.0393  17.7223
    17.7223  17.9627  18.6048  18.6048  27.0510

     occupation numbers 
     1.0000   1.0000   1.0000   1.0000   1.0000   1.0000   1.0000   1.0000
     1.0000   1.0000   1.0000   1.0000   1.0000   1.0000   1.0000   1.0000
     1.0000   1.0000   1.0000   1.0000   0.0000

          k = 0.0000 0.0000 0.1998 (  2774 PWs)   bands (ev):

   -76.6724 -76.6438 -40.0159 -39.8461 -39.7490 -39.7490 -39.7267 -39.7267
    11.3017  13.5058  16.3847  16.7178  16.7178  16.7390  16.8964  16.8964
    18.0161  18.0161  18.5099  18.5099  30.1669

     occupation numbers 
     1.0000   1.0000   1.0000   1.0000   1.0000   1.0000   1.0000   1.0000
     1.0000   1.0000   1.0000   1.0000   1.0000   1.0000   1.0000   1.0000
     1.0000   1.0000   1.0000   1.0000   0.0000

          k = 0.0000 0.0000-0.2998 (  2750 PWs)   bands (ev):

   -76.6581 -76.6581 -39.9313 -39.9313 -39.7379 -39.7379 -39.7379 -39.7379
    12.4386  12.4386  16.3169  16.3169  16.7669  16.7669  16.7669  16.7669
    18.3069  18.3069  18.3069  18.3069  33.9145

     occupation numbers 
     1.0000   1.0000   1.0000   1.0000   1.0000   1.0000   1.0000   1.0000
     1.0000   1.0000   1.0000   1.0000   1.0000   1.0000   1.0000   1.0000
     1.0000   1.0000   1.0000   1.0000   0.0000

          k = 0.0000 0.0962 0.0000 (  2755 PWs)   bands (ev):

   -76.6828 -76.6272 -40.0921 -39.7798 -39.7662 -39.7628 -39.7357 -39.7191
    10.5036  14.2294  16.4952  16.8803  16.9305  17.0427  17.2147  17.3513
    17.5074  17.6903  18.6546  20.1680  25.6396

     occupation numbers 
     1.0000   1.0000   1.0000   1.0000   1.0000   1.0000   1.0000   1.0000
     1.0000   1.0000   1.0000   1.0000   1.0000   1.0000   1.0000   1.0000
     1.0000   1.0000   1.0000   0.0000   0.0000

          k = 0.0000 0.0962 0.0999 (  2772 PWs)   bands (ev):

   -76.6791 -76.6310 -40.0708 -39.7882 -39.7762 -39.7630 -39.7357 -39.7223
    10.7713  14.1577  16.4888  16.7388  16.8502  16.8700  17.1457  17.3272
    17.6704  17.7052  18.6257  19.4924  27.1610

     occupation numbers 
     1.0000   1.0000   1.0000   1.0000   1.0000   1.0000   1.0000   1.0000
     1.0000   1.0000   1.0000   1.0000   1.0000   1.0000   1.0000   1.0000
     1.0000   1.0000   1.0000   0.0000   0.0000

          k = 0.0000 0.0962 0.1998 (  2785 PWs)   bands (ev):

   -76.6689 -76.6411 -40.0124 -39.8502 -39.7669 -39.7544 -39.7425 -39.7309
    11.5381  13.7070  16.3617  16.3823  16.6248  16.8205  16.9828  17.0006
    17.9854  18.0229  18.5142  18.8006  30.3274

     occupation numbers 
     1.0000   1.0000   1.0000   1.0000   1.0000   1.0000   1.0000   1.0000
     1.0000   1.0000   1.0000   1.0000   1.0000   1.0000   1.0000   1.0000
     1.0000   1.0000   1.0000   1.0000   0.0000

          k = 0.0000 0.0962-0.2998 (  2784 PWs)   bands (ev):

   -76.6551 -76.6551 -39.9319 -39.9319 -39.7544 -39.7544 -39.7427 -39.7427
    12.6567  12.6567  16.2041  16.2041  16.7420  16.7420  16.8696  16.8696
    18.2930  18.2930  18.3941  18.3941  34.0945

     occupation numbers 
     1.0000   1.0000   1.0000   1.0000   1.0000   1.0000   1.0000   1.0000
     1.0000   1.0000   1.0000   1.0000   1.0000   1.0000   1.0000   1.0000
     1.0000   1.0000   1.0000   1.0000   0.0000

          k = 0.0000 0.1925 0.0000 (  2753 PWs)   bands (ev):

   -76.6719 -76.6214 -40.0697 -39.8336 -39.7903 -39.7824 -39.7707 -39.7290
    11.2352  14.6302  16.2510  16.4631  16.8184  17.1891  17.2798  17.3244
    17.4208  17.5277  18.7118  21.8104  25.7758

     occupation numbers 
     1.0000   1.0000   1.0000   1.0000   1.0000   1.0000   1.0000   1.0000
     1.0000   1.0000   1.0000   1.0000   1.0000   1.0000   1.0000   1.0000
     1.0000   1.0000   1.0000   0.0000   0.0000

          k = 0.0000 0.1925 0.0999 (  2765 PWs)   bands (ev):

   -76.6686 -76.6248 -40.0523 -39.8293 -39.8140 -39.7788 -39.7690 -39.7326
    11.4863  14.6019  16.1912  16.2954  16.6951  17.0823  17.1267  17.4241
    17.6218  17.6660  18.6676  20.7356  27.5221

     occupation numbers 
     1.0000   1.0000   1.0000   1.0000   1.0000   1.0000   1.0000   1.0000
     1.0000   1.0000   1.0000   1.0000   1.0000   1.0000   1.0000   1.0000
     1.0000   1.0000   1.0000   0.0000   0.0000

          k = 0.0000 0.1925 0.1998 (  2766 PWs)   bands (ev):

   -76.6593 -76.6341 -40.0044 -39.8699 -39.8134 -39.7778 -39.7691 -39.7424
    12.2027  14.2257  15.8699  16.3447  16.4223  16.9143  17.0757  17.2879
    17.9470  18.0841  18.5225  19.4379  30.8094

     occupation numbers 
     1.0000   1.0000   1.0000   1.0000   1.0000   1.0000   1.0000   1.0000
     1.0000   1.0000   1.0000   1.0000   1.0000   1.0000   1.0000   1.0000
     1.0000   1.0000   1.0000   0.7782   0.0000

          k = 0.0000 0.1925-0.2998 (  2774 PWs)   bands (ev):

   -76.6467 -76.6467 -39.9380 -39.9380 -39.7949 -39.7949 -39.7557 -39.7557
    13.2424  13.2424  15.9975  15.9975  16.6491  16.6491  17.1437  17.1437
    18.2711  18.2711  18.6311  18.6311  34.6004

     occupation numbers 
     1.0000   1.0000   1.0000   1.0000   1.0000   1.0000   1.0000   1.0000
     1.0000   1.0000   1.0000   1.0000   1.0000   1.0000   1.0000   1.0000
     1.0000   1.0000   1.0000   1.0000   0.0000

          k = 0.0000 0.2887 0.0000 (  2773 PWs)   bands (ev):

   -76.6566 -76.6140 -40.0363 -39.9076 -39.8636 -39.8040 -39.7843 -39.7430
    12.3358  14.9456  15.7112  16.1082  16.6863  17.1042  17.1842  17.6577
    17.7875  17.9776  18.7620  23.6459  26.0516

     occupation numbers 
     1.0000   1.0000   1.0000   1.0000   1.0000   1.0000   1.0000   1.0000
     1.0000   1.0000   1.0000   1.0000   1.0000   1.0000   1.0000   1.0000
     1.0000   1.0000   1.0000   0.0000   0.0000

          k = 0.0000 0.2887 0.0999 (  2751 PWs)   bands (ev):

   -76.6537 -76.6168 -40.0278 -39.8988 -39.8772 -39.7999 -39.7882 -39.7471
    12.5420  14.9692  15.5757  16.1637  16.5420  17.1448  17.1661  17.8045
    17.8238  17.9407  18.7061  22.0311  28.1845

     occupation numbers 
     1.0000   1.0000   1.0000   1.0000   1.0000   1.0000   1.0000   1.0000
     1.0000   1.0000   1.0000   1.0000   1.0000   1.0000   1.0000   1.0000
     1.0000   1.0000   1.0000   0.0000   0.0000

          k = 0.0000 0.2887 0.1998 (  2749 PWs)   bands (ev):

   -76.6459 -76.6246 -40.0027 -39.9203 -39.8656 -39.8038 -39.7888 -39.7583
    13.1164  14.6768  15.5395  16.1488  16.4573  17.0029  17.2688  17.6881
    18.0794  18.2264  18.5474  20.2077  31.5308

     occupation numbers 
     1.0000   1.0000   1.0000   1.0000   1.0000   1.0000   1.0000   1.0000
     1.0000   1.0000   1.0000   1.0000   1.0000   1.0000   1.0000   1.0000
     1.0000   1.0000   1.0000   0.0000   0.0000

          k = 0.0000 0.2887-0.2998 (  2752 PWs)   bands (ev):

   -76.6353 -76.6353 -39.9641 -39.9641 -39.8322 -39.8322 -39.7735 -39.7735
    13.9158  13.9158  15.8351  15.8351  16.7172  16.7172  17.4651  17.4651
    18.3189  18.3189  18.9697  18.9697  34.2962

     occupation numbers 
     1.0000   1.0000   1.0000   1.0000   1.0000   1.0000   1.0000   1.0000
     1.0000   1.0000   1.0000   1.0000   1.0000   1.0000   1.0000   1.0000
     1.0000   1.0000   1.0000   1.0000   0.0000

          k = 0.0000 0.3849 0.0000 (  2753 PWs)   bands (ev):

   -76.6403 -76.6074 -39.9976 -39.9820 -39.9356 -39.8251 -39.8033 -39.7575
    13.5188  14.8600  15.1786  16.2367  16.8230  16.9057  16.9589  18.3319
    18.4216  18.4637  18.7928  25.6425  26.2225

     occupation numbers 
     1.0000   1.0000   1.0000   1.0000   1.0000   1.0000   1.0000   1.0000
     1.0000   1.0000   1.0000   1.0000   1.0000   1.0000   1.0000   1.0000
     1.0000   1.0000   1.0000   0.0000   0.0000

          k = 0.0000 0.3849 0.0999 (  2756 PWs)   bands (ev):

   -76.6381 -76.6096 -40.0200 -39.9576 -39.9358 -39.8206 -39.8051 -39.7620
    13.6052  14.8649  15.2337  16.0463  16.7861  16.9982  17.3299  18.3331
    18.3570  18.3781  18.7539  23.2929  28.6331

     occupation numbers 
     1.0000   1.0000   1.0000   1.0000   1.0000   1.0000   1.0000   1.0000
     1.0000   1.0000   1.0000   1.0000   1.0000   1.0000   1.0000   1.0000
     1.0000   1.0000   1.0000   0.0000   0.0000

          k = 0.0000 0.3849 0.1998 (  2754 PWs)   bands (ev):

   -76.6321 -76.6156 -40.0275 -39.9842 -39.8899 -39.8169 -39.8082 -39.7744
    13.8569  14.6599  15.3979  15.8983  16.9418  17.2590  17.6851  18.0376
    18.4432  18.4651  18.6631  21.1026  30.0212

     occupation numbers 
     1.0000   1.0000   1.0000   1.0000   1.0000   1.0000   1.0000   1.0000
     1.0000   1.0000   1.0000   1.0000   1.0000   1.0000   1.0000   1.0000
     1.0000   1.0000   1.0000   0.0000   0.0000

          k = 0.0000 0.3849-0.2998 (  2762 PWs)   bands (ev):

   -76.6239 -76.6239 -40.0133 -40.0133 -39.8460 -39.8460 -39.7913 -39.7913
    14.2414  14.2414  15.6752  15.6752  17.3741  17.3741  17.6356  17.6356
    18.5509  18.5509  19.4545  19.4545  31.1122

     occupation numbers 
     1.0000   1.0000   1.0000   1.0000   1.0000   1.0000   1.0000   1.0000
     1.0000   1.0000   1.0000   1.0000   1.0000   1.0000   1.0000   1.0000
     1.0000   1.0000   0.1668   0.1668   0.0000

          k = 0.0000 0.4811 0.0000 (  2762 PWs)   bands (ev):

   -76.6272 -76.6038 -40.0368 -39.9876 -39.9620 -39.8403 -39.8244 -39.7682
    14.2650  14.6558  14.8634  16.6179  16.7699  16.7977  17.0590  18.7432
    18.8070  18.8632  19.6294  24.6777  27.7044

     occupation numbers 
     1.0000   1.0000   1.0000   1.0000   1.0000   1.0000   1.0000   1.0000
     1.0000   1.0000   1.0000   1.0000   1.0000   1.0000   1.0000   1.0000
     1.0000   1.0000   0.0000   0.0000   0.0000

          k = 0.0000 0.4811 0.0999 (  2753 PWs)   bands (ev):

   -76.6256 -76.6053 -40.0518 -40.0031 -39.9333 -39.8355 -39.8225 -39.7730
    14.1412  14.6284  15.1939  15.9234  16.8816  17.0807  17.7214  18.5928
    18.7634  18.9018  19.4599  23.7627  27.3132

     occupation numbers 
     1.0000   1.0000   1.0000   1.0000   1.0000   1.0000   1.0000   1.0000
     1.0000   1.0000   1.0000   1.0000   1.0000   1.0000   1.0000   1.0000
     1.0000   1.0000   0.0641   0.0000   0.0000

          k = 0.0000 0.4811 0.1998 (  2761 PWs)   bands (ev):

   -76.6213 -76.6096 -40.0649 -40.0331 -39.8862 -39.8263 -39.8223 -39.7863
    14.0916  14.5485  15.3774  15.6726  17.1980  17.3891  18.1713  18.7446
    18.7978  18.8869  19.0969  21.9831  27.5610

     occupation numbers 
     1.0000   1.0000   1.0000   1.0000   1.0000   1.0000   1.0000   1.0000
     1.0000   1.0000   1.0000   1.0000   1.0000   1.0000   1.0000   1.0000
     1.0000   1.0000   1.0000   0.0000   0.0000

          k = 0.0000 0.4811-0.2998 (  2774 PWs)   bands (ev):

   -76.6155 -76.6155 -40.0578 -40.0578 -39.8473 -39.8473 -39.8043 -39.8043
    14.2657  14.2657  15.5343  15.5343  17.6615  17.6615  18.1342  18.1342
    18.8446  18.8446  20.3169  20.3169  28.3255

     occupation numbers 
     1.0000   1.0000   1.0000   1.0000   1.0000   1.0000   1.0000   1.0000
     1.0000   1.0000   1.0000   1.0000   1.0000   1.0000   1.0000   1.0000
     1.0000   1.0000   0.0000   0.0000   0.0000

          k = 0.0000-0.5774 0.0000 (  2730 PWs)   bands (ev):

   -76.6218 -76.6030 -40.0569 -40.0065 -39.9455 -39.8458 -39.8356 -39.7721
    14.4865  14.5323  14.7593  16.7218  16.7393  16.8968  17.1286  18.8109
    18.8926  19.0246  20.8430  22.9654  29.0455

     occupation numbers 
     1.0000   1.0000   1.0000   1.0000   1.0000   1.0000   1.0000   1.0000
     1.0000   1.0000   1.0000   1.0000   1.0000   1.0000   1.0000   1.0000
     1.0000   1.0000   0.0000   0.0000   0.0000

          k = 0.0000-0.5774 0.0999 (  2768 PWs)   bands (ev):

   -76.6205 -76.6043 -40.0687 -40.0212 -39.9228 -39.8410 -39.8316 -39.7771
    14.2289  14.5297  15.2201  15.8937  16.8390  17.1666  17.9439  18.6279
    18.9165  19.0174  20.6058  22.7548  28.3036

     occupation numbers 
     1.0000   1.0000   1.0000   1.0000   1.0000   1.0000   1.0000   1.0000
     1.0000   1.0000   1.0000   1.0000   1.0000   1.0000   1.0000   1.0000
     1.0000   1.0000   0.0000   0.0000   0.0000

          k = 0.0000-0.5774 0.1998 (  2770 PWs)   bands (ev):

   -76.6171 -76.6077 -40.0810 -40.0511 -39.8810 -39.8308 -39.8275 -39.7907
    14.1047  14.5032  15.4126  15.5624  17.1713  17.5322  18.1938  18.8740
    18.9420  18.9978  20.2126  22.0742  27.4444

     occupation numbers 
     1.0000   1.0000   1.0000   1.0000   1.0000   1.0000   1.0000   1.0000
     1.0000   1.0000   1.0000   1.0000   1.0000   1.0000   1.0000   1.0000
     1.0000   1.0000   0.0000   0.0000   0.0000

          k = 0.0000-0.5774-0.2998 (  2760 PWs)   bands (ev):

   -76.6124 -76.6124 -40.0750 -40.0750 -39.8468 -39.8468 -39.8091 -39.8091
    14.2470  14.2470  15.4810  15.4810  17.6586  17.6586  18.3792  18.3792
    18.9705  18.9705  20.9991  20.9991  27.0336

     occupation numbers 
     1.0000   1.0000   1.0000   1.0000   1.0000   1.0000   1.0000   1.0000
     1.0000   1.0000   1.0000   1.0000   1.0000   1.0000   1.0000   1.0000
     1.0000   1.0000   0.0000   0.0000   0.0000

          k = 0.0833 0.1443 0.0000 (  2751 PWs)   bands (ev):

   -76.6754 -76.6232 -40.0770 -39.8133 -39.7883 -39.7680 -39.7628 -39.7283
    10.9972  14.5175  16.3039  16.7208  16.9207  17.0140  17.1830  17.2694
    17.4567  17.5787  18.6841  21.3532  25.7287

     occupation numbers 
     1.0000   1.0000   1.0000   1.0000   1.0000   1.0000   1.0000   1.0000
     1.0000   1.0000   1.0000   1.0000   1.0000   1.0000   1.0000   1.0000
     1.0000   1.0000   1.0000   0.0000   0.0000

          k = 0.0833 0.1443 0.0999 (  2759 PWs)   bands (ev):

   -76.6719 -76.6267 -40.0582 -39.8089 -39.8053 -39.7783 -39.7558 -39.7317
    11.2546  14.4751  16.3360  16.3878  16.7480  17.0197  17.0970  17.3331
    17.6161  17.7013  18.6475  20.3980  27.3987

     occupation numbers 
     1.0000   1.0000   1.0000   1.0000   1.0000   1.0000   1.0000   1.0000
     1.0000   1.0000   1.0000   1.0000   1.0000   1.0000   1.0000   1.0000
     1.0000   1.0000   1.0000   0.0000   0.0000

          k = 0.0833 0.1443 0.1998 (  2768 PWs)   bands (ev):

   -76.6624 -76.6363 -40.0065 -39.8619 -39.7971 -39.7747 -39.7581 -39.7408
    11.9906  14.0742  15.9936  16.3701  16.4556  16.9086  17.0177  17.2020
    17.9786  18.0387  18.5204  19.2536  30.6513

     occupation numbers 
     1.0000   1.0000   1.0000   1.0000   1.0000   1.0000   1.0000   1.0000
     1.0000   1.0000   1.0000   1.0000   1.0000   1.0000   1.0000   1.0000
     1.0000   1.0000   1.0000   1.0000   0.0000

          k = 0.0833 0.1443-0.2998 (  2770 PWs)   bands (ev):

   -76.6494 -76.6494 -39.9351 -39.9351 -39.7823 -39.7823 -39.7524 -39.7524
    13.0625  13.0625  16.0532  16.0532  16.6548  16.6548  17.0708  17.0708
    18.2769  18.2769  18.5577  18.5577  34.4440

     occupation numbers 
     1.0000   1.0000   1.0000   1.0000   1.0000   1.0000   1.0000   1.0000
     1.0000   1.0000   1.0000   1.0000   1.0000   1.0000   1.0000   1.0000
     1.0000   1.0000   1.0000   1.0000   0.0000

          k = 0.0833 0.2406 0.0000 (  2757 PWs)   bands (ev):

   -76.6623 -76.6166 -40.0490 -39.8728 -39.8437 -39.7909 -39.7789 -39.7439
    11.9231  14.9300  15.9833  16.0364  16.7574  17.0140  17.2952  17.4241
    17.6438  17.9130  18.7171  22.9861  25.9560

     occupation numbers 
     1.0000   1.0000   1.0000   1.0000   1.0000   1.0000   1.0000   1.0000
     1.0000   1.0000   1.0000   1.0000   1.0000   1.0000   1.0000   1.0000
     1.0000   1.0000   1.0000   0.0000   0.0000

          k = 0.0833 0.2406 0.0999 (  2762 PWs)   bands (ev):

   -76.6592 -76.6197 -40.0362 -39.8671 -39.8550 -39.7978 -39.7761 -39.7475
    12.1520  14.9459  15.7769  16.0905  16.6519  16.9423  17.2576  17.5140
    17.8248  17.8843  18.6771  21.5876  27.9315

     occupation numbers 
     1.0000   1.0000   1.0000   1.0000   1.0000   1.0000   1.0000   1.0000
     1.0000   1.0000   1.0000   1.0000   1.0000   1.0000   1.0000   1.0000
     1.0000   1.0000   1.0000   0.0000   0.0000

          k = 0.0833 0.2406 0.1998 (  2761 PWs)   bands (ev):

   -76.6509 -76.6280 -40.0005 -39.8976 -39.8444 -39.8036 -39.7767 -39.7573
    12.7988  14.6185  15.6276  16.2080  16.3599  16.8040  17.2378  17.5517
    18.0665  18.1532  18.5533  19.9427  31.2916

     occupation numbers 
     1.0000   1.0000   1.0000   1.0000   1.0000   1.0000   1.0000   1.0000
     1.0000   1.0000   1.0000   1.0000   1.0000   1.0000   1.0000   1.0000
     1.0000   1.0000   1.0000   0.0000   0.0000

          k = 0.0833 0.2406-0.2998 (  2762 PWs)   bands (ev):

   -76.6395 -76.6395 -39.9502 -39.9502 -39.8205 -39.8205 -39.7695 -39.7695
    13.7236  13.7236  15.9068  15.9068  16.5299  16.5299  17.3803  17.3803
    18.3216  18.3216  18.8498  18.8498  35.0071

     occupation numbers 
     1.0000   1.0000   1.0000   1.0000   1.0000   1.0000   1.0000   1.0000
     1.0000   1.0000   1.0000   1.0000   1.0000   1.0000   1.0000   1.0000
     1.0000   1.0000   1.0000   1.0000   0.0000

          k = 0.0833 0.3368 0.0000 (  2761 PWs)   bands (ev):

   -76.6464 -76.6096 -40.0127 -39.9452 -39.9086 -39.8192 -39.7955 -39.7609
    13.1071  15.0518  15.4007  15.9914  16.7420  16.8025  17.1928  17.7598
    18.1901  18.5296  18.7426  24.8637  26.3305

     occupation numbers 
     1.0000   1.0000   1.0000   1.0000   1.0000   1.0000   1.0000   1.0000
     1.0000   1.0000   1.0000   1.0000   1.0000   1.0000   1.0000   1.0000
     1.0000   1.0000   1.0000   0.0000   0.0000

          k = 0.0833 0.3368 0.0999 (  2750 PWs)   bands (ev):

   -76.6440 -76.6121 -40.0156 -39.9333 -39.9134 -39.8201 -39.7952 -39.7645
    13.2614  15.0921  15.3248  16.0327  16.5572  17.0290  17.1536  17.8103
    18.2685  18.3713  18.7723  22.8698  28.7392

     occupation numbers 
     1.0000   1.0000   1.0000   1.0000   1.0000   1.0000   1.0000   1.0000
     1.0000   1.0000   1.0000   1.0000   1.0000   1.0000   1.0000   1.0000
     1.0000   1.0000   1.0000   0.0000   0.0000

          k = 0.0833 0.3368 0.1998 (  2757 PWs)   bands (ev):

   -76.6372 -76.6188 -40.0102 -39.9558 -39.8818 -39.8224 -39.7974 -39.7747
    13.6807  14.8033  15.4715  16.0565  16.4996  16.9989  17.2840  17.8853
    18.2880  18.4773  18.7529  20.8046  31.5850

     occupation numbers 
     1.0000   1.0000   1.0000   1.0000   1.0000   1.0000   1.0000   1.0000
     1.0000   1.0000   1.0000   1.0000   1.0000   1.0000   1.0000   1.0000
     1.0000   1.0000   1.0000   0.0000   0.0000

          k = 0.0833 0.3368-0.2998 (  2764 PWs)   bands (ev):

   -76.6280 -76.6280 -39.9883 -39.9883 -39.8442 -39.8442 -39.7887 -39.7887
    14.2476  14.2476  15.8024  15.8024  16.7383  16.7383  17.5698  17.5698
    18.5571  18.5571  19.3156  19.3156  32.8603

     occupation numbers 
     1.0000   1.0000   1.0000   1.0000   1.0000   1.0000   1.0000   1.0000
     1.0000   1.0000   1.0000   1.0000   1.0000   1.0000   1.0000   1.0000
     1.0000   1.0000   1.0000   1.0000   0.0000

          k = 0.0833 0.4330 0.0000 (  2761 PWs)   bands (ev):

   -76.6315 -76.6047 -40.0090 -39.9745 -39.9643 -39.8424 -39.8165 -39.7756
    14.1238  14.8532  15.0116  16.2445  16.6747  16.9520  16.9578  18.3537
    18.6521  18.7557  19.3769  25.9361  26.9023

     occupation numbers 
     1.0000   1.0000   1.0000   1.0000   1.0000   1.0000   1.0000   1.0000
     1.0000   1.0000   1.0000   1.0000   1.0000   1.0000   1.0000   1.0000
     1.0000   1.0000   1.0000   0.0000   0.0000

          k = 0.0833 0.4330 0.0999 (  2758 PWs)   bands (ev):

   -76.6297 -76.6065 -40.0298 -39.9819 -39.9366 -39.8400 -39.8149 -39.7790
    14.0991  14.8484  15.1913  15.9448  16.7534  17.0673  17.2918  18.3070
    18.5797  18.7084  19.3701  24.0053  27.9385

     occupation numbers 
     1.0000   1.0000   1.0000   1.0000   1.0000   1.0000   1.0000   1.0000
     1.0000   1.0000   1.0000   1.0000   1.0000   1.0000   1.0000   1.0000
     1.0000   1.0000   1.0000   0.0000   0.0000

          k = 0.0833 0.4330 0.1998 (  2761 PWs)   bands (ev):

   -76.6248 -76.6114 -40.0430 -40.0100 -39.8897 -39.8351 -39.8156 -39.7886
    14.1561  14.7064  15.3905  15.8463  16.8632  17.3195  17.7322  18.0607
    18.4733  18.8445  19.4217  21.8599  28.7189

     occupation numbers 
     1.0000   1.0000   1.0000   1.0000   1.0000   1.0000   1.0000   1.0000
     1.0000   1.0000   1.0000   1.0000   1.0000   1.0000   1.0000   1.0000
     1.0000   1.0000   0.9929   0.0000   0.0000

          k = 0.0833 0.4330-0.2998 (  2762 PWs)   bands (ev):

   -76.6181 -76.6181 -40.0349 -40.0349 -39.8522 -39.8522 -39.8038 -39.8038
    14.3840  14.3840  15.6578  15.6578  17.3088  17.3088  17.7288  17.7288
    18.7845  18.7845  20.2075  20.2075  29.7311

     occupation numbers 
     1.0000   1.0000   1.0000   1.0000   1.0000   1.0000   1.0000   1.0000
     1.0000   1.0000   1.0000   1.0000   1.0000   1.0000   1.0000   1.0000
     1.0000   1.0000   0.0000   0.0000   0.0000

          k = 0.0833 0.5292 0.0000 (  2759 PWs)   bands (ev):

   -76.6218 -76.6030 -40.0459 -39.9963 -39.9457 -39.8555 -39.8354 -39.7841
    14.5476  14.6850  14.8187  16.6425  16.6539  16.7649  17.1282  18.7600
    18.7929  18.8862  20.7022  23.7612  28.8519

     occupation numbers 
     1.0000   1.0000   1.0000   1.0000   1.0000   1.0000   1.0000   1.0000
     1.0000   1.0000   1.0000   1.0000   1.0000   1.0000   1.0000   1.0000
     1.0000   1.0000   0.0000   0.0000   0.0000

          k = 0.0833 0.5292 0.0999 (  2754 PWs)   bands (ev):

   -76.6205 -76.6043 -40.0580 -40.0114 -39.9238 -39.8499 -39.8321 -39.7875
    14.3198  14.6717  15.2703  15.8824  16.6992  17.2326  17.5995  18.5637
    18.7943  18.9113  20.6211  23.4423  27.7588

     occupation numbers 
     1.0000   1.0000   1.0000   1.0000   1.0000   1.0000   1.0000   1.0000
     1.0000   1.0000   1.0000   1.0000   1.0000   1.0000   1.0000   1.0000
     1.0000   1.0000   0.0000   0.0000   0.0000

          k = 0.0833 0.5292 0.1998 (  2759 PWs)   bands (ev):

   -76.6171 -76.6077 -40.0705 -40.0413 -39.8859 -39.8388 -39.8297 -39.7963
    14.2169  14.6394  15.4234  15.6847  16.8704  17.6198  18.0139  18.3305
    18.7495  18.9552  20.6284  22.4952  27.1682

     occupation numbers 
     1.0000   1.0000   1.0000   1.0000   1.0000   1.0000   1.0000   1.0000
     1.0000   1.0000   1.0000   1.0000   1.0000   1.0000   1.0000   1.0000
     1.0000   1.0000   0.0000   0.0000   0.0000

          k = 0.0833 0.5292-0.2998 (  2752 PWs)   bands (ev):

   -76.6124 -76.6124 -40.0648 -40.0648 -39.8550 -39.8550 -39.8113 -39.8113
    14.3684  14.3684  15.5629  15.5629  17.4183  17.4183  18.1810  18.1810
    18.8279  18.8279  21.3433  21.3433  27.4613

     occupation numbers 
     1.0000   1.0000   1.0000   1.0000   1.0000   1.0000   1.0000   1.0000
     1.0000   1.0000   1.0000   1.0000   1.0000   1.0000   1.0000   1.0000
     1.0000   1.0000   0.0000   0.0000   0.0000

          k = 0.1667 0.2887 0.0000 (  2762 PWs)   bands (ev):

   -76.6486 -76.6105 -40.0179 -39.9173 -39.9086 -39.8134 -39.7928 -39.7704
    12.9626  15.2689  15.5195  15.7259  16.7167  16.7578  17.3123  17.4706
    18.1739  18.5603  18.6947  24.6023  26.3605

     occupation numbers 
     1.0000   1.0000   1.0000   1.0000   1.0000   1.0000   1.0000   1.0000
     1.0000   1.0000   1.0000   1.0000   1.0000   1.0000   1.0000   1.0000
     1.0000   1.0000   1.0000   0.0000   0.0000

          k = 0.1667 0.2887 0.0999 (  2761 PWs)   bands (ev):

   -76.6461 -76.6131 -40.0156 -39.9171 -39.9032 -39.8234 -39.7871 -39.7740
    13.1401  15.3593  15.3692  15.7806  16.6448  16.7653  17.2147  17.6080
    18.2848  18.3540  18.7889  22.7336  28.6965

     occupation numbers 
     1.0000   1.0000   1.0000   1.0000   1.0000   1.0000   1.0000   1.0000
     1.0000   1.0000   1.0000   1.0000   1.0000   1.0000   1.0000   1.0000
     1.0000   1.0000   1.0000   0.0000   0.0000

          k = 0.1667 0.2887 0.1998 (  2768 PWs)   bands (ev):

   -76.6391 -76.6200 -40.0031 -39.9433 -39.8719 -39.8316 -39.7879 -39.7831
    13.6271  14.9277  15.6084  15.9346  16.4217  16.6334  17.2322  17.8173
    18.2791  18.4781  18.8315  20.7326  32.0549

     occupation numbers 
     1.0000   1.0000   1.0000   1.0000   1.0000   1.0000   1.0000   1.0000
     1.0000   1.0000   1.0000   1.0000   1.0000   1.0000   1.0000   1.0000
     1.0000   1.0000   1.0000   0.0000   0.0000

          k = 0.1667 0.2887-0.2998 (  2762 PWs)   bands (ev):

   -76.6296 -76.6296 -39.9769 -39.9769 -39.8432 -39.8432 -39.7904 -39.7904
    14.2881  14.2881  15.9229  15.9229  16.3624  16.3624  17.5120  17.5120
    18.6068  18.6068  19.3018  19.3018  34.5873

     occupation numbers 
     1.0000   1.0000   1.0000   1.0000   1.0000   1.0000   1.0000   1.0000
     1.0000   1.0000   1.0000   1.0000   1.0000   1.0000   1.0000   1.0000
     1.0000   1.0000   1.0000   1.0000   0.0000

          k = 0.1667 0.3849 0.0000 (  2760 PWs)   bands (ev):

   -76.6340 -76.6054 -39.9813 -39.9736 -39.9515 -39.8462 -39.8124 -39.7962
    14.0928  15.1668  15.2302  15.7268  16.5347  16.9035  17.0861  17.8250
    18.6395  18.6714  19.4341  26.5046  26.8645

     occupation numbers 
     1.0000   1.0000   1.0000   1.0000   1.0000   1.0000   1.0000   1.0000
     1.0000   1.0000   1.0000   1.0000   1.0000   1.0000   1.0000   1.0000
     1.0000   1.0000   0.8758   0.0000   0.0000

          k = 0.1667 0.3849 0.0999 (  2755 PWs)   bands (ev):

   -76.6321 -76.6073 -40.0075 -39.9694 -39.9260 -39.8533 -39.8083 -39.7965
    14.1557  15.1019  15.3200  15.8036  16.5577  16.9168  17.0515  17.8844
    18.4726  18.7244  19.5041  24.0672  29.3057

     occupation numbers 
     1.0000   1.0000   1.0000   1.0000   1.0000   1.0000   1.0000   1.0000
     1.0000   1.0000   1.0000   1.0000   1.0000   1.0000   1.0000   1.0000
     1.0000   1.0000   0.0000   0.0000   0.0000

          k = 0.1667 0.3849 0.1998 (  2761 PWs)   bands (ev):

   -76.6268 -76.6125 -40.0201 -39.9901 -39.8856 -39.8563 -39.8116 -39.7972
    14.3366  14.8957  15.5604  16.0092  16.4599  16.7812  17.2030  17.9120
    18.3881  18.8674  19.6704  21.8882  30.4761

     occupation numbers 
     1.0000   1.0000   1.0000   1.0000   1.0000   1.0000   1.0000   1.0000
     1.0000   1.0000   1.0000   1.0000   1.0000   1.0000   1.0000   1.0000
     1.0000   1.0000   0.0000   0.0000   0.0000

          k = 0.1667 0.3849-0.2998 (  2760 PWs)   bands (ev):

   -76.6197 -76.6197 -40.0121 -40.0121 -39.8612 -39.8612 -39.8072 -39.8072
    14.6058  14.6058  15.8903  15.8903  16.5629  16.5629  17.4964  17.4964
    18.8281  18.8281  20.3245  20.3245  31.5909

     occupation numbers 
     1.0000   1.0000   1.0000   1.0000   1.0000   1.0000   1.0000   1.0000
     1.0000   1.0000   1.0000   1.0000   1.0000   1.0000   1.0000   1.0000
     1.0000   1.0000   0.0000   0.0000   0.0000

          k = 0.1667 0.4811 0.0000 (  2752 PWs)   bands (ev):

   -76.6219 -76.6030 -40.0174 -39.9756 -39.9462 -39.8756 -39.8349 -39.8140
    14.7808  14.9540  15.0081  16.0732  16.4918  16.8299  17.1219  18.3010
    18.6547  18.8509  20.6759  25.4721  28.5673

     occupation numbers 
     1.0000   1.0000   1.0000   1.0000   1.0000   1.0000   1.0000   1.0000
     1.0000   1.0000   1.0000   1.0000   1.0000   1.0000   1.0000   1.0000
     1.0000   1.0000   0.0000   0.0000   0.0000

          k = 0.1667 0.4811 0.0999 (  2755 PWs)   bands (ev):

   -76.6206 -76.6042 -40.0301 -39.9930 -39.9234 -39.8728 -39.8340 -39.8103
    14.5860  15.0486  15.2620  15.8423  16.5436  16.9815  17.2394  18.2945
    18.4690  18.9086  20.7481  24.7791  27.6582

     occupation numbers 
     1.0000   1.0000   1.0000   1.0000   1.0000   1.0000   1.0000   1.0000
     1.0000   1.0000   1.0000   1.0000   1.0000   1.0000   1.0000   1.0000
     1.0000   1.0000   0.0000   0.0000   0.0000

          k = 0.1667 0.4811 0.1998 (  2757 PWs)   bands (ev):

   -76.6171 -76.6077 -40.0441 -40.0200 -39.8976 -39.8640 -39.8322 -39.8053
    14.5263  14.9590  15.4525  15.9748  16.4428  17.1350  17.5090  17.9852
    18.4955  18.9763  21.0343  23.1876  27.8448

     occupation numbers 
     1.0000   1.0000   1.0000   1.0000   1.0000   1.0000   1.0000   1.0000
     1.0000   1.0000   1.0000   1.0000   1.0000   1.0000   1.0000   1.0000
     1.0000   1.0000   0.0000   0.0000   0.0000

          k = 0.1667 0.4811-0.2998 (  2762 PWs)   bands (ev):

   -76.6124 -76.6124 -40.0407 -40.0407 -39.8767 -39.8767 -39.8141 -39.8141
    14.6752  14.6752  15.7732  15.7732  16.8529  16.8529  17.6826  17.6826
    18.8299  18.8299  21.8051  21.8051  28.7067

     occupation numbers 
     1.0000   1.0000   1.0000   1.0000   1.0000   1.0000   1.0000   1.0000
     1.0000   1.0000   1.0000   1.0000   1.0000   1.0000   1.0000   1.0000
     1.0000   1.0000   0.0000   0.0000   0.0000

          k = 0.1667 0.5774 0.0000 (  2756 PWs)   bands (ev):

   -76.6166 -76.6029 -40.0332 -39.9836 -39.9286 -39.8874 -39.8479 -39.8204
    14.8835  14.8960  14.9495  16.3150  16.5454  16.6668  17.2155  18.6286
    18.6485  18.8016  21.9714  23.6365  30.0305

     occupation numbers 
     1.0000   1.0000   1.0000   1.0000   1.0000   1.0000   1.0000   1.0000
     1.0000   1.0000   1.0000   1.0000   1.0000   1.0000   1.0000   1.0000
     1.0000   1.0000   0.0000   0.0000   0.0000

          k = 0.1667 0.5774 0.0999 (  2761 PWs)   bands (ev):

   -76.6157 -76.6038 -40.0432 -39.9995 -39.9214 -39.8713 -39.8497 -39.8159
    14.5963  14.9630  15.4291  15.8212  16.4608  17.1140  17.3400  18.4433
    18.6263  18.8451  22.0488  23.5618  28.8749

     occupation numbers 
     1.0000   1.0000   1.0000   1.0000   1.0000   1.0000   1.0000   1.0000
     1.0000   1.0000   1.0000   1.0000   1.0000   1.0000   1.0000   1.0000
     1.0000   1.0000   0.0000   0.0000   0.0000

          k = 0.1667 0.5774 0.1998 (  2753 PWs)   bands (ev):

   -76.6132 -76.6063 -40.0553 -40.0296 -39.9046 -39.8625 -39.8397 -39.8089
    14.5179  14.9682  15.4960  15.9198  16.3600  17.3377  17.6504  18.0553
    18.6458  18.8809  22.3127  23.2921  27.6802

     occupation numbers 
     1.0000   1.0000   1.0000   1.0000   1.0000   1.0000   1.0000   1.0000
     1.0000   1.0000   1.0000   1.0000   1.0000   1.0000   1.0000   1.0000
     1.0000   1.0000   0.0000   0.0000   0.0000

          k = 0.1667 0.5774-0.2998 (  2754 PWs)   bands (ev):

   -76.6097 -76.6097 -40.0516 -40.0516 -39.8831 -39.8831 -39.8155 -39.8155
    14.6772  14.6772  15.7306  15.7306  16.8905  16.8905  17.9035  17.9035
    18.7628  18.7628  22.7995  22.7995  27.2372

     occupation numbers 
     1.0000   1.0000   1.0000   1.0000   1.0000   1.0000   1.0000   1.0000
     1.0000   1.0000   1.0000   1.0000   1.0000   1.0000   1.0000   1.0000
     1.0000   1.0000   0.0000   0.0000   0.0000

          k = 0.2500 0.4330 0.0000 (  2752 PWs)   bands (ev):

   -76.6219 -76.6029 -39.9929 -39.9721 -39.9464 -39.8815 -39.8363 -39.8347
    14.9507  15.0337  15.4676  15.4681  16.3985  16.8651  17.1306  18.0199
    18.5998  18.8481  20.7011  27.1741  28.1744

     occupation numbers 
     1.0000   1.0000   1.0000   1.0000   1.0000   1.0000   1.0000   1.0000
     1.0000   1.0000   1.0000   1.0000   1.0000   1.0000   1.0000   1.0000
     1.0000   1.0000   0.0000   0.0000   0.0000

          k = 0.2500 0.4330 0.0999 (  2756 PWs)   bands (ev):

   -76.6206 -76.6042 -40.0012 -39.9975 -39.9121 -39.8940 -39.8384 -39.8207
    14.9371  14.9847  15.4748  15.6416  16.5507  16.7039  17.1510  18.0799
    18.4041  18.9126  20.8146  25.4783  28.4449

     occupation numbers 
     1.0000   1.0000   1.0000   1.0000   1.0000   1.0000   1.0000   1.0000
     1.0000   1.0000   1.0000   1.0000   1.0000   1.0000   1.0000   1.0000
     1.0000   1.0000   0.0000   0.0000   0.0000

          k = 0.2500 0.4330 0.1998 (  2763 PWs)   bands (ev):

   -76.6171 -76.6077 -40.0236 -40.0119 -39.8999 -39.8861 -39.8336 -39.8086
    14.8964  14.9247  15.6396  16.0132  16.3670  16.6553  17.2222  17.8791
    18.4574  18.9855  21.1674  23.4630  29.1944

     occupation numbers 
     1.0000   1.0000   1.0000   1.0000   1.0000   1.0000   1.0000   1.0000
     1.0000   1.0000   1.0000   1.0000   1.0000   1.0000   1.0000   1.0000
     1.0000   1.0000   0.0000   0.0000   0.0000

          k = 0.2500 0.4330-0.2998 (  2756 PWs)   bands (ev):

   -76.6124 -76.6124 -40.0255 -40.0255 -39.8912 -39.8912 -39.8150 -39.8150
    14.8896  14.8896  15.9563  15.9563  16.4457  16.4457  17.4518  17.4518
    18.8506  18.8506  21.9768  21.9768  30.1822

     occupation numbers 
     1.0000   1.0000   1.0000   1.0000   1.0000   1.0000   1.0000   1.0000
     1.0000   1.0000   1.0000   1.0000   1.0000   1.0000   1.0000   1.0000
     1.0000   1.0000   0.0000   0.0000   0.0000

          k = 0.2500 0.5292 0.0000 (  2769 PWs)   bands (ev):

   -76.6131 -76.6033 -40.0063 -39.9639 -39.9169 -39.9157 -39.8626 -39.8582
    14.9801  15.2299  15.3075  15.8369  16.4137  16.6296  17.3085  18.3369
    18.5580  18.7491  22.4267  25.0912  27.4981

     occupation numbers 
     1.0000   1.0000   1.0000   1.0000   1.0000   1.0000   1.0000   1.0000
     1.0000   1.0000   1.0000   1.0000   1.0000   1.0000   1.0000   1.0000
     1.0000   1.0000   0.0000   0.0000   0.0000

          k = 0.2500 0.5292 0.0999 (  2764 PWs)   bands (ev):

   -76.6124 -76.6040 -40.0123 -39.9841 -39.9348 -39.8886 -39.8664 -39.8371
    14.9263  15.3377  15.4281  15.7131  16.4322  16.6444  17.3369  18.3288
    18.3968  18.7978  22.6016  25.0712  27.4671

     occupation numbers 
     1.0000   1.0000   1.0000   1.0000   1.0000   1.0000   1.0000   1.0000
     1.0000   1.0000   1.0000   1.0000   1.0000   1.0000   1.0000   1.0000
     1.0000   1.0000   0.0000   0.0000   0.0000

          k = 0.2500 0.5292 0.1998 (  2749 PWs)   bands (ev):

   -76.6107 -76.6058 -40.0260 -40.0113 -39.9343 -39.8969 -39.8373 -39.8170
    14.9351  15.3034  15.5687  15.9072  16.2664  16.6790  17.4165  17.8884
    18.5478  18.8490  23.0720  24.6751  27.3404

     occupation numbers 
     1.0000   1.0000   1.0000   1.0000   1.0000   1.0000   1.0000   1.0000
     1.0000   1.0000   1.0000   1.0000   1.0000   1.0000   1.0000   1.0000
     1.0000   1.0000   0.0000   0.0000   0.0000

          k = 0.2500 0.5292-0.2998 (  2736 PWs)   bands (ev):

   -76.6082 -76.6082 -40.0278 -40.0278 -39.9173 -39.9173 -39.8162 -39.8162
    15.0706  15.0706  15.8597  15.8597  16.4459  16.4459  17.5584  17.5584
    18.7585  18.7585  23.8136  23.8136  27.8835

     occupation numbers 
     1.0000   1.0000   1.0000   1.0000   1.0000   1.0000   1.0000   1.0000
     1.0000   1.0000   1.0000   1.0000   1.0000   1.0000   1.0000   1.0000
     1.0000   1.0000   0.0000   0.0000   0.0000

          k = 0.3333 0.5774 0.0000 (  2778 PWs)   bands (ev):

   -76.6067 -76.6067 -39.9908 -39.9442 -39.9442 -39.8951 -39.8856 -39.8856
    15.0071  15.4440  15.4440  15.6829  16.4627  16.4627  17.4121  18.5006
    18.5006  18.5195  24.2096  25.1187  25.1187

     occupation numbers 
     1.0000   1.0000   1.0000   1.0000   1.0000   1.0000   1.0000   1.0000
     1.0000   1.0000   1.0000   1.0000   1.0000   1.0000   1.0000   1.0000
     1.0000   1.0000   0.0000   0.0000   0.0000

          k = 0.3333 0.5774 0.0999 (  2766 PWs)   bands (ev):

   -76.6067 -76.6067 -39.9844 -39.9702 -39.9702 -39.9015 -39.8595 -39.8595
    15.1005  15.4516  15.4516  15.6969  16.4411  16.4411  17.3904  18.2996
    18.5550  18.5550  24.5938  25.1734  25.1734

     occupation numbers 
     1.0000   1.0000   1.0000   1.0000   1.0000   1.0000   1.0000   1.0000
     1.0000   1.0000   1.0000   1.0000   1.0000   1.0000   1.0000   1.0000
     1.0000   1.0000   0.0000   0.0000   0.0000

          k = 0.3333 0.5774 0.1998 (  2739 PWs)   bands (ev):

   -76.6067 -76.6067 -40.0011 -40.0011 -39.9669 -39.9191 -39.8282 -39.8282
    15.3385  15.4644  15.4644  15.6987  16.4050  16.4050  17.3702  17.8412
    18.6607  18.6607  25.3074  25.3074  25.5900

     occupation numbers 
     1.0000   1.0000   1.0000   1.0000   1.0000   1.0000   1.0000   1.0000
     1.0000   1.0000   1.0000   1.0000   1.0000   1.0000   1.0000   1.0000
     1.0000   1.0000   0.0000   0.0000   0.0000

          k = 0.3333 0.5774-0.2998 (  2730 PWs)   bands (ev):

   -76.6067 -76.6067 -40.0130 -40.0130 -39.9430 -39.9430 -39.8162 -39.8162
    15.4694  15.4694  15.5868  15.5868  16.3904  16.3904  17.4835  17.4835
    18.7123  18.7123  25.3919  25.3919  26.9732

     occupation numbers 
     1.0000   1.0000   1.0000   1.0000   1.0000   1.0000   1.0000   1.0000
     1.0000   1.0000   1.0000   1.0000   1.0000   1.0000   1.0000   1.0000
     1.0000   1.0000   0.0000   0.0000   0.0000

 ------ SPIN DOWN ----------


          k = 0.0000 0.0000 0.0000 (  2779 PWs)   bands (ev):

   -74.6129 -74.5513 -38.0815 -37.7463 -37.7463 -37.7112 -37.6985 -37.6985
    10.2605  14.9823  18.2144  18.4528  18.4528  18.7992  18.7992  18.8003
    19.4174  19.4174  20.5772  20.5772  26.6721

     occupation numbers 
     1.0000   1.0000   1.0000   1.0000   1.0000   1.0000   1.0000   1.0000
     1.0000   1.0000   1.0000   1.0000   1.0000   1.0000   1.0000   1.0000
     0.9981   0.9981   0.0000   0.0000   0.0000

          k = 0.0000 0.0000 0.0999 (  2768 PWs)   bands (ev):

   -74.6088 -74.5554 -38.0571 -37.7431 -37.7431 -37.7364 -37.7017 -37.7017
    10.5340  14.7352  18.1268  18.2744  18.4065  18.4065  18.7278  18.7278
    19.5690  19.5690  20.5537  20.5537  27.9266

     occupation numbers 
     1.0000   1.0000   1.0000   1.0000   1.0000   1.0000   1.0000   1.0000
     1.0000   1.0000   1.0000   1.0000   1.0000   1.0000   1.0000   1.0000
     0.0000   0.0000   0.0000   0.0000   0.0000

          k = 0.0000 0.0000 0.1998 (  2774 PWs)   bands (ev):

   -74.5976 -74.5668 -37.9901 -37.8049 -37.7344 -37.7344 -37.7105 -37.7105
    11.3244  13.8390  17.7005  17.9053  18.3666  18.3666  18.5681  18.5681
    19.8941  19.8941  20.4486  20.4486  30.8067

     occupation numbers 
     1.0000   1.0000   1.0000   1.0000   1.0000   1.0000   1.0000   1.0000
     1.0000   1.0000   1.0000   1.0000   1.0000   1.0000   1.0000   1.0000
     0.0000   0.0000   0.0000   0.0000   0.0000

          k = 0.0000 0.0000-0.2998 (  2750 PWs)   bands (ev):

   -74.5822 -74.5822 -37.8978 -37.8978 -37.7224 -37.7224 -37.7224 -37.7224
    12.5206  12.5206  17.6792  17.6792  18.4233  18.4233  18.4233  18.4233
    20.2204  20.2204  20.2204  20.2204  34.3738

     occupation numbers 
     1.0000   1.0000   1.0000   1.0000   1.0000   1.0000   1.0000   1.0000
     1.0000   1.0000   1.0000   1.0000   1.0000   1.0000   1.0000   1.0000
     0.0000   0.0000   0.0000   0.0000   0.0000

          k = 0.0000 0.0962 0.0000 (  2755 PWs)   bands (ev):

[...]
    20.7341  20.7757  22.0233  24.6520  29.3767

     occupation numbers 
     1.0000   1.0000   1.0000   1.0000   1.0000   1.0000   1.0000   1.0000
     1.0000   1.0000   1.0000   1.0000   1.0000   1.0000   1.0000   0.0000
     0.0000   0.0000   0.0000   0.0000   0.0000

          k = 0.0833 0.5292 0.0999 (  2754 PWs)   bands (ev):

   -74.5418 -74.5244 -38.0672 -38.0175 -37.8932 -37.8421 -37.7942 -37.7730
    15.2716  15.8366  16.4193  17.0391  18.3252  18.7878  18.8042  20.4941
    20.6644  20.8085  21.8801  24.2651  28.4958

     occupation numbers 
     1.0000   1.0000   1.0000   1.0000   1.0000   1.0000   1.0000   1.0000
     1.0000   1.0000   1.0000   1.0000   1.0000   1.0000   1.0000   0.0000
     0.0000   0.0000   0.0000   0.0000   0.0000

          k = 0.0833 0.5292 0.1998 (  2759 PWs)   bands (ev):

   -74.5381 -74.5280 -38.0780 -38.0473 -37.8589 -37.8207 -37.8059 -37.7761
    15.2223  15.6868  16.7242  17.0114  18.3638  19.1655  19.3490  20.0441
    20.6194  20.8689  21.6641  23.2637  28.0687

     occupation numbers 
     1.0000   1.0000   1.0000   1.0000   1.0000   1.0000   1.0000   1.0000
     1.0000   1.0000   1.0000   1.0000   1.0000   1.0000   1.0000   0.0000
     0.0000   0.0000   0.0000   0.0000   0.0000

          k = 0.0833 0.5292-0.2998 (  2752 PWs)   bands (ev):

   -74.5331 -74.5331 -38.0715 -38.0715 -37.8302 -37.8302 -37.7916 -37.7916
    15.3899  15.3899  16.9486  16.9486  18.8930  18.8930  19.7029  19.7029
    20.7142  20.7142  22.1868  22.1868  28.3417

     occupation numbers 
     1.0000   1.0000   1.0000   1.0000   1.0000   1.0000   1.0000   1.0000
     1.0000   1.0000   1.0000   1.0000   1.0000   1.0000   0.0000   0.0000
     0.0000   0.0000   0.0000   0.0000   0.0000

          k = 0.1667 0.2887 0.0000 (  2762 PWs)   bands (ev):

   -74.5720 -74.5310 -37.9916 -37.9171 -37.9084 -37.8041 -37.7576 -37.7464
    13.0454  16.4303  16.6492  17.1032  18.2927  18.3825  18.9943  19.1870
    19.9504  20.3139  20.6587  25.4244  27.1303

     occupation numbers 
     1.0000   1.0000   1.0000   1.0000   1.0000   1.0000   1.0000   1.0000
     1.0000   1.0000   1.0000   1.0000   1.0000   1.0000   1.0000   1.0000
     0.0000   0.0000   0.0000   0.0000   0.0000

          k = 0.1667 0.2887 0.0999 (  2761 PWs)   bands (ev):

   -74.5693 -74.5338 -37.9944 -37.9154 -37.8966 -37.8088 -37.7616 -37.7486
    13.2499  16.2833  16.6252  17.1704  18.2386  18.3140  18.9023  19.3480
    20.0754  20.1718  20.6782  23.7772  29.3129

     occupation numbers 
     1.0000   1.0000   1.0000   1.0000   1.0000   1.0000   1.0000   1.0000
     1.0000   1.0000   1.0000   1.0000   1.0000   1.0000   1.0000   1.0000
     0.0000   0.0000   0.0000   0.0000   0.0000

          k = 0.1667 0.2887 0.1998 (  2768 PWs)   bands (ev):

   -74.5618 -74.5413 -37.9887 -37.9377 -37.8550 -37.8128 -37.7710 -37.7604
    13.8297  15.5864  16.8961  17.3422  17.9173  18.1623  18.9603  19.5545
    20.1161  20.2977  20.6431  22.0661  32.5507

     occupation numbers 
     1.0000   1.0000   1.0000   1.0000   1.0000   1.0000   1.0000   1.0000
     1.0000   1.0000   1.0000   1.0000   1.0000   1.0000   1.0000   0.0000
     0.0000   0.0000   0.0000   0.0000   0.0000

          k = 0.1667 0.2887-0.2998 (  2762 PWs)   bands (ev):

   -74.5515 -74.5515 -37.9671 -37.9671 -37.8205 -37.8205 -37.7753 -37.7753
    14.6751  14.6751  17.2740  17.2740  17.8593  17.8593  19.2681  19.2681
    20.4803  20.4803  20.8666  20.8666  35.0153

     occupation numbers 
     1.0000   1.0000   1.0000   1.0000   1.0000   1.0000   1.0000   1.0000
     1.0000   1.0000   1.0000   1.0000   1.0000   1.0000   1.0000   1.0000
     0.0000   0.0000   0.0000   0.0000   0.0000

          k = 0.1667 0.3849 0.0000 (  2760 PWs)   bands (ev):

   -74.5563 -74.5255 -37.9787 -37.9544 -37.9515 -37.8396 -37.7855 -37.7676
    14.3334  16.3684  16.4870  16.9441  18.1506  18.4263  18.7218  19.5743
    20.4793  20.6321  21.1099  27.2311  27.4885

     occupation numbers 
     1.0000   1.0000   1.0000   1.0000   1.0000   1.0000   1.0000   1.0000
     1.0000   1.0000   1.0000   1.0000   1.0000   1.0000   1.0000   0.0000
     0.0000   0.0000   0.0000   0.0000   0.0000

          k = 0.1667 0.3849 0.0999 (  2755 PWs)   bands (ev):

   -74.5542 -74.5276 -38.0009 -37.9708 -37.9078 -37.8429 -37.7908 -37.7640
    14.4684  16.2305  16.5856  17.0451  18.0822  18.4289  18.6830  19.6518
    20.3826  20.5813  21.1963  24.9071  29.9118

     occupation numbers 
     1.0000   1.0000   1.0000   1.0000   1.0000   1.0000   1.0000   1.0000
     1.0000   1.0000   1.0000   1.0000   1.0000   1.0000   1.0000   0.0000
     0.0000   0.0000   0.0000   0.0000   0.0000

          k = 0.1667 0.3849 0.1998 (  2761 PWs)   bands (ev):

   -74.5486 -74.5332 -38.0164 -37.9906 -37.8637 -37.8412 -37.7981 -37.7673
    14.8393  15.8603  16.8585  17.2478  17.9090  18.1840  18.8744  19.7121
    20.2172  20.7623  21.2765  22.9288  31.0757

     occupation numbers 
     1.0000   1.0000   1.0000   1.0000   1.0000   1.0000   1.0000   1.0000
     1.0000   1.0000   1.0000   1.0000   1.0000   1.0000   1.0000   0.0000
     0.0000   0.0000   0.0000   0.0000   0.0000

          k = 0.1667 0.3849-0.2998 (  2760 PWs)   bands (ev):

   -74.5409 -74.5409 -38.0106 -38.0106 -37.8425 -37.8425 -37.7854 -37.7854
    15.3495  15.3495  17.1983  17.1983  17.9054  17.9054  19.2564  19.2564
    20.7303  20.7303  21.6153  21.6153  32.1504

     occupation numbers 
     1.0000   1.0000   1.0000   1.0000   1.0000   1.0000   1.0000   1.0000
     1.0000   1.0000   1.0000   1.0000   1.0000   1.0000   1.0000   1.0000
     0.0000   0.0000   0.0000   0.0000   0.0000

          k = 0.1667 0.4811 0.0000 (  2752 PWs)   bands (ev):

   -74.5432 -74.5229 -38.0263 -37.9805 -37.9132 -37.8715 -37.8047 -37.7920
    15.4314  16.2118  16.2369  17.0444  18.0785  18.4160  18.6769  20.0949
    20.6127  20.7290  22.0950  26.1987  29.1799

     occupation numbers 
     1.0000   1.0000   1.0000   1.0000   1.0000   1.0000   1.0000   1.0000
     1.0000   1.0000   1.0000   1.0000   1.0000   1.0000   1.0000   0.0000
     0.0000   0.0000   0.0000   0.0000   0.0000

          k = 0.1667 0.4811 0.0999 (  2755 PWs)   bands (ev):

   -74.5419 -74.5243 -38.0359 -37.9961 -37.8986 -37.8618 -37.8144 -37.7812
    15.4187  16.1700  16.4182  17.0463  18.0865  18.3716  18.8081  20.1044
    20.3829  20.8024  22.1378  25.4673  28.4271

     occupation numbers 
     1.0000   1.0000   1.0000   1.0000   1.0000   1.0000   1.0000   1.0000
     1.0000   1.0000   1.0000   1.0000   1.0000   1.0000   1.0000   0.0000
     0.0000   0.0000   0.0000   0.0000   0.0000

          k = 0.1667 0.4811 0.1998 (  2757 PWs)   bands (ev):

   -74.5382 -74.5280 -38.0480 -38.0233 -37.8822 -37.8462 -37.8133 -37.7748
    15.4805  15.9742  16.7428  17.2665  17.9033  18.3726  19.0847  19.8121
    20.3408  20.8954  22.2792  23.9687  28.6428

     occupation numbers 
     1.0000   1.0000   1.0000   1.0000   1.0000   1.0000   1.0000   1.0000
     1.0000   1.0000   1.0000   1.0000   1.0000   1.0000   1.0000   0.0000
     0.0000   0.0000   0.0000   0.0000   0.0000

          k = 0.1667 0.4811-0.2998 (  2762 PWs)   bands (ev):

   -74.5331 -74.5331 -38.0441 -38.0441 -37.8629 -37.8629 -37.7868 -37.7868
    15.6844  15.6844  17.1339  17.1339  18.1163  18.1163  19.3785  19.3785
    20.7198  20.7198  22.7971  22.7971  29.4400

     occupation numbers 
     1.0000   1.0000   1.0000   1.0000   1.0000   1.0000   1.0000   1.0000
     1.0000   1.0000   1.0000   1.0000   1.0000   1.0000   1.0000   1.0000
     0.0000   0.0000   0.0000   0.0000   0.0000

          k = 0.1667 0.5774 0.0000 (  2756 PWs)   bands (ev):

   -74.5376 -74.5229 -38.0436 -37.9892 -37.8939 -37.8843 -37.8117 -37.8062
    15.8707  16.0877  16.1629  17.1481  18.1764  18.1783  18.7876  20.4654
    20.6054  20.6794  23.0495  24.6267  30.5214

     occupation numbers 
     1.0000   1.0000   1.0000   1.0000   1.0000   1.0000   1.0000   1.0000
     1.0000   1.0000   1.0000   1.0000   1.0000   1.0000   1.0000   0.0000
     0.0000   0.0000   0.0000   0.0000   0.0000

          k = 0.1667 0.5774 0.0999 (  2761 PWs)   bands (ev):

   -74.5366 -74.5239 -38.0514 -38.0041 -37.9015 -37.8545 -37.8271 -37.7901
    15.6718  16.1301  16.5794  16.9145  18.0484  18.4062  18.9249  20.3602
    20.4675  20.7355  23.0655  24.5076  29.4896

     occupation numbers 
     1.0000   1.0000   1.0000   1.0000   1.0000   1.0000   1.0000   1.0000
     1.0000   1.0000   1.0000   1.0000   1.0000   1.0000   1.0000   0.0000
     0.0000   0.0000   0.0000   0.0000   0.0000

          k = 0.1667 0.5774 0.1998 (  2753 PWs)   bands (ev):

   -74.5339 -74.5265 -38.0614 -38.0339 -37.8918 -37.8476 -37.8146 -37.7789
    15.6072  16.0370  16.8233  17.1734  17.8161  18.5594  19.2419  19.8757
    20.5059  20.7870  23.1726  24.1282  28.4716

     occupation numbers 
     1.0000   1.0000   1.0000   1.0000   1.0000   1.0000   1.0000   1.0000
     1.0000   1.0000   1.0000   1.0000   1.0000   1.0000   1.0000   0.0000
     0.0000   0.0000   0.0000   0.0000   0.0000

          k = 0.1667 0.5774-0.2998 (  2754 PWs)   bands (ev):

   -74.5302 -74.5302 -38.0565 -38.0565 -37.8710 -37.8710 -37.7865 -37.7865
    15.7599  15.7599  17.1197  17.1197  18.1791  18.1791  19.5494  19.5494
    20.6526  20.6526  23.5719  23.5719  28.1277

     occupation numbers 
     1.0000   1.0000   1.0000   1.0000   1.0000   1.0000   1.0000   1.0000
     1.0000   1.0000   1.0000   1.0000   1.0000   1.0000   0.0000   0.0000
     0.0000   0.0000   0.0000   0.0000   0.0000

          k = 0.2500 0.4330 0.0000 (  2752 PWs)   bands (ev):

   -74.5433 -74.5229 -37.9998 -37.9767 -37.9134 -37.8781 -37.8290 -37.7917
    15.4693  16.2988  16.6073  16.6814  17.9735  18.4476  18.6823  19.8027
    20.5502  20.7225  22.1505  27.7343  28.7822

     occupation numbers 
     1.0000   1.0000   1.0000   1.0000   1.0000   1.0000   1.0000   1.0000
     1.0000   1.0000   1.0000   1.0000   1.0000   1.0000   1.0000   0.0000
     0.0000   0.0000   0.0000   0.0000   0.0000

          k = 0.2500 0.4330 0.0999 (  2756 PWs)   bands (ev):

   -74.5419 -74.5243 -38.0033 -37.9995 -37.8871 -37.8863 -37.8298 -37.7825
    15.5317  16.2158  16.6728  16.8609  18.0092  18.2446  18.7226  19.8765
    20.3129  20.8065  22.2440  26.1487  29.0580

     occupation numbers 
     1.0000   1.0000   1.0000   1.0000   1.0000   1.0000   1.0000   1.0000
     1.0000   1.0000   1.0000   1.0000   1.0000   1.0000   1.0000   0.0000
     0.0000   0.0000   0.0000   0.0000   0.0000

          k = 0.2500 0.4330 0.1998 (  2763 PWs)   bands (ev):

   -74.5382 -74.5280 -38.0227 -38.0151 -37.8921 -37.8701 -37.8136 -37.7746
    15.6922  16.0734  16.8897  17.2059  17.8403  17.9682  18.8529  19.6979
    20.2945  20.9063  22.4708  24.2858  29.8088

     occupation numbers 
     1.0000   1.0000   1.0000   1.0000   1.0000   1.0000   1.0000   1.0000
     1.0000   1.0000   1.0000   1.0000   1.0000   1.0000   1.0000   0.0000
     0.0000   0.0000   0.0000   0.0000   0.0000

          k = 0.2500 0.4330-0.2998 (  2756 PWs)   bands (ev):

   -74.5331 -74.5331 -38.0265 -38.0265 -37.8821 -37.8821 -37.7855 -37.7855
    15.8919  15.8919  17.2288  17.2288  17.7444  17.7444  19.1834  19.1834
    20.7458  20.7458  23.0245  23.0245  30.7864

     occupation numbers 
     1.0000   1.0000   1.0000   1.0000   1.0000   1.0000   1.0000   1.0000
     1.0000   1.0000   1.0000   1.0000   1.0000   1.0000   1.0000   1.0000
     0.0000   0.0000   0.0000   0.0000   0.0000

          k = 0.2500 0.5292 0.0000 (  2769 PWs)   bands (ev):

   -74.5338 -74.5234 -38.0141 -37.9677 -37.9166 -37.8798 -37.8575 -37.8173
    16.1684  16.2931  16.4545  16.7927  17.9686  18.1640  18.8916  20.1518
    20.5025  20.6161  23.5194  25.8820  28.0737

     occupation numbers 
     1.0000   1.0000   1.0000   1.0000   1.0000   1.0000   1.0000   1.0000
     1.0000   1.0000   1.0000   1.0000   1.0000   1.0000   1.0000   0.0000
     0.0000   0.0000   0.0000   0.0000   0.0000

          k = 0.2500 0.5292 0.0999 (  2764 PWs)   bands (ev):

   -74.5331 -74.5241 -38.0180 -37.9852 -37.9293 -37.8724 -37.8461 -37.8017
    16.0787  16.4524  16.5331  16.8432  17.9347  18.0587  18.9281  20.1916
    20.2650  20.6799  23.6711  25.8220  28.0783

     occupation numbers 
     1.0000   1.0000   1.0000   1.0000   1.0000   1.0000   1.0000   1.0000
     1.0000   1.0000   1.0000   1.0000   1.0000   1.0000   1.0000   0.0000
     0.0000   0.0000   0.0000   0.0000   0.0000

          k = 0.2500 0.5292 0.1998 (  2749 PWs)   bands (ev):

   -74.5312 -74.5260 -38.0282 -38.0122 -37.9305 -37.8905 -37.8078 -37.7831
    16.0865  16.3867  16.8147  17.1813  17.6454  17.9320  19.0375  19.7086
    20.4065  20.7491  24.0389  25.3749  28.0921

     occupation numbers 
     1.0000   1.0000   1.0000   1.0000   1.0000   1.0000   1.0000   1.0000
     1.0000   1.0000   1.0000   1.0000   1.0000   1.0000   1.0000   0.0000
     0.0000   0.0000   0.0000   0.0000   0.0000

          k = 0.2500 0.5292-0.2998 (  2736 PWs)   bands (ev):

   -74.5286 -74.5286 -38.0290 -38.0290 -37.9132 -37.9132 -37.7838 -37.7838
    16.2122  16.2122  17.2062  17.2062  17.6484  17.6484  19.2677  19.2677
    20.6473  20.6473  24.6204  24.6204  28.6335

     occupation numbers 
     1.0000   1.0000   1.0000   1.0000   1.0000   1.0000   1.0000   1.0000
     1.0000   1.0000   1.0000   1.0000   1.0000   1.0000   1.0000   1.0000
     0.0000   0.0000   0.0000   0.0000   0.0000

          k = 0.3333 0.5774 0.0000 (  2778 PWs)   bands (ev):

   -74.5270 -74.5270 -37.9971 -37.9465 -37.9465 -37.8926 -37.8471 -37.8471
    16.3491  16.5147  16.5147  16.6727  17.9870  17.9870  19.0040  20.3402
    20.3402  20.4588  25.0274  25.9061  25.9061

     occupation numbers 
     1.0000   1.0000   1.0000   1.0000   1.0000   1.0000   1.0000   1.0000
     1.0000   1.0000   1.0000   1.0000   1.0000   1.0000   1.0000   0.0000
     0.0000   0.0000   0.0000   0.0000   0.0000

          k = 0.3333 0.5774 0.0999 (  2766 PWs)   bands (ev):

   -74.5269 -74.5269 -37.9902 -37.9681 -37.9681 -37.8996 -37.8253 -37.8253
    16.4220  16.5773  16.5773  16.7003  17.8973  17.8973  18.9922  20.1975
    20.4082  20.4082  25.4264  25.9373  25.9373

     occupation numbers 
     1.0000   1.0000   1.0000   1.0000   1.0000   1.0000   1.0000   1.0000
     1.0000   1.0000   1.0000   1.0000   1.0000   1.0000   1.0000   0.0000
     0.0000   0.0000   0.0000   0.0000   0.0000

          k = 0.3333 0.5774 0.1998 (  2739 PWs)   bands (ev):

   -74.5269 -74.5269 -37.9982 -37.9982 -37.9711 -37.9188 -37.7948 -37.7948
    16.5918  16.7265  16.7265  16.7490  17.7029  17.7029  19.0145  19.6617
    20.5364  20.5364  26.0141  26.0141  26.4148

     occupation numbers 
     1.0000   1.0000   1.0000   1.0000   1.0000   1.0000   1.0000   1.0000
     1.0000   1.0000   1.0000   1.0000   1.0000   1.0000   1.0000   0.0000
     0.0000   0.0000   0.0000   0.0000   0.0000

          k = 0.3333 0.5774-0.2998 (  2730 PWs)   bands (ev):

   -74.5269 -74.5269 -38.0103 -38.0103 -37.9450 -37.9450 -37.7826 -37.7826
    16.7304  16.7304  16.8229  16.8229  17.5878  17.5878  19.2133  19.2133
    20.5973  20.5973  26.0622  26.0622  27.7333

     occupation numbers 
     1.0000   1.0000   1.0000   1.0000   1.0000   1.0000   1.0000   1.0000
     1.0000   1.0000   1.0000   1.0000   1.0000   1.0000   1.0000   1.0000
     0.0000   0.0000   0.0000   0.0000   0.0000

     the Fermi energy is    19.4452 ev

!    total energy              =    -753.45305160 Ry
     total all-electron energy =     -5573.809743 Ry
     estimated scf accuracy    <       0.00000009 Ry
     smearing contrib. (-TS)   =      -0.00002251 Ry
     internal energy E=F+TS    =    -753.45302910 Ry

     The total energy is F=E-TS. E is the sum of the following terms:
     one-electron contribution =    -275.79094509 Ry
     hartree contribution      =     162.45533700 Ry
     xc contribution           =     -61.44738774 Ry
     ewald contribution        =    -403.49285776 Ry
     one-center paw contrib.   =    -175.17717550 Ry
      -> PAW hartree energy AE =     222.25899695 Ry
      -> PAW hartree energy PS =    -221.20281198 Ry
      -> PAW xc energy AE      =    -117.68408324 Ry
      -> PAW xc energy PS      =      29.03931052 Ry
      -> total E_H with PAW    =     163.51152197 Ry
      -> total E_XC with PAW   =    -150.09216047 Ry

     total magnetization       =     3.25 Bohr mag/cell
     absolute magnetization    =     3.55 Bohr mag/cell

     convergence has been achieved in  13 iterations

     Writing all to output data dir ./out2/Co.save/
 
     init_run     :      0.37s CPU      0.50s WALL (       1 calls)
     electrons    :     27.24s CPU     28.72s WALL (       1 calls)

     Called by init_run:
     wfcinit      :      0.22s CPU      0.32s WALL (       1 calls)
     potinit      :      0.10s CPU      0.13s WALL (       1 calls)
     hinit0       :      0.03s CPU      0.03s WALL (       1 calls)

     Called by electrons:
     c_bands      :     23.31s CPU     24.39s WALL (      13 calls)
     sum_band     :      2.52s CPU      2.65s WALL (      13 calls)
     v_of_rho     :      0.04s CPU      0.04s WALL (      14 calls)
     v_h          :      0.00s CPU      0.00s WALL (      14 calls)
     v_xc         :      0.04s CPU      0.04s WALL (      14 calls)
     newd         :      0.06s CPU      0.07s WALL (      14 calls)
     PAW_pot      :      1.38s CPU      1.65s WALL (      14 calls)
     mix_rho      :      0.01s CPU      0.01s WALL (      13 calls)

     Called by c_bands:
     init_us_2    :      0.16s CPU      0.16s WALL (    3952 calls)
     init_us_2:cp :      0.15s CPU      0.15s WALL (    3952 calls)
     cegterg      :     22.35s CPU     23.20s WALL (    1976 calls)

     Called by sum_band:
     sum_band:wei :      0.02s CPU      0.02s WALL (      13 calls)
     sum_band:loo :      2.38s CPU      2.50s WALL (      13 calls)
     sum_band:buf :      0.01s CPU      0.02s WALL (    1976 calls)
     sum_band:ini :      0.09s CPU      0.08s WALL (    1976 calls)
     sum_band:cal :      0.18s CPU      0.18s WALL (    1976 calls)
     sum_band:bec :      0.01s CPU      0.02s WALL (    1976 calls)
     addusdens    :      0.10s CPU      0.11s WALL (      13 calls)
                                        0.00s GPU  (      13 calls)
     addusd:skk   :      0.00s CPU      0.00s WALL (      13 calls)
                                        0.00s GPU  (      13 calls)

     Called by *egterg:
     cdiaghg      :      5.82s CPU      5.93s WALL (   10553 calls)
     cegterg:over :      0.75s CPU      0.71s WALL (    8729 calls)
     cegterg:upda :      0.08s CPU      0.18s WALL (    8729 calls)
     cegterg:last :      0.30s CPU      0.33s WALL (    6034 calls)
     h_psi        :     14.37s CPU     15.03s WALL (   10705 calls)
     s_psi        :      0.31s CPU      0.27s WALL (   10705 calls)
     g_psi        :      0.05s CPU      0.06s WALL (    8729 calls)

     Called by h_psi:
     h_psi:calbec :      0.71s CPU      0.66s WALL (   10705 calls)
     vloc_psi     :     13.41s CPU     14.00s WALL (   10705 calls)
     add_vuspsi   :      0.20s CPU      0.30s WALL (   10705 calls)

     General routines
     calbec       :      0.88s CPU      0.82s WALL (   12681 calls)
     fft          :      0.02s CPU      0.03s WALL (     344 calls)
     ffts         :      0.00s CPU      0.00s WALL (      54 calls)
     fftw         :     14.52s CPU     14.92s WALL (  326060 calls)
     interpolate  :      0.00s CPU      0.00s WALL (      28 calls)
 
     Parallel routines

     PAW routines
     PAW_pot      :      1.38s CPU      1.65s WALL (      14 calls)
     PAW_symme    :      0.01s CPU      0.01s WALL (      26 calls)
 
     PWSCF        :     27.94s CPU     30.01s WALL

 
   This run was terminated on:   9:30:39  22Mar2024            

=------------------------------------------------------------------------------=
   JOB DONE.
=------------------------------------------------------------------------------=
