
     Program PWSCF v.7.2 starts on 22Mar2024 at  8:21:59 

     This program is part of the open-source Quantum ESPRESSO suite
     for quantum simulation of materials; please cite
         "P. Giannozzi et al., J. Phys.:Condens. Matter 21 395502 (2009);
         "P. Giannozzi et al., J. Phys.:Condens. Matter 29 465901 (2017);
         "P. Giannozzi et al., J. Chem. Phys. 152 154105 (2020);
          URL http://www.quantum-espresso.org", 
     in publications or presentations arising from this work. More details at
     http://www.quantum-espresso.org/quote

     Parallel version (MPI), running on    20 processors

     MPI processes distributed on     1 nodes
     352658 MiB available memory on the printing compute node when the environment starts
 
     Waiting for input...
     Reading input from standard input

     Current dimensions of program PWSCF are:
     Max number of different atomic species (ntypx) = 10
     Max number of k-points (npk) = 120000
     Max angular momentum in pseudopotentials (lmaxx) =  4
     file Co.pbe-spn-kjpaw_psl.0.3.1.UPF: wavefunction(s)  3P 3D renormalized
 
     R & G space division:  proc/nbgrp/npool/nimage =      20
     Subspace diagonalization in iterative solution of the eigenvalue problem:
     a serial algorithm will be used

 
     Parallelization info
     --------------------
     sticks:   dense  smooth     PW     G-vecs:    dense   smooth      PW
     Min          33      33      9                 1184     1149     183
     Max          35      34     10                 1192     1156     190
     Sum         685     673    199                23751    23055    3765
 
     Using Slab Decomposition
 


     bravais-lattice index     =            4
     lattice parameter (alat)  =       4.7243  a.u.
     unit-cell volume          =     147.5668 (a.u.)^3
     number of atoms/cell      =            2
     number of atomic types    =            1
     number of electrons       =        34.00
     number of Kohn-Sham states=           21
     kinetic-energy cutoff     =     110.0000  Ry
     charge density cutoff     =     450.0000  Ry
     scf convergence threshold =      1.0E-06
     mixing beta               =       0.7000
     number of iterations used =            8  plain     mixing
     Exchange-correlation= SLA  PW   PBX  PBC
                           (   1   4   3   4   0   0   0)

     celldm(1)=   4.724315  celldm(2)=   0.000000  celldm(3)=   1.616000
     celldm(4)=   0.000000  celldm(5)=   0.000000  celldm(6)=   0.000000

     crystal axes: (cart. coord. in units of alat)
               a(1) = (   1.000000   0.000000   0.000000 )  
               a(2) = (  -0.500000   0.866025   0.000000 )  
               a(3) = (   0.000000   0.000000   1.616000 )  

     reciprocal axes: (cart. coord. in units 2 pi/alat)
               b(1) = (  1.000000  0.577350  0.000000 )  
               b(2) = (  0.000000  1.154701  0.000000 )  
               b(3) = (  0.000000  0.000000  0.618812 )  


     PseudoPot. # 1 for Co read from file:
     /truba/home/amuhaymin/ZnS/pseudo/QE/Co.pbe-spn-kjpaw_psl.0.3.1.UPF
     MD5 check sum: b0a1ad65bf214e88c1f3d33b20c7d919
     Pseudo is Projector augmented-wave + core cor, Zval = 17.0
     Generated using &quot;atomic&quot; code by A. Dal Corso  v.6.2.2
     Shape of augmentation charge: PSQ
     Using radial grid of 1193 points,  6 beta functions with: 
                l(1) =   0
                l(2) =   0
                l(3) =   1
                l(4) =   1
                l(5) =   2
                l(6) =   2
     Q(r) pseudized with 0 coefficients 


     atomic species   valence    mass     pseudopotential
        Co            17.00    58.93300     Co( 1.00)

     Starting magnetic structure 
     atomic species   magnetization
        Co           0.294

     24 Sym. Ops., with inversion, found (12 have fractional translation)


                                    s                        frac. trans.

      isym =  1     identity                                     

 cryst.   s( 1) = (     1          0          0      )
                  (     0          1          0      )
                  (     0          0          1      )

 cart.    s( 1) = (  1.0000000  0.0000000  0.0000000 )
                  (  0.0000000  1.0000000  0.0000000 )
                  (  0.0000000  0.0000000  1.0000000 )


      isym =  2     180 deg rotation - cart. axis [0,0,1]        

 cryst.   s( 2) = (    -1          0          0      )    f =(  0.0000000 )
                  (     0         -1          0      )       (  0.0000000 )
                  (     0          0          1      )       ( -0.5000000 )

 cart.    s( 2) = ( -1.0000000  0.0000000  0.0000000 )    f =(  0.0000000 )
                  (  0.0000000 -1.0000000  0.0000000 )       (  0.0000000 )
                  (  0.0000000  0.0000000  1.0000000 )       ( -0.8080000 )


      isym =  3     180 deg rotation - cart. axis [0,1,0]        

 cryst.   s( 3) = (    -1          0          0      )    f =(  0.0000000 )
                  (     1          1          0      )       (  0.0000000 )
                  (     0          0         -1      )       ( -0.5000000 )

 cart.    s( 3) = ( -1.0000000  0.0000000  0.0000000 )    f =(  0.0000000 )
                  (  0.0000000  1.0000000  0.0000000 )       (  0.0000000 )
                  (  0.0000000  0.0000000 -1.0000000 )       ( -0.8080000 )


      isym =  4     180 deg rotation - cart. axis [1,0,0]        

 cryst.   s( 4) = (     1          0          0      )
                  (    -1         -1          0      )
                  (     0          0         -1      )

 cart.    s( 4) = (  1.0000000  0.0000000  0.0000000 )
                  (  0.0000000 -1.0000000  0.0000000 )
                  (  0.0000000  0.0000000 -1.0000000 )


      isym =  5      60 deg rotation - cryst. axis [0,0,1]       

 cryst.   s( 5) = (     1          1          0      )    f =(  0.0000000 )
                  (    -1          0          0      )       ( -0.0000000 )
                  (     0          0          1      )       ( -0.5000000 )

 cart.    s( 5) = (  0.5000000 -0.8660254  0.0000000 )    f =(  0.0000000 )
                  (  0.8660254  0.5000000  0.0000000 )       ( -0.0000000 )
                  (  0.0000000  0.0000000  1.0000000 )       ( -0.8080000 )


      isym =  6      60 deg rotation - cryst. axis [0,0,-1]      

 cryst.   s( 6) = (     0         -1          0      )    f =(  0.0000000 )
                  (     1          1          0      )       ( -0.0000000 )
                  (     0          0          1      )       ( -0.5000000 )

 cart.    s( 6) = (  0.5000000  0.8660254  0.0000000 )    f =(  0.0000000 )
                  ( -0.8660254  0.5000000  0.0000000 )       ( -0.0000000 )
                  (  0.0000000  0.0000000  1.0000000 )       ( -0.8080000 )


      isym =  7     120 deg rotation - cryst. axis [0,0,1]       

 cryst.   s( 7) = (     0          1          0      )
                  (    -1         -1          0      )
                  (     0          0          1      )

 cart.    s( 7) = ( -0.5000000 -0.8660254  0.0000000 )
                  (  0.8660254 -0.5000000  0.0000000 )
                  (  0.0000000  0.0000000  1.0000000 )


      isym =  8     120 deg rotation - cryst. axis [0,0,-1]      

 cryst.   s( 8) = (    -1         -1          0      )
                  (     1          0          0      )
                  (     0          0          1      )

 cart.    s( 8) = ( -0.5000000  0.8660254  0.0000000 )
                  ( -0.8660254 -0.5000000  0.0000000 )
                  (  0.0000000  0.0000000  1.0000000 )


      isym =  9     180 deg rotation - cryst. axis [1,-1,0]      

 cryst.   s( 9) = (     0         -1          0      )    f =(  0.0000000 )
                  (    -1          0          0      )       (  0.0000000 )
                  (     0          0         -1      )       ( -0.5000000 )

 cart.    s( 9) = (  0.5000000 -0.8660254  0.0000000 )    f =(  0.0000000 )
                  ( -0.8660254 -0.5000000  0.0000000 )       (  0.0000000 )
                  (  0.0000000  0.0000000 -1.0000000 )       ( -0.8080000 )


      isym = 10     180 deg rotation - cryst. axis [2,1,0]       

 cryst.   s(10) = (     1          1          0      )    f =(  0.0000000 )
                  (     0         -1          0      )       ( -0.0000000 )
                  (     0          0         -1      )       ( -0.5000000 )

 cart.    s(10) = (  0.5000000  0.8660254  0.0000000 )    f =(  0.0000000 )
                  (  0.8660254 -0.5000000  0.0000000 )       ( -0.0000000 )
                  (  0.0000000  0.0000000 -1.0000000 )       ( -0.8080000 )


      isym = 11     180 deg rotation - cryst. axis [0,1,0]       

 cryst.   s(11) = (    -1         -1          0      )
                  (     0          1          0      )
                  (     0          0         -1      )

 cart.    s(11) = ( -0.5000000 -0.8660254  0.0000000 )
                  ( -0.8660254  0.5000000  0.0000000 )
                  (  0.0000000  0.0000000 -1.0000000 )


      isym = 12     180 deg rotation - cryst. axis [1,1,0]       

 cryst.   s(12) = (     0          1          0      )
                  (     1          0          0      )
                  (     0          0         -1      )

 cart.    s(12) = ( -0.5000000  0.8660254  0.0000000 )
                  (  0.8660254  0.5000000  0.0000000 )
                  (  0.0000000  0.0000000 -1.0000000 )


      isym = 13     inversion                                    

 cryst.   s(13) = (    -1          0          0      )
                  (     0         -1          0      )
                  (     0          0         -1      )

 cart.    s(13) = ( -1.0000000  0.0000000  0.0000000 )
                  (  0.0000000 -1.0000000  0.0000000 )
                  (  0.0000000  0.0000000 -1.0000000 )


      isym = 14     inv. 180 deg rotation - cart. axis [0,0,1]   

 cryst.   s(14) = (     1          0          0      )    f =(  0.0000000 )
                  (     0          1          0      )       (  0.0000000 )
                  (     0          0         -1      )       ( -0.5000000 )

 cart.    s(14) = (  1.0000000  0.0000000  0.0000000 )    f =(  0.0000000 )
                  (  0.0000000  1.0000000  0.0000000 )       (  0.0000000 )
                  (  0.0000000  0.0000000 -1.0000000 )       ( -0.8080000 )


      isym = 15     inv. 180 deg rotation - cart. axis [0,1,0]   

 cryst.   s(15) = (     1          0          0      )    f =(  0.0000000 )
                  (    -1         -1          0      )       (  0.0000000 )
                  (     0          0          1      )       ( -0.5000000 )

 cart.    s(15) = (  1.0000000  0.0000000  0.0000000 )    f =(  0.0000000 )
                  (  0.0000000 -1.0000000  0.0000000 )       (  0.0000000 )
                  (  0.0000000  0.0000000  1.0000000 )       ( -0.8080000 )


      isym = 16     inv. 180 deg rotation - cart. axis [1,0,0]   

 cryst.   s(16) = (    -1          0          0      )
                  (     1          1          0      )
                  (     0          0          1      )

 cart.    s(16) = ( -1.0000000  0.0000000  0.0000000 )
                  (  0.0000000  1.0000000  0.0000000 )
                  (  0.0000000  0.0000000  1.0000000 )


      isym = 17     inv.  60 deg rotation - cryst. axis [0,0,1]  

 cryst.   s(17) = (    -1         -1          0      )    f =(  0.0000000 )
                  (     1          0          0      )       (  0.0000000 )
                  (     0          0         -1      )       ( -0.5000000 )

 cart.    s(17) = ( -0.5000000  0.8660254  0.0000000 )    f =(  0.0000000 )
                  ( -0.8660254 -0.5000000  0.0000000 )       (  0.0000000 )
                  (  0.0000000  0.0000000 -1.0000000 )       ( -0.8080000 )


      isym = 18     inv.  60 deg rotation - cryst. axis [0,0,-1] 

 cryst.   s(18) = (     0          1          0      )    f =(  0.0000000 )
                  (    -1         -1          0      )       ( -0.0000000 )
                  (     0          0         -1      )       ( -0.5000000 )

 cart.    s(18) = ( -0.5000000 -0.8660254  0.0000000 )    f =(  0.0000000 )
                  (  0.8660254 -0.5000000  0.0000000 )       ( -0.0000000 )
                  (  0.0000000  0.0000000 -1.0000000 )       ( -0.8080000 )


      isym = 19     inv. 120 deg rotation - cryst. axis [0,0,1]  

 cryst.   s(19) = (     0         -1          0      )
                  (     1          1          0      )
                  (     0          0         -1      )

 cart.    s(19) = (  0.5000000  0.8660254  0.0000000 )
                  ( -0.8660254  0.5000000  0.0000000 )
                  (  0.0000000  0.0000000 -1.0000000 )


      isym = 20     inv. 120 deg rotation - cryst. axis [0,0,-1] 

 cryst.   s(20) = (     1          1          0      )
                  (    -1          0          0      )
                  (     0          0         -1      )

 cart.    s(20) = (  0.5000000 -0.8660254  0.0000000 )
                  (  0.8660254  0.5000000  0.0000000 )
                  (  0.0000000  0.0000000 -1.0000000 )


      isym = 21     inv. 180 deg rotation - cryst. axis [1,-1,0] 

 cryst.   s(21) = (     0          1          0      )    f =(  0.0000000 )
                  (     1          0          0      )       ( -0.0000000 )
                  (     0          0          1      )       ( -0.5000000 )

 cart.    s(21) = ( -0.5000000  0.8660254  0.0000000 )    f =(  0.0000000 )
                  (  0.8660254  0.5000000  0.0000000 )       ( -0.0000000 )
                  (  0.0000000  0.0000000  1.0000000 )       ( -0.8080000 )


      isym = 22     inv. 180 deg rotation - cryst. axis [2,1,0]  

 cryst.   s(22) = (    -1         -1          0      )    f =(  0.0000000 )
                  (     0          1          0      )       ( -0.0000000 )
                  (     0          0          1      )       ( -0.5000000 )

 cart.    s(22) = ( -0.5000000 -0.8660254  0.0000000 )    f =(  0.0000000 )
                  ( -0.8660254  0.5000000  0.0000000 )       ( -0.0000000 )
                  (  0.0000000  0.0000000  1.0000000 )       ( -0.8080000 )


      isym = 23     inv. 180 deg rotation - cryst. axis [0,1,0]  

 cryst.   s(23) = (     1          1          0      )
                  (     0         -1          0      )
                  (     0          0          1      )

 cart.    s(23) = (  0.5000000  0.8660254  0.0000000 )
                  (  0.8660254 -0.5000000  0.0000000 )
                  (  0.0000000  0.0000000  1.0000000 )


      isym = 24     inv. 180 deg rotation - cryst. axis [1,1,0]  

 cryst.   s(24) = (     0         -1          0      )
                  (    -1          0          0      )
                  (     0          0          1      )

 cart.    s(24) = (  0.5000000 -0.8660254  0.0000000 )
                  ( -0.8660254 -0.5000000  0.0000000 )
                  (  0.0000000  0.0000000  1.0000000 )


     point group D_6h(6/mmm)
     there are 12 classes
     the character table:

       E     2C6   2C3   C2    3C2'  3C2'' i     2S3   2S6   s_h   3s_d  3s_v 
A_1g   1.00  1.00  1.00  1.00  1.00  1.00  1.00  1.00  1.00  1.00  1.00  1.00
A_2g   1.00  1.00  1.00  1.00 -1.00 -1.00  1.00  1.00  1.00  1.00 -1.00 -1.00
B_1g   1.00 -1.00  1.00 -1.00  1.00 -1.00  1.00 -1.00  1.00 -1.00  1.00 -1.00
B_2g   1.00 -1.00  1.00 -1.00 -1.00  1.00  1.00 -1.00  1.00 -1.00 -1.00  1.00
E_1g   2.00  1.00 -1.00 -2.00  0.00  0.00  2.00  1.00 -1.00 -2.00  0.00  0.00
E_2g   2.00 -1.00 -1.00  2.00  0.00  0.00  2.00 -1.00 -1.00  2.00  0.00  0.00
A_1u   1.00  1.00  1.00  1.00  1.00  1.00 -1.00 -1.00 -1.00 -1.00 -1.00 -1.00
A_2u   1.00  1.00  1.00  1.00 -1.00 -1.00 -1.00 -1.00 -1.00 -1.00  1.00  1.00
B_1u   1.00 -1.00  1.00 -1.00  1.00 -1.00 -1.00  1.00 -1.00  1.00 -1.00  1.00
B_2u   1.00 -1.00  1.00 -1.00 -1.00  1.00 -1.00  1.00 -1.00  1.00  1.00 -1.00
E_1u   2.00  1.00 -1.00 -2.00  0.00  0.00 -2.00 -1.00  1.00  2.00  0.00  0.00
E_2u   2.00 -1.00 -1.00  2.00  0.00  0.00 -2.00  1.00  1.00 -2.00  0.00  0.00

     the symmetry operations in each class and the name of the first element:

     E        1
          identity                                               
     2C6      5    6
           60 deg rotation - cryst. axis [0,0,1]                 
     2C3      7    8
          120 deg rotation - cryst. axis [0,0,1]                 
     C2       2
          180 deg rotation - cart. axis [0,0,1]                  
     3C2'     4   12   11
          180 deg rotation - cart. axis [1,0,0]                  
     3C2''    3    9   10
          180 deg rotation - cart. axis [0,1,0]                  
     i       13
          inversion                                              
     2S3     17   18
          inv.  60 deg rotation - cryst. axis [0,0,1]            
     2S6     19   20
          inv. 120 deg rotation - cryst. axis [0,0,1]            
     s_h     14
          inv. 180 deg rotation - cart. axis [0,0,1]             
     3s_d    16   24   23
          inv. 180 deg rotation - cart. axis [1,0,0]             
     3s_v    15   21   22
          inv. 180 deg rotation - cart. axis [0,1,0]             

   Cartesian axes

     site n.     atom                  positions (alat units)
         1           Co  tau(   1) = (  -0.0000000   0.5773503   0.4040000  )
         2           Co  tau(   2) = (   0.5000000   0.2886751   1.2120000  )

   Crystallographic axes

     site n.     atom                  positions (cryst. coord.)
         1           Co  tau(   1) = (  0.3333333  0.6666667  0.2500000  )
         2           Co  tau(   2) = (  0.6666667  0.3333333  0.7500000  )

     number of k points=    76  Gaussian smearing, width (Ry)=  0.0010
                       cart. coord. in units 2pi/alat
        k(    1) = (   0.0000000   0.0000000   0.0000000), wk =   0.0011574
        k(    2) = (   0.0000000   0.0000000   0.1031353), wk =   0.0023148
        k(    3) = (   0.0000000   0.0000000   0.2062706), wk =   0.0023148
        k(    4) = (   0.0000000   0.0000000  -0.3094059), wk =   0.0011574
        k(    5) = (   0.0000000   0.0962250   0.0000000), wk =   0.0069444
        k(    6) = (   0.0000000   0.0962250   0.1031353), wk =   0.0138889
        k(    7) = (   0.0000000   0.0962250   0.2062706), wk =   0.0138889
        k(    8) = (   0.0000000   0.0962250  -0.3094059), wk =   0.0069444
        k(    9) = (   0.0000000   0.1924501   0.0000000), wk =   0.0069444
        k(   10) = (   0.0000000   0.1924501   0.1031353), wk =   0.0138889
        k(   11) = (   0.0000000   0.1924501   0.2062706), wk =   0.0138889
        k(   12) = (   0.0000000   0.1924501  -0.3094059), wk =   0.0069444
        k(   13) = (   0.0000000   0.2886751   0.0000000), wk =   0.0069444
        k(   14) = (   0.0000000   0.2886751   0.1031353), wk =   0.0138889
        k(   15) = (   0.0000000   0.2886751   0.2062706), wk =   0.0138889
        k(   16) = (   0.0000000   0.2886751  -0.3094059), wk =   0.0069444
        k(   17) = (   0.0000000   0.3849002   0.0000000), wk =   0.0069444
        k(   18) = (   0.0000000   0.3849002   0.1031353), wk =   0.0138889
        k(   19) = (   0.0000000   0.3849002   0.2062706), wk =   0.0138889
        k(   20) = (   0.0000000   0.3849002  -0.3094059), wk =   0.0069444
        k(   21) = (   0.0000000   0.4811252   0.0000000), wk =   0.0069444
        k(   22) = (   0.0000000   0.4811252   0.1031353), wk =   0.0138889
        k(   23) = (   0.0000000   0.4811252   0.2062706), wk =   0.0138889
        k(   24) = (   0.0000000   0.4811252  -0.3094059), wk =   0.0069444
        k(   25) = (   0.0000000  -0.5773503   0.0000000), wk =   0.0034722
        k(   26) = (   0.0000000  -0.5773503   0.1031353), wk =   0.0069444
        k(   27) = (   0.0000000  -0.5773503   0.2062706), wk =   0.0069444
        k(   28) = (   0.0000000  -0.5773503  -0.3094059), wk =   0.0034722
        k(   29) = (   0.0833333   0.1443376   0.0000000), wk =   0.0069444
        k(   30) = (   0.0833333   0.1443376   0.1031353), wk =   0.0138889
        k(   31) = (   0.0833333   0.1443376   0.2062706), wk =   0.0138889
        k(   32) = (   0.0833333   0.1443376  -0.3094059), wk =   0.0069444
        k(   33) = (   0.0833333   0.2405626   0.0000000), wk =   0.0138889
        k(   34) = (   0.0833333   0.2405626   0.1031353), wk =   0.0277778
        k(   35) = (   0.0833333   0.2405626   0.2062706), wk =   0.0277778
        k(   36) = (   0.0833333   0.2405626  -0.3094059), wk =   0.0138889
        k(   37) = (   0.0833333   0.3367877   0.0000000), wk =   0.0138889
        k(   38) = (   0.0833333   0.3367877   0.1031353), wk =   0.0277778
        k(   39) = (   0.0833333   0.3367877   0.2062706), wk =   0.0277778
        k(   40) = (   0.0833333   0.3367877  -0.3094059), wk =   0.0138889
        k(   41) = (   0.0833333   0.4330127   0.0000000), wk =   0.0138889
        k(   42) = (   0.0833333   0.4330127   0.1031353), wk =   0.0277778
        k(   43) = (   0.0833333   0.4330127   0.2062706), wk =   0.0277778
        k(   44) = (   0.0833333   0.4330127  -0.3094059), wk =   0.0138889
        k(   45) = (   0.0833333   0.5292377   0.0000000), wk =   0.0138889
        k(   46) = (   0.0833333   0.5292377   0.1031353), wk =   0.0277778
        k(   47) = (   0.0833333   0.5292377   0.2062706), wk =   0.0277778
        k(   48) = (   0.0833333   0.5292377  -0.3094059), wk =   0.0138889
        k(   49) = (   0.1666667   0.2886751   0.0000000), wk =   0.0069444
        k(   50) = (   0.1666667   0.2886751   0.1031353), wk =   0.0138889
        k(   51) = (   0.1666667   0.2886751   0.2062706), wk =   0.0138889
        k(   52) = (   0.1666667   0.2886751  -0.3094059), wk =   0.0069444
        k(   53) = (   0.1666667   0.3849002   0.0000000), wk =   0.0138889
        k(   54) = (   0.1666667   0.3849002   0.1031353), wk =   0.0277778
        k(   55) = (   0.1666667   0.3849002   0.2062706), wk =   0.0277778
        k(   56) = (   0.1666667   0.3849002  -0.3094059), wk =   0.0138889
        k(   57) = (   0.1666667   0.4811252   0.0000000), wk =   0.0138889
        k(   58) = (   0.1666667   0.4811252   0.1031353), wk =   0.0277778
        k(   59) = (   0.1666667   0.4811252   0.2062706), wk =   0.0277778
        k(   60) = (   0.1666667   0.4811252  -0.3094059), wk =   0.0138889
        k(   61) = (   0.1666667   0.5773503   0.0000000), wk =   0.0069444
        k(   62) = (   0.1666667   0.5773503   0.1031353), wk =   0.0138889
        k(   63) = (   0.1666667   0.5773503   0.2062706), wk =   0.0138889
        k(   64) = (   0.1666667   0.5773503  -0.3094059), wk =   0.0069444
        k(   65) = (   0.2500000   0.4330127   0.0000000), wk =   0.0069444
        k(   66) = (   0.2500000   0.4330127   0.1031353), wk =   0.0138889
        k(   67) = (   0.2500000   0.4330127   0.2062706), wk =   0.0138889
        k(   68) = (   0.2500000   0.4330127  -0.3094059), wk =   0.0069444
        k(   69) = (   0.2500000   0.5292377   0.0000000), wk =   0.0138889
        k(   70) = (   0.2500000   0.5292377   0.1031353), wk =   0.0277778
        k(   71) = (   0.2500000   0.5292377   0.2062706), wk =   0.0277778
        k(   72) = (   0.2500000   0.5292377  -0.3094059), wk =   0.0138889
        k(   73) = (   0.3333333   0.5773503   0.0000000), wk =   0.0023148
        k(   74) = (   0.3333333   0.5773503   0.1031353), wk =   0.0046296
        k(   75) = (   0.3333333   0.5773503   0.2062706), wk =   0.0046296
        k(   76) = (   0.3333333   0.5773503  -0.3094059), wk =   0.0023148

                       cryst. coord.
        k(    1) = (   0.0000000   0.0000000   0.0000000), wk =   0.0011574
        k(    2) = (   0.0000000   0.0000000   0.1666667), wk =   0.0023148
        k(    3) = (   0.0000000   0.0000000   0.3333333), wk =   0.0023148
        k(    4) = (   0.0000000   0.0000000  -0.5000000), wk =   0.0011574
        k(    5) = (   0.0000000   0.0833333   0.0000000), wk =   0.0069444
        k(    6) = (   0.0000000   0.0833333   0.1666667), wk =   0.0138889
        k(    7) = (   0.0000000   0.0833333   0.3333333), wk =   0.0138889
        k(    8) = (   0.0000000   0.0833333  -0.5000000), wk =   0.0069444
        k(    9) = (   0.0000000   0.1666667   0.0000000), wk =   0.0069444
        k(   10) = (   0.0000000   0.1666667   0.1666667), wk =   0.0138889
        k(   11) = (   0.0000000   0.1666667   0.3333333), wk =   0.0138889
        k(   12) = (   0.0000000   0.1666667  -0.5000000), wk =   0.0069444
        k(   13) = (   0.0000000   0.2500000   0.0000000), wk =   0.0069444
        k(   14) = (   0.0000000   0.2500000   0.1666667), wk =   0.0138889
        k(   15) = (   0.0000000   0.2500000   0.3333333), wk =   0.0138889
        k(   16) = (   0.0000000   0.2500000  -0.5000000), wk =   0.0069444
        k(   17) = (   0.0000000   0.3333333   0.0000000), wk =   0.0069444
        k(   18) = (   0.0000000   0.3333333   0.1666667), wk =   0.0138889
        k(   19) = (   0.0000000   0.3333333   0.3333333), wk =   0.0138889
        k(   20) = (   0.0000000   0.3333333  -0.5000000), wk =   0.0069444
        k(   21) = (   0.0000000   0.4166667   0.0000000), wk =   0.0069444
        k(   22) = (   0.0000000   0.4166667   0.1666667), wk =   0.0138889
        k(   23) = (   0.0000000   0.4166667   0.3333333), wk =   0.0138889
        k(   24) = (   0.0000000   0.4166667  -0.5000000), wk =   0.0069444
        k(   25) = (   0.0000000  -0.5000000   0.0000000), wk =   0.0034722
        k(   26) = (   0.0000000  -0.5000000   0.1666667), wk =   0.0069444
        k(   27) = (   0.0000000  -0.5000000   0.3333333), wk =   0.0069444
        k(   28) = (   0.0000000  -0.5000000  -0.5000000), wk =   0.0034722
        k(   29) = (   0.0833333   0.0833333   0.0000000), wk =   0.0069444
        k(   30) = (   0.0833333   0.0833333   0.1666667), wk =   0.0138889
        k(   31) = (   0.0833333   0.0833333   0.3333333), wk =   0.0138889
        k(   32) = (   0.0833333   0.0833333  -0.5000000), wk =   0.0069444
        k(   33) = (   0.0833333   0.1666667   0.0000000), wk =   0.0138889
        k(   34) = (   0.0833333   0.1666667   0.1666667), wk =   0.0277778
        k(   35) = (   0.0833333   0.1666667   0.3333333), wk =   0.0277778
        k(   36) = (   0.0833333   0.1666667  -0.5000000), wk =   0.0138889
        k(   37) = (   0.0833333   0.2500000   0.0000000), wk =   0.0138889
        k(   38) = (   0.0833333   0.2500000   0.1666667), wk =   0.0277778
        k(   39) = (   0.0833333   0.2500000   0.3333333), wk =   0.0277778
        k(   40) = (   0.0833333   0.2500000  -0.5000000), wk =   0.0138889
        k(   41) = (   0.0833333   0.3333333   0.0000000), wk =   0.0138889
        k(   42) = (   0.0833333   0.3333333   0.1666667), wk =   0.0277778
        k(   43) = (   0.0833333   0.3333333   0.3333333), wk =   0.0277778
        k(   44) = (   0.0833333   0.3333333  -0.5000000), wk =   0.0138889
        k(   45) = (   0.0833333   0.4166667   0.0000000), wk =   0.0138889
        k(   46) = (   0.0833333   0.4166667   0.1666667), wk =   0.0277778
        k(   47) = (   0.0833333   0.4166667   0.3333333), wk =   0.0277778
        k(   48) = (   0.0833333   0.4166667  -0.5000000), wk =   0.0138889
        k(   49) = (   0.1666667   0.1666667   0.0000000), wk =   0.0069444
        k(   50) = (   0.1666667   0.1666667   0.1666667), wk =   0.0138889
        k(   51) = (   0.1666667   0.1666667   0.3333333), wk =   0.0138889
        k(   52) = (   0.1666667   0.1666667  -0.5000000), wk =   0.0069444
        k(   53) = (   0.1666667   0.2500000   0.0000000), wk =   0.0138889
        k(   54) = (   0.1666667   0.2500000   0.1666667), wk =   0.0277778
        k(   55) = (   0.1666667   0.2500000   0.3333333), wk =   0.0277778
        k(   56) = (   0.1666667   0.2500000  -0.5000000), wk =   0.0138889
        k(   57) = (   0.1666667   0.3333333   0.0000000), wk =   0.0138889
        k(   58) = (   0.1666667   0.3333333   0.1666667), wk =   0.0277778
        k(   59) = (   0.1666667   0.3333333   0.3333333), wk =   0.0277778
        k(   60) = (   0.1666667   0.3333333  -0.5000000), wk =   0.0138889
        k(   61) = (   0.1666667   0.4166667   0.0000000), wk =   0.0069444
        k(   62) = (   0.1666667   0.4166667   0.1666667), wk =   0.0138889
        k(   63) = (   0.1666667   0.4166667   0.3333333), wk =   0.0138889
        k(   64) = (   0.1666667   0.4166667  -0.5000000), wk =   0.0069444
        k(   65) = (   0.2500000   0.2500000   0.0000000), wk =   0.0069444
        k(   66) = (   0.2500000   0.2500000   0.1666667), wk =   0.0138889
        k(   67) = (   0.2500000   0.2500000   0.3333333), wk =   0.0138889
        k(   68) = (   0.2500000   0.2500000  -0.5000000), wk =   0.0069444
        k(   69) = (   0.2500000   0.3333333   0.0000000), wk =   0.0138889
        k(   70) = (   0.2500000   0.3333333   0.1666667), wk =   0.0277778
        k(   71) = (   0.2500000   0.3333333   0.3333333), wk =   0.0277778
        k(   72) = (   0.2500000   0.3333333  -0.5000000), wk =   0.0138889
        k(   73) = (   0.3333333   0.3333333   0.0000000), wk =   0.0023148
        k(   74) = (   0.3333333   0.3333333   0.1666667), wk =   0.0046296
        k(   75) = (   0.3333333   0.3333333   0.3333333), wk =   0.0046296
        k(   76) = (   0.3333333   0.3333333  -0.5000000), wk =   0.0023148

     Dense  grid:    23751 G-vectors     FFT dimensions: (  32,  32,  54)

     Smooth grid:    23055 G-vectors     FFT dimensions: (  32,  32,  54)

     Dynamical RAM for                 wfc:       0.05 MB

     Dynamical RAM for     wfc (w. buffer):       7.01 MB

     Dynamical RAM for           str. fact:       0.02 MB

     Dynamical RAM for           local pot:       0.00 MB

     Dynamical RAM for          nlocal pot:       0.08 MB

     Dynamical RAM for                qrad:       1.70 MB

     Dynamical RAM for          rho,v,vnew:       0.25 MB

     Dynamical RAM for               rhoin:       0.08 MB

     Dynamical RAM for            rho*nmix:       0.58 MB

     Dynamical RAM for           G-vectors:       0.08 MB

     Dynamical RAM for          h,s,v(r/c):       0.08 MB

     Dynamical RAM for          <psi|beta>:       0.01 MB

     Dynamical RAM for                 psi:       0.09 MB

     Dynamical RAM for                hpsi:       0.09 MB

     Dynamical RAM for                spsi:       0.09 MB

     Dynamical RAM for      wfcinit/wfcrot:       0.10 MB

     Dynamical RAM for           addusdens:       3.43 MB

     Estimated static dynamical RAM per process >       9.40 MB

     Estimated max dynamical RAM per process >      13.41 MB

     Estimated total dynamical RAM >     268.11 MB

     Check: negative core charge=   -0.000042
     Generating pointlists ...
     new r_m :   0.4096 (alat units)  1.9353 (a.u.) for type    1

     The initial density is read from file :
     ./out/Co.save/charge-density


     starting charge      34.0101, renormalised to      34.0000

     negative rho (up, down):  1.935E+00 1.544E+00
     Starting wfcs from file
     Checking if some PAW data can be deallocated... 

     total cpu time spent up to now is        0.6 secs

     Self-consistent Calculation

     iteration #  1     ecut=   110.00 Ry     beta= 0.70
     Davidson diagonalization with overlap

---- Real-time Memory Report at c_bands before calling an iterative solver
            55 MiB given to the printing process from OS
             0 MiB allocation reported by mallinfo(arena+hblkhd)
        352086 MiB available memory on the node where the printing process lives
------------------
     c_bands:  2 eigenvalues not converged
     c_bands:  4 eigenvalues not converged
     c_bands:  1 eigenvalues not converged
     c_bands:  4 eigenvalues not converged
     c_bands:  2 eigenvalues not converged
     c_bands:  1 eigenvalues not converged
     c_bands:  3 eigenvalues not converged
     c_bands:  5 eigenvalues not converged
     c_bands:  1 eigenvalues not converged
     c_bands:  1 eigenvalues not converged
     c_bands:  2 eigenvalues not converged
     c_bands:  3 eigenvalues not converged
     c_bands:  4 eigenvalues not converged
     c_bands:  3 eigenvalues not converged
     c_bands:  3 eigenvalues not converged
     c_bands:  4 eigenvalues not converged
     c_bands:  1 eigenvalues not converged
     c_bands:  2 eigenvalues not converged
     c_bands:  3 eigenvalues not converged
     c_bands:  1 eigenvalues not converged
     c_bands:  1 eigenvalues not converged
     ethr =  1.00E-05,  avg # of iterations = 28.7

     negative rho (up, down):  1.180E-01 5.812E-02

     total cpu time spent up to now is       12.5 secs

     total energy              =    -753.01878482 Ry
     estimated scf accuracy    <       1.77993566 Ry

     total magnetization       =     3.38 Bohr mag/cell
     absolute magnetization    =     3.67 Bohr mag/cell

     iteration #  2     ecut=   110.00 Ry     beta= 0.70
     Davidson diagonalization with overlap

---- Real-time Memory Report at c_bands before calling an iterative solver
            79 MiB given to the printing process from OS
             0 MiB allocation reported by mallinfo(arena+hblkhd)
        351868 MiB available memory on the node where the printing process lives
------------------
     ethr =  5.24E-03,  avg # of iterations =  2.2

     negative rho (up, down):  1.174E-02 3.517E-03

     total cpu time spent up to now is       13.9 secs

     total energy              =    -752.94979475 Ry
     estimated scf accuracy    <       0.89698595 Ry

     total magnetization       =     2.94 Bohr mag/cell
     absolute magnetization    =     3.24 Bohr mag/cell

     iteration #  3     ecut=   110.00 Ry     beta= 0.70
     Davidson diagonalization with overlap

---- Real-time Memory Report at c_bands before calling an iterative solver
            81 MiB given to the printing process from OS
             0 MiB allocation reported by mallinfo(arena+hblkhd)
        351854 MiB available memory on the node where the printing process lives
------------------
     ethr =  2.64E-03,  avg # of iterations =  2.2

     total cpu time spent up to now is       15.3 secs

     total energy              =    -753.44233134 Ry
     estimated scf accuracy    <       0.24117388 Ry

     total magnetization       =     3.32 Bohr mag/cell
     absolute magnetization    =     3.54 Bohr mag/cell

     iteration #  4     ecut=   110.00 Ry     beta= 0.70
     Davidson diagonalization with overlap

---- Real-time Memory Report at c_bands before calling an iterative solver
            82 MiB given to the printing process from OS
             0 MiB allocation reported by mallinfo(arena+hblkhd)
        351847 MiB available memory on the node where the printing process lives
------------------
     ethr =  7.09E-04,  avg # of iterations =  2.0

     total cpu time spent up to now is       16.6 secs

     total energy              =    -753.43098784 Ry
     estimated scf accuracy    <       0.05101395 Ry

     total magnetization       =     3.26 Bohr mag/cell
     absolute magnetization    =     3.56 Bohr mag/cell

     iteration #  5     ecut=   110.00 Ry     beta= 0.70
     Davidson diagonalization with overlap

---- Real-time Memory Report at c_bands before calling an iterative solver
            83 MiB given to the printing process from OS
             0 MiB allocation reported by mallinfo(arena+hblkhd)
        351836 MiB available memory on the node where the printing process lives
------------------
     ethr =  1.50E-04,  avg # of iterations =  4.2

     total cpu time spent up to now is       18.5 secs

     total energy              =    -753.45210782 Ry
     estimated scf accuracy    <       0.02012455 Ry

     total magnetization       =     3.28 Bohr mag/cell
     absolute magnetization    =     3.55 Bohr mag/cell

     iteration #  6     ecut=   110.00 Ry     beta= 0.70
     Davidson diagonalization with overlap

---- Real-time Memory Report at c_bands before calling an iterative solver
            84 MiB given to the printing process from OS
             0 MiB allocation reported by mallinfo(arena+hblkhd)
        351828 MiB available memory on the node where the printing process lives
------------------
     ethr =  5.92E-05,  avg # of iterations =  1.7

     total cpu time spent up to now is       19.7 secs

     total energy              =    -753.45314226 Ry
     estimated scf accuracy    <       0.00294758 Ry

     total magnetization       =     3.30 Bohr mag/cell
     absolute magnetization    =     3.60 Bohr mag/cell

     iteration #  7     ecut=   110.00 Ry     beta= 0.70
     Davidson diagonalization with overlap

---- Real-time Memory Report at c_bands before calling an iterative solver
            85 MiB given to the printing process from OS
             0 MiB allocation reported by mallinfo(arena+hblkhd)
        351820 MiB available memory on the node where the printing process lives
------------------
     ethr =  8.67E-06,  avg # of iterations =  5.2

     total cpu time spent up to now is       21.8 secs

     total energy              =    -753.45467895 Ry
     estimated scf accuracy    <       0.00029480 Ry

     total magnetization       =     3.31 Bohr mag/cell
     absolute magnetization    =     3.63 Bohr mag/cell

     iteration #  8     ecut=   110.00 Ry     beta= 0.70
     Davidson diagonalization with overlap

---- Real-time Memory Report at c_bands before calling an iterative solver
            85 MiB given to the printing process from OS
             0 MiB allocation reported by mallinfo(arena+hblkhd)
        351812 MiB available memory on the node where the printing process lives
------------------
     ethr =  8.67E-07,  avg # of iterations =  8.4

     total cpu time spent up to now is       24.4 secs

     total energy              =    -753.45501360 Ry
     estimated scf accuracy    <       0.00036183 Ry

     total magnetization       =     3.31 Bohr mag/cell
     absolute magnetization    =     3.63 Bohr mag/cell

     iteration #  9     ecut=   110.00 Ry     beta= 0.70
     Davidson diagonalization with overlap

---- Real-time Memory Report at c_bands before calling an iterative solver
            86 MiB given to the printing process from OS
             0 MiB allocation reported by mallinfo(arena+hblkhd)
        351806 MiB available memory on the node where the printing process lives
------------------
     ethr =  8.67E-07,  avg # of iterations =  1.9

     total cpu time spent up to now is       25.7 secs

     total energy              =    -753.45504620 Ry
     estimated scf accuracy    <       0.00003296 Ry

     total magnetization       =     3.32 Bohr mag/cell
     absolute magnetization    =     3.65 Bohr mag/cell

     iteration # 10     ecut=   110.00 Ry     beta= 0.70
     Davidson diagonalization with overlap

---- Real-time Memory Report at c_bands before calling an iterative solver
            86 MiB given to the printing process from OS
             0 MiB allocation reported by mallinfo(arena+hblkhd)
        351803 MiB available memory on the node where the printing process lives
------------------
     ethr =  9.69E-08,  avg # of iterations =  8.5

     total cpu time spent up to now is       28.3 secs

     total energy              =    -753.45507630 Ry
     estimated scf accuracy    <       0.00001780 Ry

     total magnetization       =     3.32 Bohr mag/cell
     absolute magnetization    =     3.65 Bohr mag/cell

     iteration # 11     ecut=   110.00 Ry     beta= 0.70
     Davidson diagonalization with overlap

---- Real-time Memory Report at c_bands before calling an iterative solver
            86 MiB given to the printing process from OS
             0 MiB allocation reported by mallinfo(arena+hblkhd)
        351799 MiB available memory on the node where the printing process lives
------------------
     ethr =  5.24E-08,  avg # of iterations =  2.2

     total cpu time spent up to now is       29.6 secs

     total energy              =    -753.45507856 Ry
     estimated scf accuracy    <       0.00000141 Ry

     total magnetization       =     3.32 Bohr mag/cell
     absolute magnetization    =     3.65 Bohr mag/cell

     iteration # 12     ecut=   110.00 Ry     beta= 0.70
     Davidson diagonalization with overlap

---- Real-time Memory Report at c_bands before calling an iterative solver
            86 MiB given to the printing process from OS
             0 MiB allocation reported by mallinfo(arena+hblkhd)
        351796 MiB available memory on the node where the printing process lives
------------------
     ethr =  4.14E-09,  avg # of iterations =  8.2

     total cpu time spent up to now is       32.2 secs

     total energy              =    -753.45507992 Ry
     estimated scf accuracy    <       0.00000143 Ry

     total magnetization       =     3.32 Bohr mag/cell
     absolute magnetization    =     3.65 Bohr mag/cell

     iteration # 13     ecut=   110.00 Ry     beta= 0.70
     Davidson diagonalization with overlap

---- Real-time Memory Report at c_bands before calling an iterative solver
            86 MiB given to the printing process from OS
             0 MiB allocation reported by mallinfo(arena+hblkhd)
        351795 MiB available memory on the node where the printing process lives
------------------
     ethr =  4.14E-09,  avg # of iterations =  2.0
 
     Magnetic moment per site  (integrated on atomic sphere of radius R)
     atom   1 (R=0.410)  charge= 15.5915  magn=  1.7365
     atom   2 (R=0.410)  charge= 15.5915  magn=  1.7365

     total cpu time spent up to now is       33.5 secs

     End of self-consistent calculation

 ------ SPIN UP ------------


          k = 0.0000 0.0000 0.0000 (  2863 PWs)   bands (ev):

   -77.6147 -77.5600 -41.0119 -40.7288 -40.7288 -40.6929 -40.6822 -40.6822
     9.5587  13.3529  15.8730  15.8988  15.8988  16.2093  16.2093  16.5410
    16.5410  17.6384  17.6384  18.2869  24.7477

     occupation numbers 
     1.0000   1.0000   1.0000   1.0000   1.0000   1.0000   1.0000   1.0000
     1.0000   1.0000   1.0000   1.0000   1.0000   1.0000   1.0000   1.0000
     1.0000   1.0000   1.0000   1.0000   0.0000

          k = 0.0000 0.0000 0.1031 (  2839 PWs)   bands (ev):

   -77.6111 -77.5637 -40.9908 -40.7256 -40.7256 -40.7146 -40.6853 -40.6853
     9.8347  13.2835  15.8025  15.8329  15.8329  16.1356  16.1356  16.7046
    16.7046  17.3271  17.6225  17.6225  26.2733

     occupation numbers 
     1.0000   1.0000   1.0000   1.0000   1.0000   1.0000   1.0000   1.0000
     1.0000   1.0000   1.0000   1.0000   1.0000   1.0000   1.0000   1.0000
     1.0000   1.0000   1.0000   1.0000   0.0000

          k = 0.0000 0.0000 0.2063 (  2870 PWs)   bands (ev):

   -77.6011 -77.5737 -40.9330 -40.7735 -40.7171 -40.7171 -40.6938 -40.6938
    10.6266  12.8453  15.6392  15.7772  15.7772  15.9731  15.9731  16.0085
    17.0255  17.0255  17.5357  17.5357  29.4879

     occupation numbers 
     1.0000   1.0000   1.0000   1.0000   1.0000   1.0000   1.0000   1.0000
     1.0000   1.0000   1.0000   1.0000   1.0000   1.0000   1.0000   1.0000
     1.0000   1.0000   1.0000   1.0000   0.0000

          k = 0.0000 0.0000-0.3094 (  2858 PWs)   bands (ev):

   -77.5874 -77.5874 -40.8535 -40.8535 -40.7055 -40.7055 -40.7055 -40.7055
    11.7813  11.7813  15.5600  15.5600  15.8288  15.8288  15.8288  15.8288
    17.3310  17.3310  17.3310  17.3310  33.3215

     occupation numbers 
     1.0000   1.0000   1.0000   1.0000   1.0000   1.0000   1.0000   1.0000
     1.0000   1.0000   1.0000   1.0000   1.0000   1.0000   1.0000   1.0000
     1.0000   1.0000   1.0000   1.0000   0.0000

          k = 0.0000 0.0962 0.0000 (  2853 PWs)   bands (ev):

   -77.6117 -77.5586 -41.0050 -40.7438 -40.7337 -40.6978 -40.6958 -40.6847
     9.7988  13.4965  15.6626  16.0111  16.0721  16.1632  16.3086  16.3886
    16.4708  16.8554  17.6682  19.3876  24.7882

     occupation numbers 
     1.0000   1.0000   1.0000   1.0000   1.0000   1.0000   1.0000   1.0000
     1.0000   1.0000   1.0000   1.0000   1.0000   1.0000   1.0000   1.0000
     1.0000   1.0000   1.0000   0.0000   0.0000

          k = 0.0000 0.0962 0.1031 (  2859 PWs)   bands (ev):

   -77.6081 -77.5622 -40.9851 -40.7403 -40.7304 -40.7229 -40.6947 -40.6880
    10.0707  13.4417  15.6601  15.8967  15.9282  15.9829  16.2288  16.5293
    16.6617  16.7516  17.6450  18.6038  26.3825

     occupation numbers 
     1.0000   1.0000   1.0000   1.0000   1.0000   1.0000   1.0000   1.0000
     1.0000   1.0000   1.0000   1.0000   1.0000   1.0000   1.0000   1.0000
     1.0000   1.0000   1.0000   0.0000   0.0000

          k = 0.0000 0.0962 0.2063 (  2869 PWs)   bands (ev):

   -77.5984 -77.5719 -40.9306 -40.7797 -40.7302 -40.7215 -40.7035 -40.6970
    10.8501  13.0322  15.5541  15.6163  15.7035  15.8657  16.0652  16.1387
    17.0008  17.0463  17.5418  17.8338  29.6408

     occupation numbers 
     1.0000   1.0000   1.0000   1.0000   1.0000   1.0000   1.0000   1.0000
     1.0000   1.0000   1.0000   1.0000   1.0000   1.0000   1.0000   1.0000
     1.0000   1.0000   1.0000   1.0000   0.0000

          k = 0.0000 0.0962-0.3094 (  2864 PWs)   bands (ev):

   -77.5852 -77.5852 -40.8555 -40.8555 -40.7168 -40.7168 -40.7092 -40.7092
    11.9864  11.9864  15.4112  15.4112  15.8468  15.8468  15.9190  15.9190
    17.3202  17.3202  17.4223  17.4223  33.4881

     occupation numbers 
     1.0000   1.0000   1.0000   1.0000   1.0000   1.0000   1.0000   1.0000
     1.0000   1.0000   1.0000   1.0000   1.0000   1.0000   1.0000   1.0000
     1.0000   1.0000   1.0000   1.0000   0.0000

          k = 0.0000 0.1925 0.0000 (  2857 PWs)   bands (ev):

   -77.6032 -77.5550 -40.9854 -40.7852 -40.7469 -40.7402 -40.7046 -40.6918
    10.4936  13.8519  15.3920  15.6750  15.9912  16.2976  16.3282  16.3727
    16.4968  16.5869  17.7319  20.9652  24.9303

     occupation numbers 
     1.0000   1.0000   1.0000   1.0000   1.0000   1.0000   1.0000   1.0000
     1.0000   1.0000   1.0000   1.0000   1.0000   1.0000   1.0000   1.0000
     1.0000   1.0000   1.0000   0.0000   0.0000

          k = 0.0000 0.1925 0.1031 (  2860 PWs)   bands (ev):

   -77.6000 -77.5582 -40.9694 -40.7800 -40.7572 -40.7433 -40.7090 -40.6955
    10.7497  13.8418  15.4024  15.4328  15.8736  16.1315  16.2569  16.4708
    16.6460  16.7416  17.6925  19.8265  26.7370

     occupation numbers 
     1.0000   1.0000   1.0000   1.0000   1.0000   1.0000   1.0000   1.0000
     1.0000   1.0000   1.0000   1.0000   1.0000   1.0000   1.0000   1.0000
     1.0000   1.0000   1.0000   0.0000   0.0000

          k = 0.0000 0.1925 0.2063 (  2861 PWs)   bands (ev):

   -77.5912 -77.5670 -40.9256 -40.8044 -40.7635 -40.7332 -40.7230 -40.7056
    11.4805  13.5168  15.0634  15.4858  15.5963  16.0786  16.0816  16.3207
    16.9756  17.1365  17.5549  18.4759  30.0973

     occupation numbers 
     1.0000   1.0000   1.0000   1.0000   1.0000   1.0000   1.0000   1.0000
     1.0000   1.0000   1.0000   1.0000   1.0000   1.0000   1.0000   1.0000
     1.0000   1.0000   1.0000   0.5237   0.0000

          k = 0.0000 0.1925-0.3094 (  2876 PWs)   bands (ev):

   -77.5791 -77.5791 -40.8653 -40.8653 -40.7431 -40.7431 -40.7194 -40.7194
    12.5393  12.5393  15.1799  15.1799  15.7928  15.7928  16.1594  16.1594
    17.3050  17.3050  17.6682  17.6682  33.9392

     occupation numbers 
     1.0000   1.0000   1.0000   1.0000   1.0000   1.0000   1.0000   1.0000
     1.0000   1.0000   1.0000   1.0000   1.0000   1.0000   1.0000   1.0000
     1.0000   1.0000   1.0000   1.0000   0.0000

          k = 0.0000 0.2887 0.0000 (  2862 PWs)   bands (ev):

   -77.5911 -77.5504 -40.9559 -40.8420 -40.7971 -40.7645 -40.7192 -40.7020
    11.5467  14.1395  14.9604  15.2242  15.8977  16.0893  16.3006  16.7881
    16.7948  16.9870  17.7922  22.7441  25.2046

     occupation numbers 
     1.0000   1.0000   1.0000   1.0000   1.0000   1.0000   1.0000   1.0000
     1.0000   1.0000   1.0000   1.0000   1.0000   1.0000   1.0000   1.0000
     1.0000   1.0000   1.0000   0.0000   0.0000

          k = 0.0000 0.2887 0.1031 (  2869 PWs)   bands (ev):

   -77.5884 -77.5532 -40.9489 -40.8323 -40.8106 -40.7604 -40.7226 -40.7062
    11.7606  14.1833  14.8168  15.2750  15.7470  16.1270  16.3046  16.8321
    16.9143  16.9418  17.7379  21.0986  27.3703

     occupation numbers 
     1.0000   1.0000   1.0000   1.0000   1.0000   1.0000   1.0000   1.0000
     1.0000   1.0000   1.0000   1.0000   1.0000   1.0000   1.0000   1.0000
     1.0000   1.0000   1.0000   0.0000   0.0000

          k = 0.0000 0.2887 0.2063 (  2876 PWs)   bands (ev):

   -77.5810 -77.5606 -40.9272 -40.8512 -40.7990 -40.7489 -40.7375 -40.7177
    12.3565  13.9506  14.7326  15.3108  15.6135  16.1464  16.2475  16.6817
    17.0945  17.2972  17.5803  19.2460  30.7142

     occupation numbers 
     1.0000   1.0000   1.0000   1.0000   1.0000   1.0000   1.0000   1.0000
     1.0000   1.0000   1.0000   1.0000   1.0000   1.0000   1.0000   1.0000
     1.0000   1.0000   1.0000   0.0000   0.0000

          k = 0.0000 0.2887-0.3094 (  2880 PWs)   bands (ev):

   -77.5708 -77.5708 -40.8922 -40.8922 -40.7654 -40.7654 -40.7333 -40.7333
    13.1820  13.1820  15.0276  15.0276  15.8497  15.8497  16.4468  16.4468
    17.3465  17.3465  18.0124  18.0124  32.7696

     occupation numbers 
     1.0000   1.0000   1.0000   1.0000   1.0000   1.0000   1.0000   1.0000
     1.0000   1.0000   1.0000   1.0000   1.0000   1.0000   1.0000   1.0000
     1.0000   1.0000   1.0000   1.0000   0.0000

          k = 0.0000 0.3849 0.0000 (  2862 PWs)   bands (ev):

   -77.5782 -77.5468 -40.9214 -40.8995 -40.8530 -40.7817 -40.7388 -40.7126
    12.7025  14.0772  14.4428  15.3259  15.9016  16.0176  16.1258  17.2780
    17.4209  17.4690  17.8335  24.6837  25.2608

     occupation numbers 
     1.0000   1.0000   1.0000   1.0000   1.0000   1.0000   1.0000   1.0000
     1.0000   1.0000   1.0000   1.0000   1.0000   1.0000   1.0000   1.0000
     1.0000   1.0000   1.0000   0.0000   0.0000

          k = 0.0000 0.3849 0.1031 (  2877 PWs)   bands (ev):

   -77.5761 -77.5489 -40.9406 -40.8763 -40.8570 -40.7771 -40.7389 -40.7172
    12.8046  14.1109  14.4732  15.1907  15.9347  15.9930  16.4647  17.2981
    17.3289  17.4061  17.7800  22.3321  27.3728

     occupation numbers 
     1.0000   1.0000   1.0000   1.0000   1.0000   1.0000   1.0000   1.0000
     1.0000   1.0000   1.0000   1.0000   1.0000   1.0000   1.0000   1.0000
     1.0000   1.0000   1.0000   0.0000   0.0000

          k = 0.0000 0.3849 0.2063 (  2870 PWs)   bands (ev):

   -77.5704 -77.5546 -40.9472 -40.9032 -40.8147 -40.7645 -40.7477 -40.7299
    13.0888  13.9330  14.6106  15.1167  16.0276  16.2509  16.7594  17.0186
    17.4020  17.5233  17.6620  20.1304  28.4529

     occupation numbers 
     1.0000   1.0000   1.0000   1.0000   1.0000   1.0000   1.0000   1.0000
     1.0000   1.0000   1.0000   1.0000   1.0000   1.0000   1.0000   1.0000
     1.0000   1.0000   1.0000   0.0000   0.0000

          k = 0.0000 0.3849-0.3094 (  2888 PWs)   bands (ev):

   -77.5625 -77.5625 -40.9328 -40.9328 -40.7737 -40.7737 -40.7472 -40.7472
    13.5003  13.5003  14.9043  14.9043  16.4369  16.4369  16.6234  16.6234
    17.5270  17.5270  18.4912  18.4912  29.5723

     occupation numbers 
     1.0000   1.0000   1.0000   1.0000   1.0000   1.0000   1.0000   1.0000
     1.0000   1.0000   1.0000   1.0000   1.0000   1.0000   1.0000   1.0000
     1.0000   1.0000   0.0637   0.0637   0.0000

          k = 0.0000 0.4811 0.0000 (  2884 PWs)   bands (ev):

   -77.5676 -77.5452 -40.9418 -40.8933 -40.8895 -40.7940 -40.7599 -40.7205
    13.4745  13.8925  14.1335  15.6750  15.7734  16.0022  16.2178  17.6440
    17.7802  17.8556  18.5648  23.4146  26.6869

     occupation numbers 
     1.0000   1.0000   1.0000   1.0000   1.0000   1.0000   1.0000   1.0000
     1.0000   1.0000   1.0000   1.0000   1.0000   1.0000   1.0000   1.0000
     1.0000   1.0000   0.0000   0.0000   0.0000

          k = 0.0000 0.4811 0.1031 (  2889 PWs)   bands (ev):

   -77.5661 -77.5467 -40.9602 -40.9105 -40.8577 -40.7891 -40.7560 -40.7254
    13.3710  13.8917  14.4393  15.0879  15.8853  16.2149  16.8115  17.5872
    17.6800  17.8525  18.4074  22.6501  25.9737

     occupation numbers 
     1.0000   1.0000   1.0000   1.0000   1.0000   1.0000   1.0000   1.0000
     1.0000   1.0000   1.0000   1.0000   1.0000   1.0000   1.0000   1.0000
     1.0000   1.0000   1.0000   0.0000   0.0000

          k = 0.0000 0.4811 0.2063 (  2874 PWs)   bands (ev):

   -77.5620 -77.5508 -40.9744 -40.9419 -40.8114 -40.7757 -40.7565 -40.7389
    13.3439  13.8202  14.5978  14.9260  16.2030  16.4530  17.1817  17.7096
    17.7593  17.8168  18.0974  20.9529  26.0981

     occupation numbers 
     1.0000   1.0000   1.0000   1.0000   1.0000   1.0000   1.0000   1.0000
     1.0000   1.0000   1.0000   1.0000   1.0000   1.0000   1.0000   1.0000
     1.0000   1.0000   1.0000   0.0000   0.0000

          k = 0.0000 0.4811-0.3094 (  2878 PWs)   bands (ev):

   -77.5564 -77.5564 -40.9673 -40.9673 -40.7747 -40.7747 -40.7574 -40.7574
    13.5292  13.5292  14.7854  14.7854  16.6692  16.6692  17.1535  17.1535
    17.7634  17.7634  19.3129  19.3129  26.8766

     occupation numbers 
     1.0000   1.0000   1.0000   1.0000   1.0000   1.0000   1.0000   1.0000
     1.0000   1.0000   1.0000   1.0000   1.0000   1.0000   1.0000   1.0000
     1.0000   1.0000   0.0000   0.0000   0.0000

          k = 0.0000-0.5774 0.0000 (  2886 PWs)   bands (ev):

   -77.5632 -77.5452 -40.9573 -40.9080 -40.8746 -40.7985 -40.7708 -40.7234
    13.7448  13.7464  14.0308  15.7281  15.9186  15.9576  16.2932  17.7763
    17.8623  17.9257  19.7096  21.6971  27.9852

     occupation numbers 
     1.0000   1.0000   1.0000   1.0000   1.0000   1.0000   1.0000   1.0000
     1.0000   1.0000   1.0000   1.0000   1.0000   1.0000   1.0000   1.0000
     1.0000   1.0000   0.0000   0.0000   0.0000

          k = 0.0000-0.5774 0.1031 (  2880 PWs)   bands (ev):

   -77.5620 -77.5464 -40.9721 -40.9243 -40.8495 -40.7935 -40.7647 -40.7285
    13.4763  13.7966  14.4747  15.0604  15.8459  16.3017  17.0084  17.6501
    17.8243  17.9180  19.5065  21.5257  27.1037

     occupation numbers 
     1.0000   1.0000   1.0000   1.0000   1.0000   1.0000   1.0000   1.0000
     1.0000   1.0000   1.0000   1.0000   1.0000   1.0000   1.0000   1.0000
     1.0000   1.0000   0.0000   0.0000   0.0000

          k = 0.0000-0.5774 0.2063 (  2884 PWs)   bands (ev):

   -77.5587 -77.5497 -40.9862 -40.9561 -40.8072 -40.7798 -40.7608 -40.7423
    13.3666  13.7761  14.6224  14.8388  16.1806  16.5955  17.2168  17.8390
    17.8744  17.8967  19.1931  20.9432  26.0329

     occupation numbers 
     1.0000   1.0000   1.0000   1.0000   1.0000   1.0000   1.0000   1.0000
     1.0000   1.0000   1.0000   1.0000   1.0000   1.0000   1.0000   1.0000
     1.0000   1.0000   0.0000   0.0000   0.0000

          k = 0.0000-0.5774-0.3094 (  2892 PWs)   bands (ev):

   -77.5542 -77.5542 -40.9806 -40.9806 -40.7744 -40.7744 -40.7611 -40.7611
    13.5137  13.5137  14.7385  14.7385  16.6734  16.6734  17.3936  17.3936
    17.8676  17.8676  19.9597  19.9597  25.6280

     occupation numbers 
     1.0000   1.0000   1.0000   1.0000   1.0000   1.0000   1.0000   1.0000
     1.0000   1.0000   1.0000   1.0000   1.0000   1.0000   1.0000   1.0000
     1.0000   1.0000   0.0000   0.0000   0.0000

          k = 0.0833 0.1443 0.0000 (  2858 PWs)   bands (ev):

   -77.6059 -77.5561 -40.9918 -40.7695 -40.7490 -40.7212 -40.7017 -40.6915
    10.2671  13.7516  15.4499  15.9178  16.0589  16.2261  16.2404  16.2700
    16.5275  16.6150  17.7053  20.5229  24.8815

     occupation numbers 
     1.0000   1.0000   1.0000   1.0000   1.0000   1.0000   1.0000   1.0000
     1.0000   1.0000   1.0000   1.0000   1.0000   1.0000   1.0000   1.0000
     1.0000   1.0000   1.0000   0.0000   0.0000

          k = 0.0833 0.1443 0.1031 (  2856 PWs)   bands (ev):

   -77.6026 -77.5594 -40.9744 -40.7647 -40.7514 -40.7354 -40.7041 -40.6950
    10.5291  13.7271  15.4752  15.5879  15.9167  16.0935  16.2320  16.3885
    16.6718  16.7248  17.6738  19.4948  26.6163

     occupation numbers 
     1.0000   1.0000   1.0000   1.0000   1.0000   1.0000   1.0000   1.0000
     1.0000   1.0000   1.0000   1.0000   1.0000   1.0000   1.0000   1.0000
     1.0000   1.0000   1.0000   0.0000   0.0000

          k = 0.0833 0.1443 0.2063 (  2863 PWs)   bands (ev):

   -77.5935 -77.5686 -40.9268 -40.7953 -40.7519 -40.7331 -40.7144 -40.7045
    11.2788  13.3743  15.1861  15.5330  15.6076  16.0188  16.0919  16.2411
    17.0046  17.0815  17.5543  18.2898  29.9483

     occupation numbers 
     1.0000   1.0000   1.0000   1.0000   1.0000   1.0000   1.0000   1.0000
     1.0000   1.0000   1.0000   1.0000   1.0000   1.0000   1.0000   1.0000
     1.0000   1.0000   1.0000   1.0000   0.0000

          k = 0.0833 0.1443-0.3094 (  2866 PWs)   bands (ev):

   -77.5810 -77.5810 -40.8612 -40.8612 -40.7353 -40.7353 -40.7166 -40.7166
    12.3689  12.3689  15.2382  15.2382  15.7932  15.7932  16.0964  16.0964
    17.3104  17.3104  17.5914  17.5914  33.8084

     occupation numbers 
     1.0000   1.0000   1.0000   1.0000   1.0000   1.0000   1.0000   1.0000
     1.0000   1.0000   1.0000   1.0000   1.0000   1.0000   1.0000   1.0000
     1.0000   1.0000   1.0000   1.0000   0.0000

          k = 0.0833 0.2406 0.0000 (  2864 PWs)   bands (ev):

   -77.5956 -77.5520 -40.9672 -40.8149 -40.7868 -40.7492 -40.7134 -40.7031
    11.1492  14.1163  15.1803  15.2228  15.9389  16.0485  16.4650  16.4782
    16.6583  16.9375  17.7510  22.1021  25.1109

     occupation numbers 
     1.0000   1.0000   1.0000   1.0000   1.0000   1.0000   1.0000   1.0000
     1.0000   1.0000   1.0000   1.0000   1.0000   1.0000   1.0000   1.0000
     1.0000   1.0000   1.0000   0.0000   0.0000

          k = 0.0833 0.2406 0.1031 (  2865 PWs)   bands (ev):

   -77.5927 -77.5549 -40.9558 -40.8080 -40.7949 -40.7535 -40.7159 -40.7067
    11.3843  14.1508  15.0130  15.2291  15.8179  16.0777  16.2779  16.5955
    16.8512  16.9204  17.7137  20.6603  27.1322

     occupation numbers 
     1.0000   1.0000   1.0000   1.0000   1.0000   1.0000   1.0000   1.0000
     1.0000   1.0000   1.0000   1.0000   1.0000   1.0000   1.0000   1.0000
     1.0000   1.0000   1.0000   0.0000   0.0000

          k = 0.0833 0.2406 0.2063 (  2862 PWs)   bands (ev):

   -77.5847 -77.5629 -40.9242 -40.8318 -40.7844 -40.7513 -40.7269 -40.7168
    12.0487  13.8896  14.8148  15.3326  15.5575  15.9759  16.2261  16.5544
    17.0935  17.2101  17.5937  18.9784  30.5469

     occupation numbers 
     1.0000   1.0000   1.0000   1.0000   1.0000   1.0000   1.0000   1.0000
     1.0000   1.0000   1.0000   1.0000   1.0000   1.0000   1.0000   1.0000
     1.0000   1.0000   1.0000   0.0000   0.0000

          k = 0.0833 0.2406-0.3094 (  2884 PWs)   bands (ev):

   -77.5738 -77.5738 -40.8792 -40.8792 -40.7594 -40.7594 -40.7293 -40.7293
    12.9955  12.9955  15.0816  15.0816  15.6913  15.6913  16.3713  16.3713
    17.3539  17.3539  17.8889  17.8889  34.1341

     occupation numbers 
     1.0000   1.0000   1.0000   1.0000   1.0000   1.0000   1.0000   1.0000
     1.0000   1.0000   1.0000   1.0000   1.0000   1.0000   1.0000   1.0000
     1.0000   1.0000   1.0000   1.0000   0.0000

          k = 0.0833 0.3368 0.0000 (  2871 PWs)   bands (ev):

   -77.5831 -77.5480 -40.9349 -40.8707 -40.8343 -40.7746 -40.7308 -40.7157
    12.2893  14.2397  14.6556  15.1057  15.8629  15.9482  16.2721  16.8760
    17.1542  17.4941  17.7895  23.9238  25.4557

     occupation numbers 
     1.0000   1.0000   1.0000   1.0000   1.0000   1.0000   1.0000   1.0000
     1.0000   1.0000   1.0000   1.0000   1.0000   1.0000   1.0000   1.0000
     1.0000   1.0000   1.0000   0.0000   0.0000

          k = 0.0833 0.3368 0.1031 (  2870 PWs)   bands (ev):

   -77.5807 -77.5503 -40.9384 -40.8583 -40.8395 -40.7743 -40.7318 -40.7187
    12.4548  14.3063  14.5616  15.1545  15.7324  16.0882  16.2508  16.8985
    17.2438  17.3614  17.7951  21.9170  27.8526

     occupation numbers 
     1.0000   1.0000   1.0000   1.0000   1.0000   1.0000   1.0000   1.0000
     1.0000   1.0000   1.0000   1.0000   1.0000   1.0000   1.0000   1.0000
     1.0000   1.0000   1.0000   0.0000   0.0000

          k = 0.0833 0.3368 0.2063 (  2872 PWs)   bands (ev):

   -77.5743 -77.5568 -40.9339 -40.8808 -40.8094 -40.7679 -40.7414 -40.7280
    12.9026  14.0711  14.6635  15.2327  15.6427  16.1138  16.2998  16.8797
    17.3187  17.4791  17.7597  19.8309  30.0862

     occupation numbers 
     1.0000   1.0000   1.0000   1.0000   1.0000   1.0000   1.0000   1.0000
     1.0000   1.0000   1.0000   1.0000   1.0000   1.0000   1.0000   1.0000
     1.0000   1.0000   1.0000   0.0000   0.0000

          k = 0.0833 0.3368-0.3094 (  2876 PWs)   bands (ev):

   -77.5655 -77.5655 -40.9129 -40.9129 -40.7753 -40.7753 -40.7426 -40.7426
    13.4996  13.4996  15.0044  15.0044  15.8587  15.8587  16.5648  16.5648
    17.5482  17.5482  18.3450  18.3450  31.2761

     occupation numbers 
     1.0000   1.0000   1.0000   1.0000   1.0000   1.0000   1.0000   1.0000
     1.0000   1.0000   1.0000   1.0000   1.0000   1.0000   1.0000   1.0000
     1.0000   1.0000   1.0000   1.0000   0.0000

          k = 0.0833 0.4330 0.0000 (  2878 PWs)   bands (ev):

   -77.5712 -77.5455 -40.9202 -40.9007 -40.8761 -40.7945 -40.7521 -40.7265
    13.3022  14.0703  14.2720  15.3259  15.7434  16.0803  16.1369  17.3757
    17.5776  17.8133  18.2798  24.7483  25.9035

     occupation numbers 
     1.0000   1.0000   1.0000   1.0000   1.0000   1.0000   1.0000   1.0000
     1.0000   1.0000   1.0000   1.0000   1.0000   1.0000   1.0000   1.0000
     1.0000   1.0000   1.0000   0.0000   0.0000

          k = 0.0833 0.4330 0.1031 (  2876 PWs)   bands (ev):

   -77.5694 -77.5472 -40.9448 -40.8953 -40.8592 -40.7912 -40.7502 -40.7294
    13.3001  14.0960  14.4176  15.0966  15.8209  16.1493  16.4213  17.3245
    17.6318  17.6385  18.2812  22.9830  26.4867

     occupation numbers 
     1.0000   1.0000   1.0000   1.0000   1.0000   1.0000   1.0000   1.0000
     1.0000   1.0000   1.0000   1.0000   1.0000   1.0000   1.0000   1.0000
     1.0000   1.0000   1.0000   0.0000   0.0000

          k = 0.0833 0.4330 0.2063 (  2872 PWs)   bands (ev):

   -77.5647 -77.5519 -40.9582 -40.9241 -40.8158 -40.7793 -40.7560 -40.7366
    13.3890  13.9680  14.6012  15.0759  15.9274  16.3489  16.7965  17.0702
    17.4991  17.7989  18.3473  20.8439  27.1927

     occupation numbers 
     1.0000   1.0000   1.0000   1.0000   1.0000   1.0000   1.0000   1.0000
     1.0000   1.0000   1.0000   1.0000   1.0000   1.0000   1.0000   1.0000
     1.0000   1.0000   1.0000   0.0000   0.0000

          k = 0.0833 0.4330-0.3094 (  2868 PWs)   bands (ev):

   -77.5583 -77.5583 -40.9497 -40.9497 -40.7837 -40.7837 -40.7516 -40.7516
    13.6360  13.6360  14.8916  14.8916  16.3618  16.3618  16.7439  16.7439
    17.7502  17.7502  19.1802  19.1802  28.2353

     occupation numbers 
     1.0000   1.0000   1.0000   1.0000   1.0000   1.0000   1.0000   1.0000
     1.0000   1.0000   1.0000   1.0000   1.0000   1.0000   1.0000   1.0000
     1.0000   1.0000   0.0000   0.0000   0.0000

          k = 0.0833 0.5292 0.0000 (  2882 PWs)   bands (ev):

   -77.5632 -77.5452 -40.9489 -40.9003 -40.8747 -40.8054 -40.7706 -40.7328
    13.7636  13.9083  14.0802  15.6820  15.6970  15.9520  16.2904  17.7342
    17.8059  17.8238  19.5401  22.4577  27.7934

     occupation numbers 
     1.0000   1.0000   1.0000   1.0000   1.0000   1.0000   1.0000   1.0000
     1.0000   1.0000   1.0000   1.0000   1.0000   1.0000   1.0000   1.0000
     1.0000   1.0000   0.0000   0.0000   0.0000

          k = 0.0833 0.5292 0.1031 (  2881 PWs)   bands (ev):

   -77.5620 -77.5464 -40.9638 -40.9171 -40.8510 -40.7990 -40.7660 -40.7358
    13.5547  13.9256  14.5038  15.0418  15.7486  16.3406  16.6768  17.5987
    17.7635  17.8376  19.4757  22.2049  26.5135

     occupation numbers 
     1.0000   1.0000   1.0000   1.0000   1.0000   1.0000   1.0000   1.0000
     1.0000   1.0000   1.0000   1.0000   1.0000   1.0000   1.0000   1.0000
     1.0000   1.0000   0.0000   0.0000   0.0000

          k = 0.0833 0.5292 0.2063 (  2877 PWs)   bands (ev):

   -77.5587 -77.5497 -40.9780 -40.9487 -40.8154 -40.7803 -40.7682 -40.7419
    13.4683  13.9008  14.6296  14.9430  15.9205  16.6524  17.0647  17.3099
    17.7218  17.9128  19.5221  21.3665  25.7714

     occupation numbers 
     1.0000   1.0000   1.0000   1.0000   1.0000   1.0000   1.0000   1.0000
     1.0000   1.0000   1.0000   1.0000   1.0000   1.0000   1.0000   1.0000
     1.0000   1.0000   0.0000   0.0000   0.0000

          k = 0.0833 0.5292-0.3094 (  2876 PWs)   bands (ev):

   -77.5542 -77.5542 -40.9728 -40.9728 -40.7883 -40.7883 -40.7551 -40.7551
    13.6252  13.6252  14.8090  14.8090  16.4641  16.4641  17.1704  17.1704
    17.7906  17.7906  20.2554  20.2554  26.0433

     occupation numbers 
     1.0000   1.0000   1.0000   1.0000   1.0000   1.0000   1.0000   1.0000
     1.0000   1.0000   1.0000   1.0000   1.0000   1.0000   1.0000   1.0000
     1.0000   1.0000   0.0000   0.0000   0.0000

          k = 0.1667 0.2887 0.0000 (  2868 PWs)   bands (ev):

   -77.5848 -77.5484 -40.9396 -40.8479 -40.8388 -40.7663 -40.7281 -40.7234
    12.1434  14.4114  14.7679  14.8901  15.7933  15.9476  16.3648  16.6433
    17.1419  17.5150  17.7515  23.6668  25.4970

     occupation numbers 
     1.0000   1.0000   1.0000   1.0000   1.0000   1.0000   1.0000   1.0000
     1.0000   1.0000   1.0000   1.0000   1.0000   1.0000   1.0000   1.0000
     1.0000   1.0000   1.0000   0.0000   0.0000

          k = 0.1667 0.2887 0.1031 (  2872 PWs)   bands (ev):

   -77.5824 -77.5509 -40.9385 -40.8460 -40.8333 -40.7739 -40.7274 -40.7253
    12.3303  14.5066  14.6272  14.9424  15.7641  15.9580  16.2440  16.7235
    17.2593  17.3525  17.8073  21.7793  27.8541

     occupation numbers 
     1.0000   1.0000   1.0000   1.0000   1.0000   1.0000   1.0000   1.0000
     1.0000   1.0000   1.0000   1.0000   1.0000   1.0000   1.0000   1.0000
     1.0000   1.0000   1.0000   0.0000   0.0000

          k = 0.1667 0.2887 0.2063 (  2865 PWs)   bands (ev):

   -77.5757 -77.5576 -40.9281 -40.8711 -40.8016 -40.7768 -40.7370 -40.7300
    12.8424  14.1904  14.7656  15.0938  15.5911  15.8233  16.2398  16.8186
    17.3310  17.4584  17.8350  19.7538  31.2054

     occupation numbers 
     1.0000   1.0000   1.0000   1.0000   1.0000   1.0000   1.0000   1.0000
     1.0000   1.0000   1.0000   1.0000   1.0000   1.0000   1.0000   1.0000
     1.0000   1.0000   1.0000   0.0000   0.0000

          k = 0.1667 0.2887-0.3094 (  2874 PWs)   bands (ev):

   -77.5667 -77.5667 -40.9036 -40.9036 -40.7772 -40.7772 -40.7416 -40.7416
    13.5330  13.5330  15.0861  15.0861  15.5409  15.5409  16.5152  16.5152
    17.5976  17.5976  18.3245  18.3245  32.9947

     occupation numbers 
     1.0000   1.0000   1.0000   1.0000   1.0000   1.0000   1.0000   1.0000
     1.0000   1.0000   1.0000   1.0000   1.0000   1.0000   1.0000   1.0000
     1.0000   1.0000   1.0000   1.0000   0.0000

          k = 0.1667 0.3849 0.0000 (  2869 PWs)   bands (ev):

   -77.5731 -77.5458 -40.9068 -40.8919 -40.8708 -40.7930 -40.7480 -40.7430
    13.2369  14.4012  14.4112  14.8586  15.6391  16.0889  16.1751  16.9483
    17.5777  17.7483  18.3051  25.5102  25.8653

     occupation numbers 
     1.0000   1.0000   1.0000   1.0000   1.0000   1.0000   1.0000   1.0000
     1.0000   1.0000   1.0000   1.0000   1.0000   1.0000   1.0000   1.0000
     1.0000   1.0000   1.0000   0.0000   0.0000

          k = 0.1667 0.3849 0.1031 (  2879 PWs)   bands (ev):

   -77.5713 -77.5476 -40.9294 -40.8881 -40.8487 -40.7994 -40.7498 -40.7381
    13.3178  14.3421  14.5021  14.9404  15.6924  16.0697  16.1301  16.9803
    17.5340  17.6655  18.3930  23.0628  27.9256

     occupation numbers 
     1.0000   1.0000   1.0000   1.0000   1.0000   1.0000   1.0000   1.0000
     1.0000   1.0000   1.0000   1.0000   1.0000   1.0000   1.0000   1.0000
     1.0000   1.0000   1.0000   0.0000   0.0000

          k = 0.1667 0.3849 0.2063 (  2875 PWs)   bands (ev):

   -77.5663 -77.5526 -40.9410 -40.9091 -40.8135 -40.7968 -40.7571 -40.7360
    13.5370  14.1420  14.7466  15.1720  15.6135  15.9042  16.2633  16.9448
    17.4373  17.8154  18.5750  20.8606  28.8870

     occupation numbers 
     1.0000   1.0000   1.0000   1.0000   1.0000   1.0000   1.0000   1.0000
     1.0000   1.0000   1.0000   1.0000   1.0000   1.0000   1.0000   1.0000
     1.0000   1.0000   0.0000   0.0000   0.0000

          k = 0.1667 0.3849-0.3094 (  2862 PWs)   bands (ev):

   -77.5595 -77.5595 -40.9322 -40.9322 -40.7960 -40.7960 -40.7486 -40.7486
    13.8386  13.8386  15.0856  15.0856  15.6899  15.6899  16.5339  16.5339
    17.8041  17.8041  19.2691  19.2691  30.0388

     occupation numbers 
     1.0000   1.0000   1.0000   1.0000   1.0000   1.0000   1.0000   1.0000
     1.0000   1.0000   1.0000   1.0000   1.0000   1.0000   1.0000   1.0000
     1.0000   1.0000   0.0000   0.0000   0.0000

          k = 0.1667 0.4811 0.0000 (  2887 PWs)   bands (ev):

   -77.5632 -77.5452 -40.9271 -40.8863 -40.8751 -40.8183 -40.7703 -40.7562
    13.9365  14.1911  14.2045  15.1588  15.5972  15.9685  16.2874  17.3522
    17.7450  17.7934  19.4652  24.1059  27.5089

     occupation numbers 
     1.0000   1.0000   1.0000   1.0000   1.0000   1.0000   1.0000   1.0000
     1.0000   1.0000   1.0000   1.0000   1.0000   1.0000   1.0000   1.0000
     1.0000   1.0000   0.0000   0.0000   0.0000

          k = 0.1667 0.4811 0.1031 (  2883 PWs)   bands (ev):

   -77.5620 -77.5464 -40.9423 -40.9057 -40.8508 -40.8134 -40.7708 -40.7502
    13.7879  14.2674  14.4458  14.9836  15.6477  16.1002  16.3550  17.3364
    17.5509  17.8551  19.5484  23.5675  26.3063

     occupation numbers 
     1.0000   1.0000   1.0000   1.0000   1.0000   1.0000   1.0000   1.0000
     1.0000   1.0000   1.0000   1.0000   1.0000   1.0000   1.0000   1.0000
     1.0000   1.0000   0.0000   0.0000   0.0000

          k = 0.1667 0.4811 0.2063 (  2883 PWs)   bands (ev):

   -77.5587 -77.5497 -40.9578 -40.9332 -40.8309 -40.7979 -40.7709 -40.7423
    13.7511  14.1881  14.6443  15.1844  15.5424  16.2219  16.5685  17.0317
    17.5224  17.9313  19.8602  22.0627  26.3739

     occupation numbers 
     1.0000   1.0000   1.0000   1.0000   1.0000   1.0000   1.0000   1.0000
     1.0000   1.0000   1.0000   1.0000   1.0000   1.0000   1.0000   1.0000
     1.0000   1.0000   0.0000   0.0000   0.0000

          k = 0.1667 0.4811-0.3094 (  2868 PWs)   bands (ev):

   -77.5542 -77.5542 -40.9545 -40.9545 -40.8115 -40.8115 -40.7504 -40.7504
    13.9076  13.9076  14.9872  14.9872  15.9475  15.9475  16.7201  16.7201
    17.8092  17.8092  20.6647  20.6647  27.2516

     occupation numbers 
     1.0000   1.0000   1.0000   1.0000   1.0000   1.0000   1.0000   1.0000
     1.0000   1.0000   1.0000   1.0000   1.0000   1.0000   1.0000   1.0000
     1.0000   1.0000   0.0000   0.0000   0.0000

          k = 0.1667 0.5774 0.0000 (  2892 PWs)   bands (ev):

   -77.5588 -77.5457 -40.9399 -40.8909 -40.8590 -40.8288 -40.7829 -40.7610
    14.1086  14.1116  14.1174  15.3752  15.6156  15.8596  16.3724  17.6263
    17.7434  17.7706  20.7187  22.2696  28.6570

     occupation numbers 
     1.0000   1.0000   1.0000   1.0000   1.0000   1.0000   1.0000   1.0000
     1.0000   1.0000   1.0000   1.0000   1.0000   1.0000   1.0000   1.0000
     1.0000   1.0000   0.0000   0.0000   0.0000

          k = 0.1667 0.5774 0.1031 (  2882 PWs)   bands (ev):

   -77.5580 -77.5466 -40.9517 -40.9088 -40.8538 -40.8091 -40.7836 -40.7553
    13.8157  14.1833  14.6100  14.9644  15.5710  16.2189  16.4445  17.5225
    17.6227  17.8234  20.8186  22.2227  27.6064

     occupation numbers 
     1.0000   1.0000   1.0000   1.0000   1.0000   1.0000   1.0000   1.0000
     1.0000   1.0000   1.0000   1.0000   1.0000   1.0000   1.0000   1.0000
     1.0000   1.0000   0.0000   0.0000   0.0000

          k = 0.1667 0.5774 0.2063 (  2889 PWs)   bands (ev):

   -77.5555 -77.5490 -40.9658 -40.9407 -40.8386 -40.7967 -40.7749 -40.7455
    13.7502  14.2008  14.6808  15.1423  15.4597  16.4207  16.6885  17.1012
    17.6383  17.8625  21.1260  22.0322  26.3208

     occupation numbers 
     1.0000   1.0000   1.0000   1.0000   1.0000   1.0000   1.0000   1.0000
     1.0000   1.0000   1.0000   1.0000   1.0000   1.0000   1.0000   1.0000
     1.0000   1.0000   0.0000   0.0000   0.0000

          k = 0.1667 0.5774-0.3094 (  2878 PWs)   bands (ev):

   -77.5523 -77.5523 -40.9629 -40.9629 -40.8174 -40.8174 -40.7506 -40.7506
    13.9111  13.9111  14.9476  14.9476  15.9869  15.9869  16.9215  16.9215
    17.7484  17.7484  21.6144  21.6144  25.8342

     occupation numbers 
     1.0000   1.0000   1.0000   1.0000   1.0000   1.0000   1.0000   1.0000
     1.0000   1.0000   1.0000   1.0000   1.0000   1.0000   1.0000   1.0000
     1.0000   1.0000   0.0000   0.0000   0.0000

          k = 0.2500 0.4330 0.0000 (  2894 PWs)   bands (ev):

   -77.5633 -77.5451 -40.9080 -40.8876 -40.8753 -40.8188 -40.7738 -40.7701
    14.0632  14.2549  14.5925  14.6430  15.5317  15.9852  16.2952  17.1257
    17.7044  17.7987  19.4731  25.8581  26.6110

     occupation numbers 
     1.0000   1.0000   1.0000   1.0000   1.0000   1.0000   1.0000   1.0000
     1.0000   1.0000   1.0000   1.0000   1.0000   1.0000   1.0000   1.0000
     1.0000   1.0000   0.0000   0.0000   0.0000

          k = 0.2500 0.4330 0.1031 (  2881 PWs)   bands (ev):

   -77.5620 -77.5463 -40.9208 -40.9120 -40.8366 -40.8320 -40.7765 -40.7555
    14.0703  14.2067  14.6553  14.7722  15.6811  15.8420  16.2873  17.1596
    17.4993  17.8628  19.5982  24.3514  26.8932

     occupation numbers 
     1.0000   1.0000   1.0000   1.0000   1.0000   1.0000   1.0000   1.0000
     1.0000   1.0000   1.0000   1.0000   1.0000   1.0000   1.0000   1.0000
     1.0000   1.0000   0.0000   0.0000   0.0000

          k = 0.2500 0.4330 0.2063 (  2883 PWs)   bands (ev):

   -77.5587 -77.5497 -40.9425 -40.9276 -40.8364 -40.8137 -40.7703 -40.7427
    14.0771  14.1527  14.8195  15.1538  15.5206  15.7921  16.3180  16.9463
    17.4919  17.9384  19.9737  22.3373  27.6742

     occupation numbers 
     1.0000   1.0000   1.0000   1.0000   1.0000   1.0000   1.0000   1.0000
     1.0000   1.0000   1.0000   1.0000   1.0000   1.0000   1.0000   1.0000
     1.0000   1.0000   0.0000   0.0000   0.0000

          k = 0.2500 0.4330-0.3094 (  2878 PWs)   bands (ev):

   -77.5542 -77.5542 -40.9432 -40.9432 -40.8243 -40.8243 -40.7491 -40.7491
    14.1062  14.1062  15.1363  15.1363  15.5782  15.5782  16.5232  16.5232
    17.8284  17.8284  20.8186  20.8186  28.6981

     occupation numbers 
     1.0000   1.0000   1.0000   1.0000   1.0000   1.0000   1.0000   1.0000
     1.0000   1.0000   1.0000   1.0000   1.0000   1.0000   1.0000   1.0000
     1.0000   1.0000   0.0000   0.0000   0.0000

          k = 0.2500 0.5292 0.0000 (  2892 PWs)   bands (ev):

   -77.5558 -77.5465 -40.9205 -40.8788 -40.8472 -40.8470 -40.7934 -40.7929
    14.1818  14.3586  14.4597  14.9473  15.5498  15.7880  16.4608  17.3980
    17.6785  17.7422  21.1136  23.6534  25.9639

     occupation numbers 
     1.0000   1.0000   1.0000   1.0000   1.0000   1.0000   1.0000   1.0000
     1.0000   1.0000   1.0000   1.0000   1.0000   1.0000   1.0000   1.0000
     1.0000   1.0000   0.0000   0.0000   0.0000

          k = 0.2500 0.5292 0.1031 (  2891 PWs)   bands (ev):

   -77.5552 -77.5471 -40.9270 -40.9017 -40.8657 -40.8167 -40.7979 -40.7707
    14.1236  14.4872  14.5825  14.8476  15.5777  15.7892  16.4658  17.4049
    17.4751  17.7861  21.3010  23.6765  26.0088

     occupation numbers 
     1.0000   1.0000   1.0000   1.0000   1.0000   1.0000   1.0000   1.0000
     1.0000   1.0000   1.0000   1.0000   1.0000   1.0000   1.0000   1.0000
     1.0000   1.0000   0.0000   0.0000   0.0000

          k = 0.2500 0.5292 0.2063 (  2886 PWs)   bands (ev):

   -77.5535 -77.5488 -40.9430 -40.9289 -40.8642 -40.8244 -40.7690 -40.7498
    14.1405  14.4882  14.7446  15.0335  15.4461  15.8069  16.5095  16.9744
    17.5598  17.8265  21.7969  23.3953  25.9406

     occupation numbers 
     1.0000   1.0000   1.0000   1.0000   1.0000   1.0000   1.0000   1.0000
     1.0000   1.0000   1.0000   1.0000   1.0000   1.0000   1.0000   1.0000
     1.0000   1.0000   0.0000   0.0000   0.0000

          k = 0.2500 0.5292-0.3094 (  2880 PWs)   bands (ev):

   -77.5511 -77.5511 -40.9457 -40.9457 -40.8455 -40.8455 -40.7483 -40.7483
    14.2763  14.2763  15.0334  15.0334  15.5847  15.5847  16.6369  16.6369
    17.7396  17.7396  22.5628  22.5628  26.4809

     occupation numbers 
     1.0000   1.0000   1.0000   1.0000   1.0000   1.0000   1.0000   1.0000
     1.0000   1.0000   1.0000   1.0000   1.0000   1.0000   1.0000   1.0000
     1.0000   1.0000   0.0000   0.0000   0.0000

          k = 0.3333 0.5774 0.0000 (  2880 PWs)   bands (ev):

   -77.5500 -77.5500 -40.9119 -40.8653 -40.8653 -40.8190 -40.8190 -40.8164
    14.1895  14.5522  14.5522  14.8357  15.6223  15.6223  16.5583  17.5421
    17.5421  17.6520  22.8437  23.6484  23.6484

     occupation numbers 
     1.0000   1.0000   1.0000   1.0000   1.0000   1.0000   1.0000   1.0000
     1.0000   1.0000   1.0000   1.0000   1.0000   1.0000   1.0000   1.0000
     1.0000   1.0000   0.0000   0.0000   0.0000

          k = 0.3333 0.5774 0.1031 (  2895 PWs)   bands (ev):

   -77.5500 -77.5500 -40.9055 -40.8934 -40.8934 -40.8228 -40.7908 -40.7908
    14.2831  14.5755  14.5755  14.8552  15.5970  15.5970  16.5304  17.4197
    17.5817  17.5817  23.2417  23.7244  23.7244

     occupation numbers 
     1.0000   1.0000   1.0000   1.0000   1.0000   1.0000   1.0000   1.0000
     1.0000   1.0000   1.0000   1.0000   1.0000   1.0000   1.0000   1.0000
     1.0000   1.0000   0.0000   0.0000   0.0000

          k = 0.3333 0.5774 0.2063 (  2889 PWs)   bands (ev):

   -77.5500 -77.5500 -40.9245 -40.9245 -40.8881 -40.8403 -40.7593 -40.7593
    14.5224  14.6203  14.6203  14.8709  15.5528  15.5528  16.4932  16.9448
    17.6568  17.6568  23.9136  23.9136  24.2602

     occupation numbers 
     1.0000   1.0000   1.0000   1.0000   1.0000   1.0000   1.0000   1.0000
     1.0000   1.0000   1.0000   1.0000   1.0000   1.0000   1.0000   1.0000
     1.0000   1.0000   0.0000   0.0000   0.0000

          k = 0.3333 0.5774-0.3094 (  2910 PWs)   bands (ev):

   -77.5500 -77.5500 -40.9363 -40.9363 -40.8643 -40.8643 -40.7475 -40.7475
    14.6416  14.6416  14.7700  14.7700  15.5340  15.5340  16.5883  16.5883
    17.6925  17.6925  24.0363  24.0363  25.6620

     occupation numbers 
     1.0000   1.0000   1.0000   1.0000   1.0000   1.0000   1.0000   1.0000
     1.0000   1.0000   1.0000   1.0000   1.0000   1.0000   1.0000   1.0000
     1.0000   1.0000   0.0000   0.0000   0.0000

 ------ SPIN DOWN ----------


          k = 0.0000 0.0000 0.0000 (  2863 PWs)   bands (ev):

   -75.4902 -75.4312 -38.9595 -38.6594 -38.6594 -38.6111 -38.6092 -38.6092
     9.5562  14.3254  17.5667  17.5963  17.5963  17.9634  17.9634  18.2243
    18.3755  18.3755  19.5980  19.5980  25.8104

     occupation numbers 
     1.0000   1.0000   1.0000   1.0000   1.0000   1.0000   1.0000   1.0000
     1.0000   1.0000   1.0000   1.0000   1.0000   1.0000   1.0000   1.0000
     1.0000   1.0000   0.0000   0.0000   0.0000

          k = 0.0000 0.0000 0.1031 (  2839 PWs)   bands (ev):

   -75.4862 -75.4352 -38.9365 -38.6560 -38.6560 -38.6347 -38.6125 -38.6125
     9.8336  14.0893  17.4742  17.5279  17.5279  17.6409  17.8787  17.8787
    18.5553  18.5553  19.5831  19.5831  27.1270

     occupation numbers 
     1.0000   1.0000   1.0000   1.0000   1.0000   1.0000   1.0000   1.0000
     1.0000   1.0000   1.0000   1.0000   1.0000   1.0000   1.0000   1.0000
     0.0000   0.0000   0.0000   0.0000   0.0000

          k = 0.0000 0.0000 0.2063 (  2870 PWs)   bands (ev):

   -75.4755 -75.4460 -38.8734 -38.6992 -38.6468 -38.6468 -38.6217 -38.6217
    10.6363  13.1954  17.0142  17.2390  17.4696  17.4696  17.6931  17.6931
[...]
    19.7496  19.8152  20.9184  23.3980  28.2977

     occupation numbers 
     1.0000   1.0000   1.0000   1.0000   1.0000   1.0000   1.0000   1.0000
     1.0000   1.0000   1.0000   1.0000   1.0000   1.0000   1.0000   0.0000
     0.0000   0.0000   0.0000   0.0000   0.0000

          k = 0.0833 0.5292 0.1031 (  2881 PWs)   bands (ev):

   -75.4333 -75.4165 -38.9152 -38.8645 -38.7849 -38.7354 -38.6918 -38.6664
    14.4998  15.1298  15.6673  16.1881  17.4136  17.9139  17.9663  19.5406
    19.7016  19.7898  20.7836  23.0684  27.2334

     occupation numbers 
     1.0000   1.0000   1.0000   1.0000   1.0000   1.0000   1.0000   1.0000
     1.0000   1.0000   1.0000   1.0000   1.0000   1.0000   1.0000   0.0000
     0.0000   0.0000   0.0000   0.0000   0.0000

          k = 0.0833 0.5292 0.2063 (  2877 PWs)   bands (ev):

   -75.4298 -75.4201 -38.9299 -38.8981 -38.7486 -38.7130 -38.6980 -38.6704
    14.4850  14.9657  15.9682  16.2836  17.4640  18.2176  18.4162  19.0793
    19.6518  19.8797  20.5694  22.1463  26.6786

     occupation numbers 
     1.0000   1.0000   1.0000   1.0000   1.0000   1.0000   1.0000   1.0000
     1.0000   1.0000   1.0000   1.0000   1.0000   1.0000   1.0000   0.0000
     0.0000   0.0000   0.0000   0.0000   0.0000

          k = 0.0833 0.5292-0.3094 (  2876 PWs)   bands (ev):

   -75.4249 -75.4249 -38.9240 -38.9240 -38.7206 -38.7206 -38.6843 -38.6843
    14.6644  14.6644  16.2370  16.2370  17.9579  17.9579  18.7246  18.7246
    19.7328  19.7328  21.1010  21.1010  26.9321

     occupation numbers 
     1.0000   1.0000   1.0000   1.0000   1.0000   1.0000   1.0000   1.0000
     1.0000   1.0000   1.0000   1.0000   1.0000   1.0000   0.0000   0.0000
     0.0000   0.0000   0.0000   0.0000   0.0000

          k = 0.1667 0.2887 0.0000 (  2868 PWs)   bands (ev):

   -75.4580 -75.4188 -38.8800 -38.7895 -38.7803 -38.7004 -38.6539 -38.6491
    12.2109  15.6206  15.9518  16.3124  17.4689  17.5507  18.0386  18.4373
    18.9718  19.3283  19.7316  24.4421  26.2590

     occupation numbers 
     1.0000   1.0000   1.0000   1.0000   1.0000   1.0000   1.0000   1.0000
     1.0000   1.0000   1.0000   1.0000   1.0000   1.0000   1.0000   1.0000
     0.0000   0.0000   0.0000   0.0000   0.0000

          k = 0.1667 0.2887 0.1031 (  2872 PWs)   bands (ev):

   -75.4553 -75.4214 -38.8802 -38.7875 -38.7722 -38.7074 -38.6582 -38.6480
    12.4243  15.5492  15.8548  16.3781  17.3852  17.5778  17.9277  18.5174
    19.0995  19.2074  19.7393  22.7979  28.4498

     occupation numbers 
     1.0000   1.0000   1.0000   1.0000   1.0000   1.0000   1.0000   1.0000
     1.0000   1.0000   1.0000   1.0000   1.0000   1.0000   1.0000   0.0000
     0.0000   0.0000   0.0000   0.0000   0.0000

          k = 0.1667 0.2887 0.2063 (  2865 PWs)   bands (ev):

   -75.4482 -75.4286 -38.8711 -38.8128 -38.7358 -38.7099 -38.6685 -38.6557
    13.0295  14.8604  16.1051  16.5457  17.1342  17.4107  17.9823  18.5794
    19.2113  19.3254  19.6910  21.0880  31.6876

     occupation numbers 
     1.0000   1.0000   1.0000   1.0000   1.0000   1.0000   1.0000   1.0000
     1.0000   1.0000   1.0000   1.0000   1.0000   1.0000   1.0000   0.0000
     0.0000   0.0000   0.0000   0.0000   0.0000

          k = 0.1667 0.2887-0.3094 (  2874 PWs)   bands (ev):

   -75.4384 -75.4384 -38.8463 -38.8463 -38.7089 -38.7089 -38.6717 -38.6717
    13.9126  13.9126  16.4814  16.4814  17.0959  17.0959  18.2854  18.2854
    19.5159  19.5159  19.9208  19.9208  33.4149

     occupation numbers 
     1.0000   1.0000   1.0000   1.0000   1.0000   1.0000   1.0000   1.0000
     1.0000   1.0000   1.0000   1.0000   1.0000   1.0000   1.0000   1.0000
     0.0000   0.0000   0.0000   0.0000   0.0000

          k = 0.1667 0.3849 0.0000 (  2869 PWs)   bands (ev):

   -75.4453 -75.4159 -38.8440 -38.8380 -38.8148 -38.7295 -38.6751 -38.6707
    13.4594  15.6526  15.6973  16.1174  17.2708  17.6858  17.8087  18.7744
    19.4725  19.7277  20.0396  26.2003  26.4855

     occupation numbers 
     1.0000   1.0000   1.0000   1.0000   1.0000   1.0000   1.0000   1.0000
     1.0000   1.0000   1.0000   1.0000   1.0000   1.0000   1.0000   0.0000
     0.0000   0.0000   0.0000   0.0000   0.0000

          k = 0.1667 0.3849 0.1031 (  2879 PWs)   bands (ev):

   -75.4434 -75.4179 -38.8733 -38.8330 -38.7864 -38.7352 -38.6813 -38.6629
    13.6095  15.5148  15.8009  16.2203  17.2502  17.6467  17.7658  18.8093
    19.4603  19.5742  20.1494  23.8846  28.5429

     occupation numbers 
     1.0000   1.0000   1.0000   1.0000   1.0000   1.0000   1.0000   1.0000
     1.0000   1.0000   1.0000   1.0000   1.0000   1.0000   1.0000   0.0000
     0.0000   0.0000   0.0000   0.0000   0.0000

          k = 0.1667 0.3849 0.2063 (  2875 PWs)   bands (ev):

   -75.4380 -75.4232 -38.8872 -38.8549 -38.7480 -38.7310 -38.6894 -38.6617
    14.0207  15.1314  16.0845  16.4362  17.1185  17.3633  17.9531  18.7605
    19.3197  19.7575  20.2308  21.9003  29.4886

     occupation numbers 
     1.0000   1.0000   1.0000   1.0000   1.0000   1.0000   1.0000   1.0000
     1.0000   1.0000   1.0000   1.0000   1.0000   1.0000   1.0000   0.0000
     0.0000   0.0000   0.0000   0.0000   0.0000

          k = 0.1667 0.3849-0.3094 (  2862 PWs)   bands (ev):

   -75.4306 -75.4306 -38.8787 -38.8787 -38.7301 -38.7301 -38.6772 -38.6772
    14.5814  14.5814  16.4260  16.4260  17.0906  17.0906  18.3134  18.3134
    19.7571  19.7571  20.5820  20.5820  30.5977

     occupation numbers 
     1.0000   1.0000   1.0000   1.0000   1.0000   1.0000   1.0000   1.0000
     1.0000   1.0000   1.0000   1.0000   1.0000   1.0000   1.0000   1.0000
     0.0000   0.0000   0.0000   0.0000   0.0000

          k = 0.1667 0.4811 0.0000 (  2887 PWs)   bands (ev):

   -75.4347 -75.4152 -38.8766 -38.8317 -38.8093 -38.7570 -38.6949 -38.6895
    14.5660  15.4776  15.4810  16.1580  17.2124  17.5510  17.9193  19.2212
    19.7235  19.7308  20.9355  24.8592  28.0941

     occupation numbers 
     1.0000   1.0000   1.0000   1.0000   1.0000   1.0000   1.0000   1.0000
     1.0000   1.0000   1.0000   1.0000   1.0000   1.0000   1.0000   0.0000
     0.0000   0.0000   0.0000   0.0000   0.0000

          k = 0.1667 0.4811 0.1031 (  2883 PWs)   bands (ev):

   -75.4334 -75.4165 -38.8912 -38.8515 -38.7868 -38.7497 -38.7019 -38.6778
    14.5876  15.4289  15.6453  16.1992  17.2275  17.5309  17.9761  19.2097
    19.4881  19.8056  20.9871  24.2616  27.0668

     occupation numbers 
     1.0000   1.0000   1.0000   1.0000   1.0000   1.0000   1.0000   1.0000
     1.0000   1.0000   1.0000   1.0000   1.0000   1.0000   1.0000   0.0000
     0.0000   0.0000   0.0000   0.0000   0.0000

          k = 0.1667 0.4811 0.2063 (  2883 PWs)   bands (ev):

   -75.4298 -75.4201 -38.9072 -38.8810 -38.7681 -38.7315 -38.7023 -38.6685
    14.6988  15.2255  15.9776  16.4780  17.0632  17.5031  18.1806  18.8844
    19.4237  19.9021  21.1375  22.8345  27.1820

     occupation numbers 
     1.0000   1.0000   1.0000   1.0000   1.0000   1.0000   1.0000   1.0000
     1.0000   1.0000   1.0000   1.0000   1.0000   1.0000   1.0000   0.0000
     0.0000   0.0000   0.0000   0.0000   0.0000

          k = 0.1667 0.4811-0.3094 (  2868 PWs)   bands (ev):

   -75.4249 -75.4249 -38.9037 -38.9037 -38.7476 -38.7476 -38.6780 -38.6780
    14.9300  14.9300  16.3888  16.3888  17.2375  17.2375  18.4536  18.4536
    19.7496  19.7496  21.6635  21.6635  27.9883

     occupation numbers 
     1.0000   1.0000   1.0000   1.0000   1.0000   1.0000   1.0000   1.0000
     1.0000   1.0000   1.0000   1.0000   1.0000   1.0000   0.9912   0.9912
     0.0000   0.0000   0.0000   0.0000   0.0000

          k = 0.1667 0.5774 0.0000 (  2892 PWs)   bands (ev):

   -75.4299 -75.4158 -38.8905 -38.8367 -38.7917 -38.7685 -38.7087 -38.6946
    15.0371  15.3450  15.4208  16.2129  17.2528  17.3945  18.0239  19.5349
    19.7118  19.7216  21.8309  23.2989  29.0741

     occupation numbers 
     1.0000   1.0000   1.0000   1.0000   1.0000   1.0000   1.0000   1.0000
     1.0000   1.0000   1.0000   1.0000   1.0000   1.0000   1.0000   0.0000
     0.0000   0.0000   0.0000   0.0000   0.0000

          k = 0.1667 0.5774 0.1031 (  2882 PWs)   bands (ev):

   -75.4290 -75.4167 -38.9021 -38.8552 -38.7908 -38.7436 -38.7144 -38.6844
    14.8936  15.3896  15.7861  16.0439  17.1843  17.5657  18.0898  19.4584
    19.5327  19.7747  21.8617  23.2037  28.2062

     occupation numbers 
     1.0000   1.0000   1.0000   1.0000   1.0000   1.0000   1.0000   1.0000
     1.0000   1.0000   1.0000   1.0000   1.0000   1.0000   1.0000   0.0000
     0.0000   0.0000   0.0000   0.0000   0.0000

          k = 0.1667 0.5774 0.2063 (  2889 PWs)   bands (ev):

   -75.4264 -75.4193 -38.9164 -38.8891 -38.7767 -38.7313 -38.7047 -38.6721
    14.8563  15.2846  16.0421  16.3925  16.9747  17.6755  18.3264  18.9562
    19.5569  19.8197  21.9914  22.8862  27.1128

     occupation numbers 
     1.0000   1.0000   1.0000   1.0000   1.0000   1.0000   1.0000   1.0000
     1.0000   1.0000   1.0000   1.0000   1.0000   1.0000   1.0000   0.0000
     0.0000   0.0000   0.0000   0.0000   0.0000

          k = 0.1667 0.5774-0.3094 (  2878 PWs)   bands (ev):

   -75.4228 -75.4228 -38.9130 -38.9130 -38.7543 -38.7543 -38.6778 -38.6778
    15.0131  15.0131  16.3803  16.3803  17.2889  17.2889  18.6162  18.6162
    19.6854  19.6854  22.3840  22.3840  26.7333

     occupation numbers 
     1.0000   1.0000   1.0000   1.0000   1.0000   1.0000   1.0000   1.0000
     1.0000   1.0000   1.0000   1.0000   1.0000   1.0000   0.0000   0.0000
     0.0000   0.0000   0.0000   0.0000   0.0000

          k = 0.2500 0.4330 0.0000 (  2894 PWs)   bands (ev):

   -75.4347 -75.4152 -38.8557 -38.8330 -38.8095 -38.7578 -38.7086 -38.6947
    14.5704  15.5512  15.8200  15.8410  17.1213  17.5767  17.9229  18.9824
    19.6769  19.7346  20.9735  26.4204  27.2238

     occupation numbers 
     1.0000   1.0000   1.0000   1.0000   1.0000   1.0000   1.0000   1.0000
     1.0000   1.0000   1.0000   1.0000   1.0000   1.0000   1.0000   0.0000
     0.0000   0.0000   0.0000   0.0000   0.0000

          k = 0.2500 0.4330 0.1031 (  2881 PWs)   bands (ev):

   -75.4334 -75.4165 -38.8656 -38.8596 -38.7712 -38.7707 -38.7113 -38.6808
    14.6528  15.4686  15.8884  16.0272  17.1654  17.4015  17.9230  19.0180
    19.4318  19.8142  21.0779  25.0006  27.5116

     occupation numbers 
     1.0000   1.0000   1.0000   1.0000   1.0000   1.0000   1.0000   1.0000
     1.0000   1.0000   1.0000   1.0000   1.0000   1.0000   1.0000   0.0000
     0.0000   0.0000   0.0000   0.0000   0.0000

          k = 0.2500 0.4330 0.2063 (  2883 PWs)   bands (ev):

   -75.4298 -75.4200 -38.8895 -38.8751 -38.7754 -38.7492 -38.7014 -38.6682
    14.8633  15.3264  16.1091  16.3855  17.0201  17.1416  17.9986  18.7881
    19.3836  19.9105  21.3129  23.1497  28.2919

     occupation numbers 
     1.0000   1.0000   1.0000   1.0000   1.0000   1.0000   1.0000   1.0000
     1.0000   1.0000   1.0000   1.0000   1.0000   1.0000   1.0000   0.0000
     0.0000   0.0000   0.0000   0.0000   0.0000

          k = 0.2500 0.4330-0.3094 (  2878 PWs)   bands (ev):

   -75.4249 -75.4249 -38.8910 -38.8910 -38.7623 -38.7623 -38.6761 -38.6761
    15.1162  15.1162  16.4476  16.4476  16.9137  16.9137  18.2909  18.2909
    19.7730  19.7730  21.8761  21.8761  29.3022

     occupation numbers 
     1.0000   1.0000   1.0000   1.0000   1.0000   1.0000   1.0000   1.0000
     1.0000   1.0000   1.0000   1.0000   1.0000   1.0000   1.0000   1.0000
     0.0000   0.0000   0.0000   0.0000   0.0000

          k = 0.2500 0.5292 0.0000 (  2892 PWs)   bands (ev):

   -75.4267 -75.4166 -38.8692 -38.8234 -38.7888 -38.7786 -38.7300 -38.7195
    15.2935  15.5179  15.6597  15.9196  17.1229  17.3370  18.1212  19.2858
    19.6468  19.6768  22.2386  24.4611  26.5413

     occupation numbers 
     1.0000   1.0000   1.0000   1.0000   1.0000   1.0000   1.0000   1.0000
     1.0000   1.0000   1.0000   1.0000   1.0000   1.0000   1.0000   0.0000
     0.0000   0.0000   0.0000   0.0000   0.0000

          k = 0.2500 0.5292 0.1031 (  2891 PWs)   bands (ev):

   -75.4260 -75.4173 -38.8751 -38.8466 -38.8068 -38.7507 -38.7321 -38.6980
    15.2610  15.6291  15.7447  15.9881  17.1006  17.2388  18.1278  19.3016
    19.3980  19.7303  22.4006  24.4414  26.6142

     occupation numbers 
     1.0000   1.0000   1.0000   1.0000   1.0000   1.0000   1.0000   1.0000
     1.0000   1.0000   1.0000   1.0000   1.0000   1.0000   1.0000   0.0000
     0.0000   0.0000   0.0000   0.0000   0.0000

          k = 0.2500 0.5292 0.2063 (  2886 PWs)   bands (ev):

   -75.4242 -75.4191 -38.8909 -38.8757 -38.8061 -38.7629 -38.6975 -38.6758
    15.3022  15.5912  16.0210  16.3338  16.8553  17.0973  18.1910  18.8261
    19.4704  19.7775  22.7821  24.0916  26.6927

     occupation numbers 
     1.0000   1.0000   1.0000   1.0000   1.0000   1.0000   1.0000   1.0000
     1.0000   1.0000   1.0000   1.0000   1.0000   1.0000   1.0000   0.0000
     0.0000   0.0000   0.0000   0.0000   0.0000

          k = 0.2500 0.5292-0.3094 (  2880 PWs)   bands (ev):

   -75.4216 -75.4216 -38.8936 -38.8936 -38.7861 -38.7861 -38.6746 -38.6746
    15.4358  15.4358  16.4150  16.4150  16.8137  16.8137  18.3945  18.3945
    19.6733  19.6733  23.3706  23.3706  27.2342

     occupation numbers 
     1.0000   1.0000   1.0000   1.0000   1.0000   1.0000   1.0000   1.0000
     1.0000   1.0000   1.0000   1.0000   1.0000   1.0000   1.0000   1.0000
     0.0000   0.0000   0.0000   0.0000   0.0000

          k = 0.3333 0.5774 0.0000 (  2880 PWs)   bands (ev):

   -75.4205 -75.4205 -38.8596 -38.8088 -38.8088 -38.7550 -38.7479 -38.7479
    15.5504  15.6469  15.6469  15.8500  17.1656  17.1656  18.2283  19.4524
    19.4524  19.6164  23.6741  24.4514  24.4514

     occupation numbers 
     1.0000   1.0000   1.0000   1.0000   1.0000   1.0000   1.0000   1.0000
     1.0000   1.0000   1.0000   1.0000   1.0000   1.0000   1.0000   0.0000
     0.0000   0.0000   0.0000   0.0000   0.0000

          k = 0.3333 0.5774 0.1031 (  2895 PWs)   bands (ev):

   -75.4205 -75.4205 -38.8527 -38.8369 -38.8369 -38.7620 -38.7197 -38.7197
    15.6237  15.7219  15.7219  15.8826  17.0809  17.0809  18.2063  19.3420
    19.4984  19.4984  24.0882  24.5022  24.5022

     occupation numbers 
     1.0000   1.0000   1.0000   1.0000   1.0000   1.0000   1.0000   1.0000
     1.0000   1.0000   1.0000   1.0000   1.0000   1.0000   1.0000   0.0000
     0.0000   0.0000   0.0000   0.0000   0.0000

          k = 0.3333 0.5774 0.2063 (  2889 PWs)   bands (ev):

   -75.4204 -75.4204 -38.8700 -38.8700 -38.8336 -38.7813 -38.6862 -38.6862
    15.7952  15.9004  15.9004  15.9431  16.8908  16.8908  18.2007  18.7984
    19.5821  19.5821  24.6284  24.6284  25.0930

     occupation numbers 
     1.0000   1.0000   1.0000   1.0000   1.0000   1.0000   1.0000   1.0000
     1.0000   1.0000   1.0000   1.0000   1.0000   1.0000   1.0000   0.0000
     0.0000   0.0000   0.0000   0.0000   0.0000

          k = 0.3333 0.5774-0.3094 (  2910 PWs)   bands (ev):

   -75.4204 -75.4204 -38.8827 -38.8827 -38.8075 -38.8075 -38.6734 -38.6734
    15.9335  15.9335  16.0167  16.0167  16.7722  16.7722  18.3667  18.3667
    19.6201  19.6201  24.7087  24.7087  26.4177

     occupation numbers 
     1.0000   1.0000   1.0000   1.0000   1.0000   1.0000   1.0000   1.0000
     1.0000   1.0000   1.0000   1.0000   1.0000   1.0000   1.0000   1.0000
     0.0000   0.0000   0.0000   0.0000   0.0000

     the Fermi energy is    18.4765 ev

!    total energy              =    -753.45508009 Ry
     total all-electron energy =     -5573.811771 Ry
     estimated scf accuracy    <       0.00000007 Ry
     smearing contrib. (-TS)   =      -0.00002538 Ry
     internal energy E=F+TS    =    -753.45505471 Ry

     The total energy is F=E-TS. E is the sum of the following terms:
     one-electron contribution =    -284.60059005 Ry
     hartree contribution      =     165.71713131 Ry
     xc contribution           =     -61.39165741 Ry
     ewald contribution        =    -398.00517241 Ry
     one-center paw contrib.   =    -175.17476614 Ry
      -> PAW hartree energy AE =     221.97333565 Ry
      -> PAW hartree energy PS =    -220.91795838 Ry
      -> PAW xc energy AE      =    -117.66988237 Ry
      -> PAW xc energy PS      =      29.02712203 Ry
      -> total E_H with PAW    =     166.77250857 Ry
      -> total E_XC with PAW   =    -150.03441775 Ry

     total magnetization       =     3.32 Bohr mag/cell
     absolute magnetization    =     3.65 Bohr mag/cell

     convergence has been achieved in  13 iterations

     Writing all to output data dir ./out/Co.save/
 
     init_run     :      0.41s CPU      0.53s WALL (       1 calls)
     electrons    :     31.37s CPU     32.88s WALL (       1 calls)

     Called by init_run:
     wfcinit      :      0.28s CPU      0.37s WALL (       1 calls)
     potinit      :      0.09s CPU      0.10s WALL (       1 calls)
     hinit0       :      0.03s CPU      0.03s WALL (       1 calls)

     Called by electrons:
     c_bands      :     27.83s CPU     29.02s WALL (      13 calls)
     sum_band     :      2.40s CPU      2.51s WALL (      13 calls)
     v_of_rho     :      0.04s CPU      0.04s WALL (      14 calls)
     v_h          :      0.00s CPU      0.00s WALL (      14 calls)
     v_xc         :      0.04s CPU      0.04s WALL (      14 calls)
     newd         :      0.05s CPU      0.06s WALL (      14 calls)
     PAW_pot      :      1.11s CPU      1.31s WALL (      14 calls)
     mix_rho      :      0.01s CPU      0.01s WALL (      13 calls)

     Called by c_bands:
     init_us_2    :      0.14s CPU      0.14s WALL (    3952 calls)
     init_us_2:cp :      0.14s CPU      0.14s WALL (    3952 calls)
     cegterg      :     27.00s CPU     28.17s WALL (    2112 calls)

     Called by sum_band:
     sum_band:wei :      0.02s CPU      0.02s WALL (      13 calls)
     sum_band:loo :      2.27s CPU      2.38s WALL (      13 calls)
     sum_band:buf :      0.01s CPU      0.01s WALL (    1976 calls)
     sum_band:ini :      0.08s CPU      0.07s WALL (    1976 calls)
     sum_band:cal :      0.20s CPU      0.19s WALL (    1976 calls)
     sum_band:bec :      0.00s CPU      0.02s WALL (    1976 calls)
     addusdens    :      0.09s CPU      0.09s WALL (      13 calls)
                                        0.00s GPU  (      13 calls)
     addusd:skk   :      0.00s CPU      0.00s WALL (      13 calls)
                                        0.00s GPU  (      13 calls)

     Called by *egterg:
     cdiaghg      :      6.76s CPU      6.94s WALL (   13594 calls)
     cegterg:over :      0.88s CPU      0.86s WALL (   11770 calls)
     cegterg:upda :      0.11s CPU      0.22s WALL (   11770 calls)
     cegterg:last :      0.40s CPU      0.43s WALL (    8182 calls)
     h_psi        :     17.72s CPU     18.62s WALL (   13882 calls)
     s_psi        :      0.34s CPU      0.29s WALL (   13882 calls)
     g_psi        :      0.06s CPU      0.07s WALL (   11770 calls)

     Called by h_psi:
     h_psi:calbec :      0.93s CPU      0.91s WALL (   13882 calls)
     vloc_psi     :     16.54s CPU     17.31s WALL (   13882 calls)
     add_vuspsi   :      0.20s CPU      0.31s WALL (   13882 calls)

     General routines
     calbec       :      1.12s CPU      1.08s WALL (   15858 calls)
     fft          :      0.02s CPU      0.02s WALL (     344 calls)
     ffts         :      0.00s CPU      0.00s WALL (      54 calls)
     fftw         :     17.56s CPU     18.02s WALL (  410910 calls)
     interpolate  :      0.00s CPU      0.00s WALL (      28 calls)
 
     Parallel routines

     PAW routines
     PAW_pot      :      1.11s CPU      1.31s WALL (      14 calls)
     PAW_symme    :      0.01s CPU      0.01s WALL (      26 calls)
 
     PWSCF        :     32.12s CPU     34.19s WALL

 
   This run was terminated on:   8:22:33  22Mar2024            

=------------------------------------------------------------------------------=
   JOB DONE.
=------------------------------------------------------------------------------=
