# E (eV) pdos(E) 
 -7.447  0.500E+00
 -7.437  0.171E+01
 -7.427  0.322E+01
 -7.417  0.407E+01
 -7.407  0.434E+01
 -7.397  0.429E+01
 -7.387  0.438E+01
 -7.377  0.455E+01
 -7.367  0.501E+01
 -7.357  0.575E+01
 -7.347  0.647E+01
 -7.337  0.748E+01
 -7.327  0.862E+01
 -7.317  0.935E+01
 -7.307  0.986E+01
 -7.297  0.108E+02
 -7.287  0.124E+02
 -7.277  0.131E+02
 -7.267  0.132E+02
 -7.257  0.132E+02
 -7.247  0.131E+02
 -7.237  0.127E+02
 -7.227  0.124E+02
 -7.217  0.123E+02
 -7.207  0.129E+02
 -7.197  0.140E+02
 -7.187  0.148E+02
 -7.177  0.179E+02
 -7.167  0.204E+02
 -7.157  0.199E+02
 -7.147  0.179E+02
 -7.137  0.178E+02
 -7.127  0.184E+02
 -7.117  0.195E+02
 -7.107  0.203E+02
 -7.097  0.208E+02
 -7.087  0.203E+02
 -7.077  0.206E+02
 -7.067  0.217E+02
 -7.057  0.225E+02
 -7.047  0.225E+02
 -7.037  0.242E+02
 -7.027  0.312E+02
 -7.017  0.396E+02
 -7.007  0.432E+02
 -6.997  0.429E+02
 -6.987  0.398E+02
 -6.977  0.381E+02
 -6.967  0.361E+02
 -6.957  0.419E+02
 -6.947  0.369E+02
 -6.937  0.307E+02
 -6.927  0.266E+02
 -6.917  0.255E+02
 -6.907  0.276E+02
 -6.897  0.468E+02
 -6.887  0.547E+02
 -6.877  0.791E+02
 -6.867  0.716E+02
 -6.857  0.651E+02
 -6.847  0.802E+02
 -6.837  0.819E+02
 -6.827  0.985E+02
 -6.817  0.108E+03
 -6.807  0.936E+02
 -6.797  0.887E+02
 -6.787  0.106E+03
 -6.777  0.101E+03
 -6.767  0.102E+03
 -6.757  0.117E+03
 -6.747  0.153E+03
 -6.737  0.113E+03
 -6.727  0.120E+03
 -6.717  0.169E+03
 -6.707  0.126E+03
 -6.697  0.111E+03
 -6.687  0.118E+03
 -6.677  0.125E+03
 -6.667  0.214E+03
 -6.657  0.233E+03
 -6.647  0.200E+03
 -6.637  0.714E+02
 -6.627  0.238E+00
 -6.617  0.000E+00
 -6.607  0.000E+00
 -6.597  0.000E+00
 -6.587  0.000E+00
 -6.577  0.000E+00
 -6.567  0.000E+00
 -6.557  0.000E+00
 -6.547  0.000E+00
 -6.537  0.000E+00
 -6.527  0.000E+00
 -6.517  0.000E+00
 -6.507  0.000E+00
 -6.497  0.000E+00
 -6.487  0.000E+00
 -6.477  0.000E+00
 -6.467  0.000E+00
 -6.457  0.000E+00
 -6.447  0.000E+00
 -6.437  0.000E+00
 -6.427  0.000E+00
 -6.417  0.000E+00
 -6.407  0.000E+00
 -6.397  0.000E+00
 -6.387  0.000E+00
 -6.377  0.000E+00
 -6.367  0.000E+00
 -6.357  0.000E+00
 -6.347  0.000E+00
 -6.337  0.000E+00
 -6.327  0.000E+00
 -6.317  0.000E+00
 -6.307  0.000E+00
 -6.297  0.000E+00
 -6.287  0.000E+00
 -6.277  0.000E+00
 -6.267  0.000E+00
 -6.257  0.000E+00
 -6.247  0.000E+00
 -6.237  0.000E+00
 -6.227  0.000E+00
 -6.217  0.000E+00
 -6.207  0.000E+00
 -6.197  0.000E+00
 -6.187  0.000E+00
 -6.177  0.000E+00
 -6.167  0.000E+00
 -6.157  0.000E+00
 -6.147  0.000E+00
 -6.137  0.000E+00
 -6.127  0.000E+00
 -6.117  0.000E+00
 -6.107  0.000E+00
 -6.097  0.000E+00
 -6.087  0.000E+00
 -6.077  0.000E+00
 -6.067  0.000E+00
 -6.057  0.000E+00
 -6.047  0.000E+00
 -6.037  0.000E+00
 -6.027  0.000E+00
 -6.017  0.000E+00
 -6.007  0.000E+00
 -5.997  0.000E+00
 -5.987  0.000E+00
 -5.977  0.000E+00
 -5.967  0.000E+00
 -5.957  0.000E+00
 -5.947  0.000E+00
 -5.937  0.000E+00
 -5.927  0.000E+00
 -5.917  0.000E+00
 -5.907  0.000E+00
 -5.897  0.000E+00
 -5.887  0.000E+00
 -5.877  0.000E+00
 -5.867  0.000E+00
 -5.857  0.000E+00
 -5.847  0.000E+00
 -5.837  0.000E+00
 -5.827  0.000E+00
 -5.817  0.000E+00
 -5.807  0.000E+00
 -5.797  0.000E+00
 -5.787  0.000E+00
 -5.777  0.000E+00
 -5.767  0.000E+00
 -5.757  0.000E+00
 -5.747  0.000E+00
 -5.737  0.000E+00
 -5.727  0.000E+00
 -5.717  0.000E+00
 -5.707  0.000E+00
 -5.697  0.000E+00
 -5.687  0.000E+00
 -5.677  0.000E+00
 -5.667  0.000E+00
 -5.657  0.000E+00
 -5.647  0.000E+00
 -5.637  0.000E+00
 -5.627  0.000E+00
 -5.617  0.000E+00
 -5.607  0.000E+00
 -5.597  0.000E+00
 -5.587  0.000E+00
 -5.577  0.000E+00
 -5.567  0.000E+00
 -5.557  0.000E+00
 -5.547  0.000E+00
 -5.537  0.000E+00
 -5.527  0.000E+00
 -5.517  0.000E+00
 -5.507  0.000E+00
 -5.497  0.000E+00
 -5.487  0.000E+00
 -5.477  0.000E+00
 -5.467  0.000E+00
 -5.457  0.000E+00
 -5.447  0.000E+00
 -5.437  0.000E+00
 -5.427  0.000E+00
 -5.417  0.000E+00
 -5.407  0.000E+00
 -5.397  0.000E+00
 -5.387  0.000E+00
 -5.377  0.000E+00
 -5.367  0.000E+00
 -5.357  0.000E+00
 -5.347  0.000E+00
 -5.337  0.000E+00
 -5.327  0.000E+00
 -5.317  0.000E+00
 -5.307  0.000E+00
 -5.297  0.000E+00
 -5.287  0.000E+00
 -5.277  0.000E+00
 -5.267  0.000E+00
 -5.257  0.000E+00
 -5.247  0.000E+00
 -5.237  0.000E+00
 -5.227  0.000E+00
 -5.217  0.000E+00
 -5.207  0.000E+00
 -5.197  0.000E+00
 -5.187  0.000E+00
 -5.177  0.000E+00
 -5.167  0.000E+00
 -5.157  0.000E+00
 -5.147  0.000E+00
 -5.137  0.000E+00
 -5.127  0.000E+00
 -5.117  0.000E+00
 -5.107  0.000E+00
 -5.097  0.000E+00
 -5.087  0.000E+00
 -5.077  0.000E+00
 -5.067  0.000E+00
 -5.057  0.000E+00
 -5.047  0.000E+00
 -5.037  0.000E+00
 -5.027  0.000E+00
 -5.017  0.000E+00
 -5.007  0.000E+00
 -4.997  0.000E+00
 -4.987  0.000E+00
 -4.977  0.000E+00
 -4.967  0.000E+00
 -4.957  0.000E+00
 -4.947  0.000E+00
 -4.937  0.000E+00
 -4.927  0.000E+00
 -4.917  0.000E+00
 -4.907  0.000E+00
 -4.897  0.000E+00
 -4.887  0.000E+00
 -4.877  0.000E+00
 -4.867  0.000E+00
 -4.857  0.000E+00
 -4.847  0.000E+00
 -4.837  0.000E+00
 -4.827  0.000E+00
 -4.817  0.000E+00
 -4.807  0.000E+00
 -4.797  0.000E+00
 -4.787  0.000E+00
 -4.777  0.000E+00
 -4.767  0.000E+00
 -4.757  0.000E+00
 -4.747  0.000E+00
 -4.737  0.000E+00
 -4.727  0.000E+00
 -4.717  0.000E+00
 -4.707  0.000E+00
 -4.697  0.000E+00
 -4.687  0.000E+00
 -4.677  0.000E+00
 -4.667  0.000E+00
 -4.657  0.000E+00
 -4.647  0.000E+00
 -4.637  0.000E+00
 -4.627  0.000E+00
 -4.617  0.000E+00
 -4.607  0.000E+00
 -4.597  0.000E+00
 -4.587  0.000E+00
 -4.577  0.000E+00
 -4.567  0.000E+00
 -4.557  0.000E+00
 -4.547  0.000E+00
 -4.537  0.000E+00
 -4.527  0.000E+00
 -4.517  0.000E+00
 -4.507  0.000E+00
 -4.497  0.000E+00
 -4.487  0.000E+00
 -4.477  0.000E+00
 -4.467  0.000E+00
 -4.457  0.000E+00
 -4.447  0.000E+00
 -4.437  0.000E+00
 -4.427  0.000E+00
 -4.417  0.000E+00
 -4.407  0.000E+00
 -4.397  0.000E+00
 -4.387  0.000E+00
 -4.377  0.000E+00
 -4.367  0.000E+00
 -4.357  0.000E+00
 -4.347  0.000E+00
 -4.337  0.000E+00
 -4.327  0.000E+00
 -4.317  0.000E+00
 -4.307  0.000E+00
 -4.297  0.000E+00
 -4.287  0.000E+00
 -4.277  0.000E+00
 -4.267  0.000E+00
 -4.257  0.000E+00
 -4.247  0.000E+00
 -4.237  0.000E+00
 -4.227  0.000E+00
 -4.217  0.000E+00
 -4.207  0.000E+00
 -4.197  0.000E+00
 -4.187  0.000E+00
 -4.177  0.000E+00
 -4.167  0.000E+00
 -4.157  0.000E+00
 -4.147  0.000E+00
 -4.137  0.000E+00
 -4.127  0.000E+00
 -4.117  0.000E+00
 -4.107  0.000E+00
 -4.097  0.000E+00
 -4.087  0.955E+00
 -4.077  0.438E+01
 -4.067  0.107E+02
 -4.057  0.111E+02
 -4.047  0.129E+02
 -4.037  0.187E+02
 -4.027  0.509E+02
 -4.017  0.339E+02
 -4.007  0.518E+02
 -3.997  0.309E+02
 -3.987  0.339E+02
 -3.977  0.393E+02
 -3.967  0.116E+02
 -3.957  0.355E+02
 -3.947  0.228E+02
 -3.937  0.180E+02
 -3.927  0.997E+01
 -3.917  0.228E+00
 -3.907  0.104E+02
 -3.897  0.840E+01
 -3.887  0.920E+01
 -3.877  0.373E+01
 -3.867  0.271E+01
 -3.857  0.451E+01
 -3.847  0.380E+01
 -3.837  0.145E+01
 -3.827  0.222E+01
 -3.817  0.269E+01
 -3.807  0.434E+01
 -3.797  0.216E+01
 -3.787  0.144E+01
 -3.777  0.173E+01
 -3.767  0.192E+01
 -3.757  0.183E+01
 -3.747  0.206E+01
 -3.737  0.228E+01
 -3.727  0.247E+01
 -3.717  0.286E+01
 -3.707  0.279E+01
 -3.697  0.291E+01
 -3.687  0.339E+01
 -3.677  0.375E+01
 -3.667  0.375E+01
 -3.657  0.332E+01
 -3.647  0.267E+01
 -3.637  0.213E+01
 -3.627  0.163E+01
 -3.617  0.157E+01
 -3.607  0.182E+01
 -3.597  0.393E+01
 -3.587  0.441E+01
 -3.577  0.447E+01
 -3.567  0.475E+01
 -3.557  0.525E+01
 -3.547  0.574E+01
 -3.537  0.581E+01
 -3.527  0.464E+01
 -3.517  0.436E+01
 -3.507  0.413E+01
 -3.497  0.397E+01
 -3.487  0.385E+01
 -3.477  0.378E+01
 -3.467  0.376E+01
 -3.457  0.440E+01
 -3.447  0.760E+01
 -3.437  0.118E+02
 -3.427  0.100E+02
 -3.417  0.826E+01
 -3.407  0.680E+01
 -3.397  0.695E+01
 -3.387  0.726E+01
 -3.377  0.809E+01
 -3.367  0.900E+01
 -3.357  0.943E+01
 -3.347  0.101E+02
 -3.337  0.115E+02
 -3.327  0.125E+02
 -3.317  0.156E+02
 -3.307  0.991E+01
 -3.297  0.860E+01
 -3.287  0.872E+01
 -3.277  0.102E+02
 -3.267  0.121E+02
 -3.257  0.203E+02
 -3.247  0.172E+02
 -3.237  0.139E+02
 -3.227  0.133E+02
 -3.217  0.140E+02
 -3.207  0.177E+02
 -3.197  0.200E+02
 -3.187  0.191E+02
 -3.177  0.157E+02
 -3.167  0.123E+02
 -3.157  0.147E+02
 -3.147  0.203E+02
 -3.137  0.295E+02
 -3.127  0.166E+02
 -3.117  0.110E+02
 -3.107  0.744E+01
 -3.097  0.622E+01
 -3.087  0.282E+01
 -3.077  0.376E+00
 -3.067  0.312E-02
 -3.057  0.000E+00
 -3.047  0.000E+00
 -3.037  0.000E+00
 -3.027  0.000E+00
 -3.017  0.000E+00
 -3.007  0.000E+00
 -2.997  0.000E+00
 -2.987  0.000E+00
 -2.977  0.000E+00
 -2.967  0.000E+00
 -2.957  0.000E+00
 -2.947  0.000E+00
 -2.937  0.000E+00
 -2.927  0.000E+00
 -2.917  0.000E+00
 -2.907  0.000E+00
 -2.897  0.000E+00
 -2.887  0.000E+00
 -2.877  0.000E+00
 -2.867  0.000E+00
 -2.857  0.000E+00
 -2.847  0.000E+00
 -2.837  0.000E+00
 -2.827  0.000E+00
 -2.817  0.000E+00
 -2.807  0.000E+00
 -2.797  0.000E+00
 -2.787  0.000E+00
 -2.777  0.000E+00
 -2.767  0.000E+00
 -2.757  0.000E+00
 -2.747  0.000E+00
 -2.737  0.000E+00
 -2.727  0.000E+00
 -2.717  0.000E+00
 -2.707  0.000E+00
 -2.697  0.000E+00
 -2.687  0.000E+00
 -2.677  0.000E+00
 -2.667  0.000E+00
 -2.657  0.000E+00
 -2.647  0.000E+00
 -2.637  0.000E+00
 -2.627  0.000E+00
 -2.617  0.000E+00
 -2.607  0.000E+00
 -2.597  0.000E+00
 -2.587  0.000E+00
 -2.577  0.000E+00
 -2.567  0.000E+00
 -2.557  0.000E+00
 -2.547  0.000E+00
 -2.537  0.000E+00
 -2.527  0.000E+00
 -2.517  0.000E+00
 -2.507  0.000E+00
 -2.497  0.000E+00
 -2.487  0.000E+00
 -2.477  0.000E+00
 -2.467  0.000E+00
 -2.457  0.000E+00
 -2.447  0.000E+00
 -2.437  0.000E+00
 -2.427  0.000E+00
 -2.417  0.000E+00
 -2.407  0.000E+00
 -2.397  0.000E+00
 -2.387  0.000E+00
 -2.377  0.000E+00
 -2.367  0.000E+00
 -2.357  0.000E+00
 -2.347  0.000E+00
 -2.337  0.000E+00
 -2.327  0.000E+00
 -2.317  0.000E+00
 -2.307  0.000E+00
 -2.297  0.000E+00
 -2.287  0.000E+00
 -2.277  0.000E+00
 -2.267  0.000E+00
 -2.257  0.000E+00
 -2.247  0.000E+00
 -2.237  0.000E+00
 -2.227  0.000E+00
 -2.217  0.000E+00
 -2.207  0.000E+00
 -2.197  0.000E+00
 -2.187  0.000E+00
 -2.177  0.000E+00
 -2.167  0.000E+00
 -2.157  0.000E+00
 -2.147  0.000E+00
 -2.137  0.000E+00
 -2.127  0.000E+00
 -2.117  0.000E+00
 -2.107  0.000E+00
 -2.097  0.000E+00
 -2.087  0.000E+00
 -2.077  0.000E+00
 -2.067  0.000E+00
 -2.057  0.000E+00
 -2.047  0.000E+00
 -2.037  0.000E+00
 -2.027  0.000E+00
 -2.017  0.000E+00
 -2.007  0.000E+00
 -1.997  0.000E+00
 -1.987  0.000E+00
 -1.977  0.000E+00
 -1.967  0.000E+00
 -1.957  0.000E+00
 -1.947  0.000E+00
 -1.937  0.000E+00
 -1.927  0.000E+00
 -1.917  0.000E+00
 -1.907  0.000E+00
 -1.897  0.000E+00
 -1.887  0.000E+00
 -1.877  0.000E+00
 -1.867  0.000E+00
 -1.857  0.000E+00
 -1.847  0.000E+00
 -1.837  0.000E+00
 -1.827  0.000E+00
 -1.817  0.000E+00
 -1.807  0.000E+00
 -1.797  0.000E+00
 -1.787  0.000E+00
 -1.777  0.000E+00
 -1.767  0.000E+00
 -1.757  0.000E+00
 -1.747  0.000E+00
 -1.737  0.000E+00
 -1.727  0.000E+00
 -1.717  0.000E+00
 -1.707  0.000E+00
 -1.697  0.000E+00
 -1.687  0.000E+00
 -1.677  0.000E+00
 -1.667  0.000E+00
 -1.657  0.000E+00
 -1.647  0.000E+00
 -1.637  0.000E+00
 -1.627  0.000E+00
 -1.617  0.000E+00
 -1.607  0.000E+00
 -1.597  0.000E+00
 -1.587  0.000E+00
 -1.577  0.000E+00
 -1.567  0.000E+00
 -1.557  0.000E+00
 -1.547  0.000E+00
 -1.537  0.000E+00
 -1.527  0.000E+00
 -1.517  0.000E+00
 -1.507  0.000E+00
 -1.497  0.000E+00
 -1.487  0.000E+00
 -1.477  0.000E+00
 -1.467  0.000E+00
 -1.457  0.000E+00
 -1.447  0.000E+00
 -1.437  0.000E+00
 -1.427  0.000E+00
 -1.417  0.000E+00
 -1.407  0.000E+00
 -1.397  0.000E+00
 -1.387  0.000E+00
 -1.377  0.000E+00
 -1.367  0.000E+00
 -1.357  0.000E+00
 -1.347  0.000E+00
 -1.337  0.000E+00
 -1.327  0.000E+00
 -1.317  0.000E+00
 -1.307  0.000E+00
 -1.297  0.000E+00
 -1.287  0.000E+00
 -1.277  0.000E+00
 -1.267  0.000E+00
 -1.257  0.000E+00
 -1.247  0.000E+00
 -1.237  0.000E+00
 -1.227  0.000E+00
 -1.217  0.000E+00
 -1.207  0.000E+00
 -1.197  0.000E+00
 -1.187  0.000E+00
 -1.177  0.000E+00
 -1.167  0.000E+00
 -1.157  0.000E+00
 -1.147  0.000E+00
 -1.137  0.000E+00
 -1.127  0.000E+00
 -1.117  0.000E+00
 -1.107  0.000E+00
 -1.097  0.000E+00
 -1.087  0.000E+00
 -1.077  0.000E+00
 -1.067  0.000E+00
 -1.057  0.000E+00
 -1.047  0.000E+00
 -1.037  0.000E+00
 -1.027  0.000E+00
 -1.017  0.000E+00
 -1.007  0.000E+00
 -0.997  0.000E+00
 -0.987  0.000E+00
 -0.977  0.000E+00
 -0.967  0.000E+00
 -0.957  0.000E+00
 -0.947  0.000E+00
 -0.937  0.000E+00
 -0.927  0.000E+00
 -0.917  0.000E+00
 -0.907  0.000E+00
 -0.897  0.000E+00
 -0.887  0.000E+00
 -0.877  0.000E+00
 -0.867  0.000E+00
 -0.857  0.000E+00
 -0.847  0.000E+00
 -0.837  0.000E+00
 -0.827  0.000E+00
 -0.817  0.000E+00
 -0.807  0.000E+00
 -0.797  0.000E+00
 -0.787  0.000E+00
 -0.777  0.000E+00
 -0.767  0.000E+00
 -0.757  0.000E+00
 -0.747  0.000E+00
 -0.737  0.000E+00
 -0.727  0.000E+00
 -0.717  0.000E+00
 -0.707  0.000E+00
 -0.697  0.000E+00
 -0.687  0.000E+00
 -0.677  0.000E+00
 -0.667  0.000E+00
 -0.657  0.000E+00
 -0.647  0.000E+00
 -0.637  0.000E+00
 -0.627  0.000E+00
 -0.617  0.000E+00
 -0.607  0.000E+00
 -0.597  0.000E+00
 -0.587  0.000E+00
 -0.577  0.000E+00
 -0.567  0.000E+00
 -0.557  0.000E+00
 -0.547  0.000E+00
 -0.537  0.000E+00
 -0.527  0.000E+00
 -0.517  0.000E+00
 -0.507  0.000E+00
 -0.497  0.000E+00
 -0.487  0.000E+00
 -0.477  0.000E+00
 -0.467  0.000E+00
 -0.457  0.000E+00
 -0.447  0.000E+00
 -0.437  0.000E+00
 -0.427  0.000E+00
 -0.417  0.000E+00
 -0.407  0.000E+00
 -0.397  0.000E+00
 -0.387  0.000E+00
 -0.377  0.000E+00
 -0.367  0.000E+00
 -0.357  0.000E+00
 -0.347  0.000E+00
 -0.337  0.000E+00
 -0.327  0.000E+00
 -0.317  0.000E+00
 -0.307  0.000E+00
 -0.297  0.000E+00
 -0.287  0.000E+00
 -0.277  0.000E+00
 -0.267  0.000E+00
 -0.257  0.000E+00
 -0.247  0.000E+00
 -0.237  0.000E+00
 -0.227  0.000E+00
 -0.217  0.000E+00
 -0.207  0.000E+00
 -0.197  0.000E+00
 -0.187  0.000E+00
 -0.177  0.000E+00
 -0.167  0.000E+00
 -0.157  0.000E+00
 -0.147  0.000E+00
 -0.137  0.000E+00
 -0.127  0.000E+00
 -0.117  0.000E+00
 -0.107  0.000E+00
 -0.097  0.000E+00
 -0.087  0.000E+00
 -0.077  0.000E+00
 -0.067  0.000E+00
 -0.057  0.000E+00
 -0.047  0.000E+00
 -0.037  0.000E+00
 -0.027  0.000E+00
 -0.017  0.000E+00
 -0.007  0.000E+00
  0.003  0.000E+00
  0.013  0.000E+00
  0.023  0.000E+00
  0.033  0.000E+00
  0.043  0.000E+00
  0.053  0.000E+00
  0.063  0.000E+00
  0.073  0.000E+00
  0.083  0.000E+00
  0.093  0.000E+00
  0.103  0.000E+00
  0.113  0.000E+00
  0.123  0.000E+00
  0.133  0.000E+00
  0.143  0.000E+00
  0.153  0.000E+00
  0.163  0.000E+00
  0.173  0.000E+00
  0.183  0.000E+00
  0.193  0.000E+00
  0.203  0.000E+00
  0.213  0.000E+00
  0.223  0.000E+00
  0.233  0.000E+00
  0.243  0.000E+00
  0.253  0.000E+00
  0.263  0.000E+00
  0.273  0.000E+00
  0.283  0.000E+00
  0.293  0.000E+00
  0.303  0.000E+00
  0.313  0.000E+00
  0.323  0.000E+00
  0.333  0.000E+00
  0.343  0.000E+00
  0.353  0.000E+00
  0.363  0.112E-02
  0.373  0.191E-01
  0.383  0.887E-01
  0.393  0.222E+00
  0.403  0.420E+00
  0.413  0.682E+00
  0.423  0.101E+01
  0.433  0.140E+01
  0.443  0.185E+01
  0.453  0.237E+01
  0.463  0.299E+01
  0.473  0.700E+01
  0.483  0.867E+01
  0.493  0.487E+01
  0.503  0.494E+01
  0.513  0.515E+01
  0.523  0.541E+01
  0.533  0.574E+01
  0.543  0.613E+01
  0.553  0.658E+01
  0.563  0.707E+01
  0.573  0.764E+01
  0.583  0.826E+01
  0.593  0.890E+01
  0.603  0.956E+01
  0.613  0.104E+02
  0.623  0.114E+02
  0.633  0.127E+02
  0.643  0.142E+02
  0.653  0.158E+02
  0.663  0.172E+02
  0.673  0.186E+02
  0.683  0.188E+02
  0.693  0.204E+02
  0.703  0.206E+02
  0.713  0.198E+02
  0.723  0.190E+02
  0.733  0.180E+02
  0.743  0.172E+02
  0.753  0.159E+02
  0.763  0.147E+02
  0.773  0.143E+02
  0.783  0.157E+02
  0.793  0.177E+02
  0.803  0.219E+02
  0.813  0.263E+02
  0.823  0.299E+02
  0.833  0.344E+02
  0.843  0.383E+02
  0.853  0.412E+02
  0.863  0.430E+02
  0.873  0.434E+02
  0.883  0.405E+02
  0.893  0.349E+02
  0.903  0.432E+02
  0.913  0.570E+02
  0.923  0.757E+02
  0.933  0.896E+02
  0.943  0.859E+02
  0.953  0.716E+02
  0.963  0.839E+02
  0.973  0.139E+03
  0.983  0.674E+02
  0.993  0.550E+02
  1.003  0.458E+02
  1.013  0.394E+02
  1.023  0.323E+02
  1.033  0.410E+02
  1.043  0.466E+02
  1.053  0.502E+02
  1.063  0.504E+02
  1.073  0.473E+02
  1.083  0.410E+02
  1.093  0.379E+02
  1.103  0.355E+02
  1.113  0.331E+02
  1.123  0.308E+02
  1.133  0.286E+02
  1.143  0.267E+02
  1.153  0.251E+02
  1.163  0.238E+02
  1.173  0.226E+02
  1.183  0.220E+02
  1.193  0.224E+02
  1.203  0.235E+02
  1.213  0.246E+02
  1.223  0.251E+02
  1.233  0.250E+02
  1.243  0.242E+02
  1.253  0.228E+02
  1.263  0.207E+02
  1.273  0.184E+02
  1.283  0.164E+02
  1.293  0.160E+02
  1.303  0.159E+02
  1.313  0.158E+02
  1.323  0.159E+02
  1.333  0.160E+02
  1.343  0.165E+02
  1.353  0.171E+02
  1.363  0.168E+02
  1.373  0.164E+02
  1.383  0.159E+02
  1.393  0.152E+02
  1.403  0.145E+02
  1.413  0.137E+02
  1.423  0.130E+02
  1.433  0.124E+02
  1.443  0.117E+02
  1.453  0.109E+02
  1.463  0.101E+02
  1.473  0.926E+01
  1.483  0.849E+01
  1.493  0.797E+01
  1.503  0.761E+01
  1.513  0.783E+01
  1.523  0.863E+01
  1.533  0.961E+01
  1.543  0.106E+02
  1.553  0.115E+02
  1.563  0.122E+02
  1.573  0.128E+02
  1.583  0.133E+02
  1.593  0.136E+02
  1.603  0.137E+02
  1.613  0.136E+02
  1.623  0.134E+02
  1.633  0.131E+02
  1.643  0.126E+02
  1.653  0.120E+02
  1.663  0.116E+02
  1.673  0.112E+02
  1.683  0.108E+02
  1.693  0.105E+02
  1.703  0.102E+02
  1.713  0.997E+01
  1.723  0.977E+01
  1.733  0.956E+01
  1.743  0.941E+01
  1.753  0.927E+01
  1.763  0.914E+01
  1.773  0.907E+01
  1.783  0.901E+01
  1.793  0.896E+01
  1.803  0.900E+01
  1.813  0.903E+01
  1.823  0.910E+01
  1.833  0.917E+01
  1.843  0.925E+01
  1.853  0.931E+01
  1.863  0.935E+01
  1.873  0.938E+01
  1.883  0.937E+01
  1.893  0.937E+01
  1.903  0.939E+01
  1.913  0.970E+01
  1.923  0.111E+02
  1.933  0.131E+02
  1.943  0.121E+02
  1.953  0.104E+02
  1.963  0.854E+01
  1.973  0.746E+01
  1.983  0.742E+01
  1.993  0.740E+01
  2.003  0.736E+01
  2.013  0.731E+01
  2.023  0.725E+01
  2.033  0.721E+01
  2.043  0.714E+01
  2.053  0.708E+01
  2.063  0.703E+01
  2.073  0.697E+01
  2.083  0.689E+01
  2.093  0.682E+01
  2.103  0.675E+01
  2.113  0.668E+01
  2.123  0.660E+01
  2.133  0.652E+01
  2.143  0.645E+01
  2.153  0.641E+01
  2.163  0.636E+01
  2.173  0.632E+01
  2.183  0.628E+01
  2.193  0.627E+01
  2.203  0.629E+01
  2.213  0.632E+01
  2.223  0.637E+01
  2.233  0.642E+01
  2.243  0.649E+01
  2.253  0.657E+01
  2.263  0.664E+01
  2.273  0.674E+01
  2.283  0.685E+01
  2.293  0.696E+01
  2.303  0.709E+01
  2.313  0.739E+01
  2.323  0.896E+01
  2.333  0.103E+02
  2.343  0.110E+02
  2.353  0.118E+02
  2.363  0.125E+02
  2.373  0.132E+02
  2.383  0.139E+02
  2.393  0.146E+02
  2.403  0.148E+02
  2.413  0.147E+02
  2.423  0.146E+02
  2.433  0.144E+02
  2.443  0.143E+02
  2.453  0.142E+02
  2.463  0.140E+02
  2.473  0.139E+02
  2.483  0.176E+02
  2.493  0.239E+02
  2.503  0.274E+02
  2.513  0.322E+02
  2.523  0.363E+02
  2.533  0.393E+02
  2.543  0.416E+02
  2.553  0.436E+02
  2.563  0.445E+02
  2.573  0.463E+02
  2.583  0.578E+02
  2.593  0.481E+02
  2.603  0.407E+02
  2.613  0.335E+02
  2.623  0.281E+02
  2.633  0.240E+02
  2.643  0.207E+02
  2.653  0.189E+02
  2.663  0.216E+02
  2.673  0.277E+02
  2.683  0.257E+02
  2.693  0.252E+02
  2.703  0.328E+02
  2.713  0.305E+02
  2.723  0.252E+02
  2.733  0.234E+02
  2.743  0.211E+02
  2.753  0.193E+02
  2.763  0.181E+02
  2.773  0.179E+02
  2.783  0.190E+02
  2.793  0.208E+02
  2.803  0.225E+02
  2.813  0.240E+02
  2.823  0.253E+02
  2.833  0.265E+02
  2.843  0.275E+02
  2.853  0.284E+02
  2.863  0.292E+02
  2.873  0.302E+02
  2.883  0.312E+02
  2.893  0.328E+02
  2.903  0.344E+02
  2.913  0.366E+02
  2.923  0.390E+02
  2.933  0.409E+02
  2.943  0.410E+02
  2.953  0.393E+02
  2.963  0.390E+02
  2.973  0.386E+02
  2.983  0.393E+02
  2.993  0.399E+02
  3.003  0.413E+02
  3.013  0.392E+02
  3.023  0.330E+02
  3.033  0.283E+02
  3.043  0.260E+02
  3.053  0.261E+02
  3.063  0.274E+02
  3.073  0.262E+02
  3.083  0.234E+02
  3.093  0.217E+02
  3.103  0.208E+02
  3.113  0.208E+02
  3.123  0.214E+02
  3.133  0.231E+02
  3.143  0.253E+02
  3.153  0.278E+02
  3.163  0.308E+02
  3.173  0.375E+02
  3.183  0.440E+02
  3.193  0.502E+02
  3.203  0.526E+02
  3.213  0.517E+02
  3.223  0.497E+02
  3.233  0.531E+02
  3.243  0.607E+02
  3.253  0.485E+02
  3.263  0.466E+02
  3.273  0.446E+02
  3.283  0.429E+02
  3.293  0.416E+02
  3.303  0.412E+02
  3.313  0.415E+02
  3.323  0.419E+02
  3.333  0.433E+02
  3.343  0.448E+02
  3.353  0.454E+02
  3.363  0.456E+02
  3.373  0.457E+02
  3.383  0.461E+02
  3.393  0.463E+02
  3.403  0.469E+02
  3.413  0.475E+02
  3.423  0.485E+02
  3.433  0.496E+02
  3.443  0.511E+02
  3.453  0.528E+02
  3.463  0.540E+02
  3.473  0.536E+02
  3.483  0.520E+02
  3.493  0.499E+02
  3.503  0.486E+02
  3.513  0.499E+02
  3.523  0.472E+02
  3.533  0.426E+02
  3.543  0.406E+02
  3.553  0.400E+02
  3.563  0.394E+02
  3.573  0.441E+02
  3.583  0.434E+02
  3.593  0.410E+02
  3.603  0.407E+02
  3.613  0.415E+02
  3.623  0.431E+02
  3.633  0.524E+02
  3.643  0.553E+02
  3.653  0.570E+02
  3.663  0.556E+02
  3.673  0.558E+02
  3.683  0.549E+02
  3.693  0.549E+02
  3.703  0.562E+02
  3.713  0.582E+02
  3.723  0.538E+02
  3.733  0.546E+02
  3.743  0.562E+02
  3.753  0.582E+02
  3.763  0.579E+02
  3.773  0.550E+02
  3.783  0.507E+02
  3.793  0.454E+02
  3.803  0.405E+02
  3.813  0.376E+02
  3.823  0.362E+02
  3.833  0.355E+02
  3.843  0.355E+02
  3.853  0.360E+02
  3.863  0.369E+02
  3.873  0.382E+02
  3.883  0.397E+02
  3.893  0.413E+02
  3.903  0.436E+02
  3.913  0.481E+02
  3.923  0.492E+02
  3.933  0.498E+02
  3.943  0.500E+02
  3.953  0.498E+02
  3.963  0.500E+02
  3.973  0.511E+02
  3.983  0.529E+02
  3.993  0.548E+02
  4.003  0.618E+02
  4.013  0.614E+02
  4.023  0.535E+02
  4.033  0.521E+02
  4.043  0.499E+02
  4.053  0.487E+02
  4.063  0.490E+02
  4.073  0.481E+02
  4.083  0.447E+02
  4.093  0.443E+02
  4.103  0.446E+02
  4.113  0.460E+02
  4.123  0.476E+02
  4.133  0.505E+02
  4.143  0.542E+02
  4.153  0.601E+02
  4.163  0.679E+02
  4.173  0.741E+02
  4.183  0.775E+02
  4.193  0.794E+02
  4.203  0.797E+02
  4.213  0.702E+02
  4.223  0.540E+02
  4.233  0.451E+02
  4.243  0.409E+02
  4.253  0.395E+02
  4.263  0.402E+02
  4.273  0.359E+02
  4.283  0.324E+02
  4.293  0.315E+02
  4.303  0.321E+02
  4.313  0.330E+02
  4.323  0.343E+02
  4.333  0.366E+02
  4.343  0.375E+02
  4.353  0.374E+02
  4.363  0.377E+02
  4.373  0.391E+02
  4.383  0.403E+02
  4.393  0.415E+02
  4.403  0.428E+02
  4.413  0.441E+02
  4.423  0.464E+02
  4.433  0.524E+02
  4.443  0.549E+02
  4.453  0.587E+02
  4.463  0.575E+02
  4.473  0.599E+02
  4.483  0.600E+02
  4.493  0.591E+02
  4.503  0.568E+02
  4.513  0.545E+02
  4.523  0.495E+02
  4.533  0.497E+02
  4.543  0.582E+02
  4.553  0.632E+02
  4.563  0.679E+02
  4.573  0.833E+02
  4.583  0.769E+02
  4.593  0.586E+02
  4.603  0.499E+02
  4.613  0.422E+02
  4.623  0.377E+02
  4.633  0.348E+02
  4.643  0.329E+02
  4.653  0.319E+02
  4.663  0.312E+02
  4.673  0.306E+02
  4.683  0.300E+02
  4.693  0.294E+02
  4.703  0.288E+02
  4.713  0.282E+02
  4.723  0.276E+02
  4.733  0.271E+02
  4.743  0.272E+02
  4.753  0.287E+02
  4.763  0.308E+02
  4.773  0.319E+02
  4.783  0.315E+02
  4.793  0.298E+02
  4.803  0.273E+02
  4.813  0.268E+02
  4.823  0.265E+02
  4.833  0.260E+02
  4.843  0.253E+02
  4.853  0.246E+02
  4.863  0.234E+02
  4.873  0.224E+02
  4.883  0.196E+02
  4.893  0.211E+02
  4.903  0.279E+02
  4.913  0.274E+02
  4.923  0.252E+02
  4.933  0.225E+02
  4.943  0.194E+02
  4.953  0.150E+02
  4.963  0.118E+02
  4.973  0.111E+02
  4.983  0.110E+02
  4.993  0.111E+02
  5.003  0.111E+02
  5.013  0.112E+02
  5.023  0.113E+02
  5.033  0.120E+02
  5.043  0.141E+02
  5.053  0.181E+02
  5.063  0.220E+02
  5.073  0.242E+02
  5.083  0.254E+02
  5.093  0.291E+02
  5.103  0.293E+02
  5.113  0.258E+02
  5.123  0.237E+02
  5.133  0.213E+02
  5.143  0.187E+02
  5.153  0.161E+02
  5.163  0.137E+02
  5.173  0.116E+02
  5.183  0.998E+01
  5.193  0.872E+01
  5.203  0.775E+01
  5.213  0.684E+01
  5.223  0.606E+01
  5.233  0.549E+01
  5.243  0.540E+01
  5.253  0.591E+01
  5.263  0.611E+01
  5.273  0.595E+01
  5.283  0.545E+01
  5.293  0.460E+01
  5.303  0.336E+01
  5.313  0.183E+01
  5.323  0.736E+00
  5.333  0.355E+00
  5.343  0.129E+00
  5.353  0.195E-01
  5.363  0.116E-02
  5.373  0.208E-03
  5.383  0.000E+00
  5.393  0.000E+00
  5.403  0.000E+00
  5.413  0.000E+00
  5.423  0.000E+00
  5.433  0.000E+00
  5.443  0.000E+00
  5.453  0.000E+00
  5.463  0.000E+00
  5.473  0.000E+00
  5.483  0.000E+00
  5.493  0.000E+00
  5.503  0.000E+00
  5.513  0.000E+00
  5.523  0.000E+00
  5.533  0.000E+00
  5.543  0.000E+00
  5.553  0.000E+00
  5.563  0.000E+00
  5.573  0.000E+00
  5.583  0.000E+00
  5.593  0.000E+00
  5.603  0.000E+00
  5.613  0.000E+00
  5.623  0.000E+00
  5.633  0.000E+00
  5.643  0.000E+00
  5.653  0.000E+00
  5.663  0.000E+00
  5.673  0.000E+00
  5.683  0.000E+00
  5.693  0.000E+00
  5.703  0.000E+00
  5.713  0.000E+00
  5.723  0.000E+00
  5.733  0.000E+00
  5.743  0.000E+00
  5.753  0.000E+00
  5.763  0.000E+00
  5.773  0.000E+00
  5.783  0.000E+00
  5.793  0.000E+00
  5.803  0.000E+00
  5.813  0.000E+00
  5.823  0.000E+00
  5.833  0.000E+00
  5.843  0.000E+00
  5.853  0.000E+00
  5.863  0.000E+00
  5.873  0.000E+00
  5.883  0.000E+00
  5.893  0.000E+00
  5.903  0.000E+00
  5.913  0.000E+00
  5.923  0.000E+00
  5.933  0.000E+00
  5.943  0.000E+00
  5.953  0.000E+00
  5.963  0.000E+00
  5.973  0.000E+00
  5.983  0.000E+00
  5.993  0.000E+00
  6.003  0.000E+00
  6.013  0.000E+00
  6.023  0.000E+00
  6.033  0.000E+00
  6.043  0.000E+00
  6.053  0.000E+00
  6.063  0.000E+00
  6.073  0.000E+00
  6.083  0.000E+00
  6.093  0.000E+00
  6.103  0.000E+00
  6.113  0.000E+00
  6.123  0.000E+00
  6.133  0.000E+00
  6.143  0.000E+00
  6.153  0.000E+00
  6.163  0.000E+00
  6.173  0.000E+00
  6.183  0.000E+00
  6.193  0.000E+00
  6.203  0.000E+00
  6.213  0.000E+00
  6.223  0.000E+00
  6.233  0.000E+00
  6.243  0.000E+00
  6.253  0.000E+00
  6.263  0.000E+00
  6.273  0.000E+00
  6.283  0.000E+00
  6.293  0.000E+00
  6.303  0.000E+00
  6.313  0.000E+00
  6.323  0.000E+00
  6.333  0.000E+00
  6.343  0.000E+00
  6.353  0.000E+00
  6.363  0.000E+00
  6.373  0.000E+00
  6.383  0.000E+00
  6.393  0.000E+00
  6.403  0.000E+00
  6.413  0.000E+00
  6.423  0.000E+00
  6.433  0.000E+00
  6.443  0.000E+00
  6.453  0.000E+00
  6.463  0.000E+00
  6.473  0.000E+00
  6.483  0.000E+00
  6.493  0.000E+00
  6.503  0.000E+00
  6.513  0.000E+00
  6.523  0.000E+00
  6.533  0.000E+00
  6.543  0.000E+00
  6.553  0.000E+00
  6.563  0.000E+00
  6.573  0.000E+00
  6.583  0.000E+00
  6.593  0.000E+00
  6.603  0.000E+00
  6.613  0.000E+00
  6.623  0.000E+00
  6.633  0.000E+00
  6.643  0.000E+00
  6.653  0.000E+00
  6.663  0.000E+00
  6.673  0.000E+00
  6.683  0.000E+00
  6.693  0.000E+00
  6.703  0.000E+00
  6.713  0.000E+00
  6.723  0.000E+00
  6.733  0.000E+00
  6.743  0.000E+00
  6.753  0.000E+00
  6.763  0.000E+00
  6.773  0.000E+00
  6.783  0.000E+00
  6.793  0.000E+00
  6.803  0.000E+00
  6.813  0.000E+00
  6.823  0.000E+00
  6.833  0.000E+00
  6.843  0.000E+00
  6.853  0.000E+00
  6.863  0.000E+00
  6.873  0.000E+00
  6.883  0.000E+00
  6.893  0.000E+00
  6.903  0.000E+00
  6.913  0.000E+00
  6.923  0.000E+00
  6.933  0.000E+00
  6.943  0.000E+00
  6.953  0.000E+00
  6.963  0.000E+00
  6.973  0.000E+00
  6.983  0.000E+00
  6.993  0.000E+00
  7.003  0.000E+00
  7.013  0.000E+00
  7.023  0.000E+00
  7.033  0.000E+00
  7.043  0.000E+00
  7.053  0.000E+00
  7.063  0.000E+00
  7.073  0.000E+00
  7.083  0.000E+00
  7.093  0.000E+00
  7.103  0.000E+00
  7.113  0.000E+00
  7.123  0.000E+00
  7.133  0.000E+00
  7.143  0.000E+00
  7.153  0.000E+00
  7.163  0.000E+00
  7.173  0.000E+00
  7.183  0.000E+00
  7.193  0.000E+00
  7.203  0.000E+00
  7.213  0.000E+00
  7.223  0.000E+00
  7.233  0.000E+00
  7.243  0.000E+00
  7.253  0.000E+00
  7.263  0.000E+00
  7.273  0.000E+00
  7.283  0.000E+00
  7.293  0.000E+00
  7.303  0.000E+00
  7.313  0.000E+00
  7.323  0.000E+00
  7.333  0.000E+00
  7.343  0.000E+00
  7.353  0.000E+00
  7.363  0.000E+00
  7.373  0.000E+00
  7.383  0.000E+00
  7.393  0.000E+00
  7.403  0.000E+00
  7.413  0.000E+00
  7.423  0.000E+00
  7.433  0.000E+00
  7.443  0.000E+00
  7.453  0.000E+00
  7.463  0.138E-04
  7.473  0.702E-04
  7.483  0.171E-03
  7.493  0.341E-03
  7.503  0.676E-03
  7.513  0.119E-02
  7.523  0.189E-02
  7.533  0.277E-02
  7.543  0.384E-02
  7.553  0.510E-02
  7.563  0.654E-02
  7.573  0.819E-02
  7.583  0.100E-01
  7.593  0.121E-01
  7.603  0.143E-01
  7.613  0.167E-01
  7.623  0.194E-01
  7.633  0.223E-01
  7.643  0.253E-01
  7.653  0.286E-01
  7.663  0.322E-01
  7.673  0.359E-01
  7.683  0.399E-01
  7.693  0.440E-01
  7.703  0.484E-01
  7.713  0.531E-01
  7.723  0.579E-01
  7.733  0.632E-01
  7.743  0.685E-01
  7.753  0.741E-01
  7.763  0.801E-01
  7.773  0.861E-01
  7.783  0.925E-01
  7.793  0.991E-01
  7.803  0.106E+00
  7.813  0.113E+00
  7.823  0.120E+00
  7.833  0.128E+00
  7.843  0.136E+00
  7.853  0.144E+00
  7.863  0.151E+00
  7.873  0.160E+00
  7.883  0.169E+00
  7.893  0.180E+00
  7.903  0.191E+00
  7.913  0.202E+00
  7.923  0.212E+00
  7.933  0.222E+00
  7.943  0.232E+00
  7.953  0.241E+00
  7.963  0.250E+00
  7.973  0.258E+00
  7.983  0.267E+00
  7.993  0.275E+00
  8.003  0.283E+00
  8.013  0.291E+00
  8.023  0.298E+00
  8.033  0.306E+00
  8.043  0.313E+00
  8.053  0.321E+00
  8.063  0.328E+00
  8.073  0.334E+00
  8.083  0.341E+00
  8.093  0.348E+00
  8.103  0.354E+00
  8.113  0.360E+00
  8.123  0.366E+00
  8.133  0.371E+00
  8.143  0.375E+00
  8.153  0.377E+00
  8.163  0.378E+00
  8.173  0.378E+00
  8.183  0.379E+00
  8.193  0.381E+00
  8.203  0.383E+00
  8.213  0.386E+00
  8.223  0.389E+00
  8.233  0.392E+00
  8.243  0.394E+00
  8.253  0.397E+00
  8.263  0.400E+00
  8.273  0.404E+00
  8.283  0.409E+00
  8.293  0.414E+00
  8.303  0.420E+00
  8.313  0.426E+00
  8.323  0.434E+00