### Running on host: unam-asus

     Program PWSCF v.7.2 starts on 16Feb2024 at  0:31:18 

     This program is part of the open-source Quantum ESPRESSO suite
     for quantum simulation of materials; please cite
         "P. Giannozzi et al., J. Phys.:Condens. Matter 21 395502 (2009);
         "P. Giannozzi et al., J. Phys.:Condens. Matter 29 465901 (2017);
         "P. Giannozzi et al., J. Chem. Phys. 152 154105 (2020);
          URL http://www.quantum-espresso.org", 
     in publications or presentations arising from this work. More details at
     http://www.quantum-espresso.org/quote

     Parallel version (MPI), running on    10 processors

     MPI processes distributed on     1 nodes
     778 MiB available memory on the printing compute node when the environment starts

     Reading input from scf.55.in

     Current dimensions of program PWSCF are:
     Max number of different atomic species (ntypx) = 10
     Max number of k-points (npk) =  40000
     Max angular momentum in pseudopotentials (lmaxx) =  4
     file Zn.pbe-dnl-kjpaw_psl.1.0.0.UPF: wavefunction(s)  4S 3D renormalized
     Message from routine setup:
     using ibrav=0 with symmetry is DISCOURAGED, use correct ibrav instead

     R & G space division:  proc/nbgrp/npool/nimage =      10
     Subspace diagonalization in iterative solution of the eigenvalue problem:
     a serial algorithm will be used


     Parallelization info
     --------------------
     sticks:   dense  smooth     PW     G-vecs:    dense   smooth      PW
     Min          36      36     11                 1070     1070     187
     Max          37      37     13                 1077     1077     190
     Sum         367     367    121                10741    10741    1885

     Using Slab Decomposition



     bravais-lattice index     =            0
     lattice parameter (alat)  =       4.9404  a.u.
     unit-cell volume          =     194.6564 (a.u.)^3
     number of atoms/cell      =            2
     number of atomic types    =            1
     number of electrons       =        24.00
     number of Kohn-Sham states=           16
     kinetic-energy cutoff     =      55.0000  Ry
     charge density cutoff     =     220.0000  Ry
     scf convergence threshold =      4.0E-06
     mixing beta               =       0.7000
     number of iterations used =            8  plain     mixing
     Exchange-correlation= SLA  PW   PBX  PBC
                           (   1   4   3   4   0   0   0)

     celldm(1)=   4.940424  celldm(2)=   0.000000  celldm(3)=   0.000000
     celldm(4)=   0.000000  celldm(5)=   0.000000  celldm(6)=   0.000000

     crystal axes: (cart. coord. in units of alat)
               a(1) = (   1.000000   0.000000   0.000000 )  
               a(2) = (  -0.500000   0.866025   0.000000 )  
               a(3) = (   0.000000   0.000000   1.863998 )  

     reciprocal axes: (cart. coord. in units 2 pi/alat)
               b(1) = (  1.000000  0.577350 -0.000000 )  
               b(2) = (  0.000000  1.154701  0.000000 )  
               b(3) = (  0.000000 -0.000000  0.536481 )  


     PseudoPot. # 1 for Zn read from file:
     /home/abdul/git_repo/ZnS_Cu-Vacancy/pseudo/QE/Zn.pbe-dnl-kjpaw_psl.1.0.0.UPF
     MD5 check sum: c608214d9520ac179f507641260889e3
     Pseudo is Projector augmented-wave + core cor, Zval = 12.0
     Generated using &quot;atomic&quot; code by A. Dal Corso  v.6.2.2
     Shape of augmentation charge: PSQ
     Using radial grid of 1201 points,  6 beta functions with: 
                l(1) =   0
                l(2) =   0
                l(3) =   1
                l(4) =   1
                l(5) =   2
                l(6) =   2
     Q(r) pseudized with 0 coefficients 


     atomic species   valence    mass     pseudopotential
        Zn            12.00    65.38000     Zn( 1.00)

     24 Sym. Ops., with inversion, found (12 have fractional translation)


                                    s                        frac. trans.

      isym =  1     identity                                     

 cryst.   s( 1) = (     1          0          0      )
                  (     0          1          0      )
                  (     0          0          1      )

 cart.    s( 1) = (  1.0000000  0.0000000  0.0000000 )
                  (  0.0000000  1.0000000  0.0000000 )
                  (  0.0000000  0.0000000  1.0000000 )


      isym =  2     180 deg rotation - cart. axis [0,0,1]        

 cryst.   s( 2) = (    -1          0          0      )    f =(  0.0000000 )
                  (     0         -1          0      )       (  0.0000000 )
                  (     0          0          1      )       ( -0.5000000 )

 cart.    s( 2) = ( -1.0000000  0.0000000  0.0000000 )    f =(  0.0000000 )
                  (  0.0000000 -1.0000000  0.0000000 )       (  0.0000000 )
                  (  0.0000000  0.0000000  1.0000000 )       ( -0.9319989 )


      isym =  3     180 deg rotation - cart. axis [0,1,0]        

 cryst.   s( 3) = (    -1          0          0      )    f =(  0.0000000 )
                  (     1          1          0      )       (  0.0000000 )
                  (     0          0         -1      )       (  0.5000000 )

 cart.    s( 3) = ( -1.0000000  0.0000000  0.0000000 )    f =(  0.0000000 )
                  (  0.0000000  1.0000000  0.0000000 )       (  0.0000000 )
                  (  0.0000000  0.0000000 -1.0000000 )       (  0.9319989 )


      isym =  4     180 deg rotation - cart. axis [1,0,0]        

 cryst.   s( 4) = (     1          0          0      )
                  (    -1         -1          0      )
                  (     0          0         -1      )

 cart.    s( 4) = (  1.0000000  0.0000000  0.0000000 )
                  (  0.0000000 -1.0000000  0.0000000 )
                  (  0.0000000  0.0000000 -1.0000000 )


      isym =  5      60 deg rotation - cryst. axis [0,0,1]       

 cryst.   s( 5) = (     1          1          0      )    f =(  0.0000000 )
                  (    -1          0          0      )       ( -0.0000000 )
                  (     0          0          1      )       ( -0.5000000 )

 cart.    s( 5) = (  0.5000000 -0.8660254  0.0000000 )    f =(  0.0000000 )
                  (  0.8660254  0.5000000  0.0000000 )       ( -0.0000000 )
                  (  0.0000000  0.0000000  1.0000000 )       ( -0.9319989 )


      isym =  6      60 deg rotation - cryst. axis [0,0,-1]      

 cryst.   s( 6) = (     0         -1          0      )    f =(  0.0000000 )
                  (     1          1          0      )       ( -0.0000000 )
                  (     0          0          1      )       ( -0.5000000 )

 cart.    s( 6) = (  0.5000000  0.8660254  0.0000000 )    f =(  0.0000000 )
                  ( -0.8660254  0.5000000  0.0000000 )       ( -0.0000000 )
                  (  0.0000000  0.0000000  1.0000000 )       ( -0.9319989 )


      isym =  7     120 deg rotation - cryst. axis [0,0,1]       

 cryst.   s( 7) = (     0          1          0      )
                  (    -1         -1          0      )
                  (     0          0          1      )

 cart.    s( 7) = ( -0.5000000 -0.8660254  0.0000000 )
                  (  0.8660254 -0.5000000  0.0000000 )
                  (  0.0000000  0.0000000  1.0000000 )


      isym =  8     120 deg rotation - cryst. axis [0,0,-1]      

 cryst.   s( 8) = (    -1         -1          0      )
                  (     1          0          0      )
                  (     0          0          1      )

 cart.    s( 8) = ( -0.5000000  0.8660254  0.0000000 )
                  ( -0.8660254 -0.5000000  0.0000000 )
                  (  0.0000000  0.0000000  1.0000000 )


      isym =  9     180 deg rotation - cryst. axis [1,-1,0]      

 cryst.   s( 9) = (     0         -1          0      )    f =(  0.0000000 )
                  (    -1          0          0      )       (  0.0000000 )
                  (     0          0         -1      )       (  0.5000000 )

 cart.    s( 9) = (  0.5000000 -0.8660254  0.0000000 )    f =(  0.0000000 )
                  ( -0.8660254 -0.5000000  0.0000000 )       (  0.0000000 )
                  (  0.0000000  0.0000000 -1.0000000 )       (  0.9319989 )


      isym = 10     180 deg rotation - cryst. axis [2,1,0]       

 cryst.   s(10) = (     1          1          0      )    f =(  0.0000000 )
                  (     0         -1          0      )       ( -0.0000000 )
                  (     0          0         -1      )       (  0.5000000 )

 cart.    s(10) = (  0.5000000  0.8660254  0.0000000 )    f =(  0.0000000 )
                  (  0.8660254 -0.5000000  0.0000000 )       ( -0.0000000 )
                  (  0.0000000  0.0000000 -1.0000000 )       (  0.9319989 )


      isym = 11     180 deg rotation - cryst. axis [0,1,0]       

 cryst.   s(11) = (    -1         -1          0      )
                  (     0          1          0      )
                  (     0          0         -1      )

 cart.    s(11) = ( -0.5000000 -0.8660254  0.0000000 )
                  ( -0.8660254  0.5000000  0.0000000 )
                  (  0.0000000  0.0000000 -1.0000000 )


      isym = 12     180 deg rotation - cryst. axis [1,1,0]       

 cryst.   s(12) = (     0          1          0      )
                  (     1          0          0      )
                  (     0          0         -1      )

 cart.    s(12) = ( -0.5000000  0.8660254  0.0000000 )
                  (  0.8660254  0.5000000  0.0000000 )
                  (  0.0000000  0.0000000 -1.0000000 )


      isym = 13     inversion                                    

 cryst.   s(13) = (    -1          0          0      )
                  (     0         -1          0      )
                  (     0          0         -1      )

 cart.    s(13) = ( -1.0000000  0.0000000  0.0000000 )
                  (  0.0000000 -1.0000000  0.0000000 )
                  (  0.0000000  0.0000000 -1.0000000 )


      isym = 14     inv. 180 deg rotation - cart. axis [0,0,1]   

 cryst.   s(14) = (     1          0          0      )    f =(  0.0000000 )
                  (     0          1          0      )       (  0.0000000 )
                  (     0          0         -1      )       (  0.5000000 )

 cart.    s(14) = (  1.0000000  0.0000000  0.0000000 )    f =(  0.0000000 )
                  (  0.0000000  1.0000000  0.0000000 )       (  0.0000000 )
                  (  0.0000000  0.0000000 -1.0000000 )       (  0.9319989 )


      isym = 15     inv. 180 deg rotation - cart. axis [0,1,0]   

 cryst.   s(15) = (     1          0          0      )    f =(  0.0000000 )
                  (    -1         -1          0      )       (  0.0000000 )
                  (     0          0          1      )       ( -0.5000000 )

 cart.    s(15) = (  1.0000000  0.0000000  0.0000000 )    f =(  0.0000000 )
                  (  0.0000000 -1.0000000  0.0000000 )       (  0.0000000 )
                  (  0.0000000  0.0000000  1.0000000 )       ( -0.9319989 )


      isym = 16     inv. 180 deg rotation - cart. axis [1,0,0]   

 cryst.   s(16) = (    -1          0          0      )
                  (     1          1          0      )
                  (     0          0          1      )

 cart.    s(16) = ( -1.0000000  0.0000000  0.0000000 )
                  (  0.0000000  1.0000000  0.0000000 )
                  (  0.0000000  0.0000000  1.0000000 )


      isym = 17     inv.  60 deg rotation - cryst. axis [0,0,1]  

 cryst.   s(17) = (    -1         -1          0      )    f =(  0.0000000 )
                  (     1          0          0      )       (  0.0000000 )
                  (     0          0         -1      )       (  0.5000000 )

 cart.    s(17) = ( -0.5000000  0.8660254  0.0000000 )    f =(  0.0000000 )
                  ( -0.8660254 -0.5000000  0.0000000 )       (  0.0000000 )
                  (  0.0000000  0.0000000 -1.0000000 )       (  0.9319989 )


      isym = 18     inv.  60 deg rotation - cryst. axis [0,0,-1] 

 cryst.   s(18) = (     0          1          0      )    f =(  0.0000000 )
                  (    -1         -1          0      )       ( -0.0000000 )
                  (     0          0         -1      )       (  0.5000000 )

 cart.    s(18) = ( -0.5000000 -0.8660254  0.0000000 )    f =(  0.0000000 )
                  (  0.8660254 -0.5000000  0.0000000 )       ( -0.0000000 )
                  (  0.0000000  0.0000000 -1.0000000 )       (  0.9319989 )


      isym = 19     inv. 120 deg rotation - cryst. axis [0,0,1]  

 cryst.   s(19) = (     0         -1          0      )
                  (     1          1          0      )
                  (     0          0         -1      )

 cart.    s(19) = (  0.5000000  0.8660254  0.0000000 )
                  ( -0.8660254  0.5000000  0.0000000 )
                  (  0.0000000  0.0000000 -1.0000000 )


      isym = 20     inv. 120 deg rotation - cryst. axis [0,0,-1] 

 cryst.   s(20) = (     1          1          0      )
                  (    -1          0          0      )
                  (     0          0         -1      )

 cart.    s(20) = (  0.5000000 -0.8660254  0.0000000 )
                  (  0.8660254  0.5000000  0.0000000 )
                  (  0.0000000  0.0000000 -1.0000000 )


      isym = 21     inv. 180 deg rotation - cryst. axis [1,-1,0] 

 cryst.   s(21) = (     0          1          0      )    f =(  0.0000000 )
                  (     1          0          0      )       ( -0.0000000 )
                  (     0          0          1      )       ( -0.5000000 )

 cart.    s(21) = ( -0.5000000  0.8660254  0.0000000 )    f =(  0.0000000 )
                  (  0.8660254  0.5000000  0.0000000 )       ( -0.0000000 )
                  (  0.0000000  0.0000000  1.0000000 )       ( -0.9319989 )


      isym = 22     inv. 180 deg rotation - cryst. axis [2,1,0]  

 cryst.   s(22) = (    -1         -1          0      )    f =(  0.0000000 )
                  (     0          1          0      )       ( -0.0000000 )
                  (     0          0          1      )       ( -0.5000000 )

 cart.    s(22) = ( -0.5000000 -0.8660254  0.0000000 )    f =(  0.0000000 )
                  ( -0.8660254  0.5000000  0.0000000 )       ( -0.0000000 )
                  (  0.0000000  0.0000000  1.0000000 )       ( -0.9319989 )


      isym = 23     inv. 180 deg rotation - cryst. axis [0,1,0]  

 cryst.   s(23) = (     1          1          0      )
                  (     0         -1          0      )
                  (     0          0          1      )

 cart.    s(23) = (  0.5000000  0.8660254  0.0000000 )
                  (  0.8660254 -0.5000000  0.0000000 )
                  (  0.0000000  0.0000000  1.0000000 )


      isym = 24     inv. 180 deg rotation - cryst. axis [1,1,0]  

 cryst.   s(24) = (     0         -1          0      )
                  (    -1          0          0      )
                  (     0          0          1      )

 cart.    s(24) = (  0.5000000 -0.8660254  0.0000000 )
                  ( -0.8660254 -0.5000000  0.0000000 )
                  (  0.0000000  0.0000000  1.0000000 )


   Cartesian axes

     site n.     atom                  positions (alat units)
         1           Zn  tau(   1) = (  -0.0000000   0.5773503   0.4659995  )
         2           Zn  tau(   2) = (   0.5000000   0.2886751   1.3979984  )

   Crystallographic axes

     site n.     atom                  positions (cryst. coord.)
         1           Zn  tau(   1) = (  0.3333333  0.6666667  0.2500000  )
         2           Zn  tau(   2) = (  0.6666667  0.3333333  0.7500000  )

     number of k points=    96  Marzari-Vanderbilt smearing, width (Ry)=  0.0073
                       cart. coord. in units 2pi/alat
        k(    1) = (   0.0000000   0.0000000   0.0000000), wk =   0.0014577
        k(    2) = (   0.0000000   0.0000000   0.0766402), wk =   0.0029155
        k(    3) = (   0.0000000   0.0000000   0.1532804), wk =   0.0029155
        k(    4) = (   0.0000000   0.0000000   0.2299206), wk =   0.0029155
        k(    5) = (   0.0000000   0.0824786   0.0000000), wk =   0.0087464
        k(    6) = (   0.0000000   0.0824786   0.0766402), wk =   0.0174927
        k(    7) = (   0.0000000   0.0824786   0.1532804), wk =   0.0174927
        k(    8) = (   0.0000000   0.0824786   0.2299206), wk =   0.0174927
        k(    9) = (   0.0000000   0.1649572   0.0000000), wk =   0.0087464
        k(   10) = (   0.0000000   0.1649572   0.0766402), wk =   0.0174927
        k(   11) = (   0.0000000   0.1649572   0.1532804), wk =   0.0174927
        k(   12) = (   0.0000000   0.1649572   0.2299206), wk =   0.0174927
        k(   13) = (   0.0000000   0.2474358   0.0000000), wk =   0.0087464
        k(   14) = (   0.0000000   0.2474358   0.0766402), wk =   0.0174927
        k(   15) = (   0.0000000   0.2474358   0.1532804), wk =   0.0174927
        k(   16) = (   0.0000000   0.2474358   0.2299206), wk =   0.0174927
        k(   17) = (   0.0000000   0.3299144   0.0000000), wk =   0.0087464
        k(   18) = (   0.0000000   0.3299144   0.0766402), wk =   0.0174927
        k(   19) = (   0.0000000   0.3299144   0.1532804), wk =   0.0174927
        k(   20) = (   0.0000000   0.3299144   0.2299206), wk =   0.0174927
        k(   21) = (   0.0000000   0.4123930   0.0000000), wk =   0.0087464
        k(   22) = (   0.0000000   0.4123930   0.0766402), wk =   0.0174927
        k(   23) = (   0.0000000   0.4123930   0.1532804), wk =   0.0174927
        k(   24) = (   0.0000000   0.4123930   0.2299206), wk =   0.0174927
        k(   25) = (   0.0000000   0.4948717   0.0000000), wk =   0.0087464
        k(   26) = (   0.0000000   0.4948717   0.0766402), wk =   0.0174927
        k(   27) = (   0.0000000   0.4948717   0.1532804), wk =   0.0174927
        k(   28) = (   0.0000000   0.4948717   0.2299206), wk =   0.0174927
        k(   29) = (   0.0000000  -0.5773503   0.0000000), wk =   0.0043732
        k(   30) = (   0.0000000  -0.5773503   0.0766402), wk =   0.0087464
        k(   31) = (   0.0000000  -0.5773503   0.1532804), wk =   0.0087464
        k(   32) = (   0.0000000  -0.5773503   0.2299206), wk =   0.0087464
        k(   33) = (   0.0714286   0.1237179   0.0000000), wk =   0.0087464
        k(   34) = (   0.0714286   0.1237179   0.0766402), wk =   0.0174927
        k(   35) = (   0.0714286   0.1237179   0.1532804), wk =   0.0174927
        k(   36) = (   0.0714286   0.1237179   0.2299206), wk =   0.0174927
        k(   37) = (   0.0714286   0.2061965   0.0000000), wk =   0.0174927
        k(   38) = (   0.0714286   0.2061965   0.0766402), wk =   0.0349854
        k(   39) = (   0.0714286   0.2061965   0.1532804), wk =   0.0349854
        k(   40) = (   0.0714286   0.2061965   0.2299206), wk =   0.0349854
        k(   41) = (   0.0714286   0.2886751   0.0000000), wk =   0.0174927
        k(   42) = (   0.0714286   0.2886751   0.0766402), wk =   0.0349854
        k(   43) = (   0.0714286   0.2886751   0.1532804), wk =   0.0349854
        k(   44) = (   0.0714286   0.2886751   0.2299206), wk =   0.0349854
        k(   45) = (   0.0714286   0.3711537   0.0000000), wk =   0.0174927
        k(   46) = (   0.0714286   0.3711537   0.0766402), wk =   0.0349854
        k(   47) = (   0.0714286   0.3711537   0.1532804), wk =   0.0349854
        k(   48) = (   0.0714286   0.3711537   0.2299206), wk =   0.0349854
        k(   49) = (   0.0714286   0.4536324   0.0000000), wk =   0.0174927
        k(   50) = (   0.0714286   0.4536324   0.0766402), wk =   0.0349854
        k(   51) = (   0.0714286   0.4536324   0.1532804), wk =   0.0349854
        k(   52) = (   0.0714286   0.4536324   0.2299206), wk =   0.0349854
        k(   53) = (   0.0714286   0.5361110   0.0000000), wk =   0.0174927
        k(   54) = (   0.0714286   0.5361110   0.0766402), wk =   0.0349854
        k(   55) = (   0.0714286   0.5361110   0.1532804), wk =   0.0349854
        k(   56) = (   0.0714286   0.5361110   0.2299206), wk =   0.0349854
        k(   57) = (   0.1428571   0.2474358   0.0000000), wk =   0.0087464
        k(   58) = (   0.1428571   0.2474358   0.0766402), wk =   0.0174927
        k(   59) = (   0.1428571   0.2474358   0.1532804), wk =   0.0174927
        k(   60) = (   0.1428571   0.2474358   0.2299206), wk =   0.0174927
        k(   61) = (   0.1428571   0.3299144   0.0000000), wk =   0.0174927
        k(   62) = (   0.1428571   0.3299144   0.0766402), wk =   0.0349854
        k(   63) = (   0.1428571   0.3299144   0.1532804), wk =   0.0349854
        k(   64) = (   0.1428571   0.3299144   0.2299206), wk =   0.0349854
        k(   65) = (   0.1428571   0.4123930   0.0000000), wk =   0.0174927
        k(   66) = (   0.1428571   0.4123930   0.0766402), wk =   0.0349854
        k(   67) = (   0.1428571   0.4123930   0.1532804), wk =   0.0349854
        k(   68) = (   0.1428571   0.4123930   0.2299206), wk =   0.0349854
        k(   69) = (   0.1428571   0.4948717   0.0000000), wk =   0.0174927
        k(   70) = (   0.1428571   0.4948717   0.0766402), wk =   0.0349854
        k(   71) = (   0.1428571   0.4948717   0.1532804), wk =   0.0349854
        k(   72) = (   0.1428571   0.4948717   0.2299206), wk =   0.0349854
        k(   73) = (   0.1428571   0.5773503   0.0000000), wk =   0.0087464
        k(   74) = (   0.1428571   0.5773503   0.0766402), wk =   0.0174927
        k(   75) = (   0.1428571   0.5773503   0.1532804), wk =   0.0174927
        k(   76) = (   0.1428571   0.5773503   0.2299206), wk =   0.0174927
        k(   77) = (   0.2142857   0.3711537   0.0000000), wk =   0.0087464
        k(   78) = (   0.2142857   0.3711537   0.0766402), wk =   0.0174927
        k(   79) = (   0.2142857   0.3711537   0.1532804), wk =   0.0174927
        k(   80) = (   0.2142857   0.3711537   0.2299206), wk =   0.0174927
        k(   81) = (   0.2142857   0.4536324   0.0000000), wk =   0.0174927
        k(   82) = (   0.2142857   0.4536324   0.0766402), wk =   0.0349854
        k(   83) = (   0.2142857   0.4536324   0.1532804), wk =   0.0349854
        k(   84) = (   0.2142857   0.4536324   0.2299206), wk =   0.0349854
        k(   85) = (   0.2142857   0.5361110   0.0000000), wk =   0.0174927
        k(   86) = (   0.2142857   0.5361110   0.0766402), wk =   0.0349854
        k(   87) = (   0.2142857   0.5361110   0.1532804), wk =   0.0349854
        k(   88) = (   0.2142857   0.5361110   0.2299206), wk =   0.0349854
        k(   89) = (   0.2857143   0.4948717   0.0000000), wk =   0.0087464
        k(   90) = (   0.2857143   0.4948717   0.0766402), wk =   0.0174927
        k(   91) = (   0.2857143   0.4948717   0.1532804), wk =   0.0174927
        k(   92) = (   0.2857143   0.4948717   0.2299206), wk =   0.0174927
        k(   93) = (   0.2857143   0.5773503   0.0000000), wk =   0.0087464
        k(   94) = (   0.2857143   0.5773503   0.0766402), wk =   0.0174927
        k(   95) = (   0.2857143   0.5773503   0.1532804), wk =   0.0174927
        k(   96) = (   0.2857143   0.5773503   0.2299206), wk =   0.0174927

                       cryst. coord.
        k(    1) = (   0.0000000   0.0000000   0.0000000), wk =   0.0014577
        k(    2) = (   0.0000000   0.0000000   0.1428571), wk =   0.0029155
        k(    3) = (   0.0000000   0.0000000   0.2857143), wk =   0.0029155
        k(    4) = (   0.0000000   0.0000000   0.4285714), wk =   0.0029155
        k(    5) = (   0.0000000   0.0714286   0.0000000), wk =   0.0087464
        k(    6) = (   0.0000000   0.0714286   0.1428571), wk =   0.0174927
        k(    7) = (   0.0000000   0.0714286   0.2857143), wk =   0.0174927
        k(    8) = (   0.0000000   0.0714286   0.4285714), wk =   0.0174927
        k(    9) = (   0.0000000   0.1428571   0.0000000), wk =   0.0087464
        k(   10) = (   0.0000000   0.1428571   0.1428571), wk =   0.0174927
        k(   11) = (   0.0000000   0.1428571   0.2857143), wk =   0.0174927
        k(   12) = (   0.0000000   0.1428571   0.4285714), wk =   0.0174927
        k(   13) = (   0.0000000   0.2142857   0.0000000), wk =   0.0087464
        k(   14) = (   0.0000000   0.2142857   0.1428571), wk =   0.0174927
        k(   15) = (   0.0000000   0.2142857   0.2857143), wk =   0.0174927
        k(   16) = (   0.0000000   0.2142857   0.4285714), wk =   0.0174927
        k(   17) = (   0.0000000   0.2857143   0.0000000), wk =   0.0087464
        k(   18) = (   0.0000000   0.2857143   0.1428571), wk =   0.0174927
        k(   19) = (   0.0000000   0.2857143   0.2857143), wk =   0.0174927
        k(   20) = (   0.0000000   0.2857143   0.4285714), wk =   0.0174927
        k(   21) = (   0.0000000   0.3571429   0.0000000), wk =   0.0087464
        k(   22) = (   0.0000000   0.3571429   0.1428571), wk =   0.0174927
        k(   23) = (   0.0000000   0.3571429   0.2857143), wk =   0.0174927
        k(   24) = (   0.0000000   0.3571429   0.4285714), wk =   0.0174927
        k(   25) = (   0.0000000   0.4285714   0.0000000), wk =   0.0087464
        k(   26) = (   0.0000000   0.4285714   0.1428571), wk =   0.0174927
        k(   27) = (   0.0000000   0.4285714   0.2857143), wk =   0.0174927
        k(   28) = (   0.0000000   0.4285714   0.4285714), wk =   0.0174927
        k(   29) = (   0.0000000  -0.5000000   0.0000000), wk =   0.0043732
        k(   30) = (   0.0000000  -0.5000000   0.1428571), wk =   0.0087464
        k(   31) = (   0.0000000  -0.5000000   0.2857143), wk =   0.0087464
        k(   32) = (   0.0000000  -0.5000000   0.4285714), wk =   0.0087464
        k(   33) = (   0.0714286   0.0714286   0.0000000), wk =   0.0087464
        k(   34) = (   0.0714286   0.0714286   0.1428571), wk =   0.0174927
        k(   35) = (   0.0714286   0.0714286   0.2857143), wk =   0.0174927
        k(   36) = (   0.0714286   0.0714286   0.4285714), wk =   0.0174927
        k(   37) = (   0.0714286   0.1428571   0.0000000), wk =   0.0174927
        k(   38) = (   0.0714286   0.1428571   0.1428571), wk =   0.0349854
        k(   39) = (   0.0714286   0.1428571   0.2857143), wk =   0.0349854
        k(   40) = (   0.0714286   0.1428571   0.4285714), wk =   0.0349854
        k(   41) = (   0.0714286   0.2142857   0.0000000), wk =   0.0174927
        k(   42) = (   0.0714286   0.2142857   0.1428571), wk =   0.0349854
        k(   43) = (   0.0714286   0.2142857   0.2857143), wk =   0.0349854
        k(   44) = (   0.0714286   0.2142857   0.4285714), wk =   0.0349854
        k(   45) = (   0.0714286   0.2857143   0.0000000), wk =   0.0174927
        k(   46) = (   0.0714286   0.2857143   0.1428571), wk =   0.0349854
        k(   47) = (   0.0714286   0.2857143   0.2857143), wk =   0.0349854
        k(   48) = (   0.0714286   0.2857143   0.4285714), wk =   0.0349854
        k(   49) = (   0.0714286   0.3571429   0.0000000), wk =   0.0174927
        k(   50) = (   0.0714286   0.3571429   0.1428571), wk =   0.0349854
        k(   51) = (   0.0714286   0.3571429   0.2857143), wk =   0.0349854
        k(   52) = (   0.0714286   0.3571429   0.4285714), wk =   0.0349854
        k(   53) = (   0.0714286   0.4285714   0.0000000), wk =   0.0174927
        k(   54) = (   0.0714286   0.4285714   0.1428571), wk =   0.0349854
        k(   55) = (   0.0714286   0.4285714   0.2857143), wk =   0.0349854
        k(   56) = (   0.0714286   0.4285714   0.4285714), wk =   0.0349854
        k(   57) = (   0.1428571   0.1428571   0.0000000), wk =   0.0087464
        k(   58) = (   0.1428571   0.1428571   0.1428571), wk =   0.0174927
        k(   59) = (   0.1428571   0.1428571   0.2857143), wk =   0.0174927
        k(   60) = (   0.1428571   0.1428571   0.4285714), wk =   0.0174927
        k(   61) = (   0.1428571   0.2142857   0.0000000), wk =   0.0174927
        k(   62) = (   0.1428571   0.2142857   0.1428571), wk =   0.0349854
        k(   63) = (   0.1428571   0.2142857   0.2857143), wk =   0.0349854
        k(   64) = (   0.1428571   0.2142857   0.4285714), wk =   0.0349854
        k(   65) = (   0.1428571   0.2857143   0.0000000), wk =   0.0174927
        k(   66) = (   0.1428571   0.2857143   0.1428571), wk =   0.0349854
        k(   67) = (   0.1428571   0.2857143   0.2857143), wk =   0.0349854
        k(   68) = (   0.1428571   0.2857143   0.4285714), wk =   0.0349854
        k(   69) = (   0.1428571   0.3571429   0.0000000), wk =   0.0174927
        k(   70) = (   0.1428571   0.3571429   0.1428571), wk =   0.0349854
        k(   71) = (   0.1428571   0.3571429   0.2857143), wk =   0.0349854
        k(   72) = (   0.1428571   0.3571429   0.4285714), wk =   0.0349854
        k(   73) = (   0.1428571   0.4285714   0.0000000), wk =   0.0087464
        k(   74) = (   0.1428571   0.4285714   0.1428571), wk =   0.0174927
        k(   75) = (   0.1428571   0.4285714   0.2857143), wk =   0.0174927
        k(   76) = (   0.1428571   0.4285714   0.4285714), wk =   0.0174927
        k(   77) = (   0.2142857   0.2142857   0.0000000), wk =   0.0087464
        k(   78) = (   0.2142857   0.2142857   0.1428571), wk =   0.0174927
        k(   79) = (   0.2142857   0.2142857   0.2857143), wk =   0.0174927
        k(   80) = (   0.2142857   0.2142857   0.4285714), wk =   0.0174927
        k(   81) = (   0.2142857   0.2857143   0.0000000), wk =   0.0174927
        k(   82) = (   0.2142857   0.2857143   0.1428571), wk =   0.0349854
        k(   83) = (   0.2142857   0.2857143   0.2857143), wk =   0.0349854
        k(   84) = (   0.2142857   0.2857143   0.4285714), wk =   0.0349854
        k(   85) = (   0.2142857   0.3571429   0.0000000), wk =   0.0174927
        k(   86) = (   0.2142857   0.3571429   0.1428571), wk =   0.0349854
        k(   87) = (   0.2142857   0.3571429   0.2857143), wk =   0.0349854
        k(   88) = (   0.2142857   0.3571429   0.4285714), wk =   0.0349854
        k(   89) = (   0.2857143   0.2857143   0.0000000), wk =   0.0087464
        k(   90) = (   0.2857143   0.2857143   0.1428571), wk =   0.0174927
        k(   91) = (   0.2857143   0.2857143   0.2857143), wk =   0.0174927
        k(   92) = (   0.2857143   0.2857143   0.4285714), wk =   0.0174927
        k(   93) = (   0.2857143   0.3571429   0.0000000), wk =   0.0087464
        k(   94) = (   0.2857143   0.3571429   0.1428571), wk =   0.0174927
        k(   95) = (   0.2857143   0.3571429   0.2857143), wk =   0.0174927
        k(   96) = (   0.2857143   0.3571429   0.4285714), wk =   0.0174927

     Dense  grid:    10741 G-vectors     FFT dimensions: (  24,  24,  48)

     Dynamical RAM for                 wfc:       0.03 MB

     Dynamical RAM for     wfc (w. buffer):       3.17 MB

     Dynamical RAM for           str. fact:       0.02 MB

     Dynamical RAM for           local pot:       0.00 MB

     Dynamical RAM for          nlocal pot:       0.07 MB

     Dynamical RAM for                qrad:       1.19 MB

     Dynamical RAM for          rho,v,vnew:       0.12 MB

     Dynamical RAM for               rhoin:       0.04 MB

     Dynamical RAM for            rho*nmix:       0.26 MB

     Dynamical RAM for           G-vectors:       0.07 MB

     Dynamical RAM for          h,s,v(r/c):       0.05 MB

     Dynamical RAM for          <psi|beta>:       0.01 MB

     Dynamical RAM for                 psi:       0.07 MB

     Dynamical RAM for                hpsi:       0.07 MB

     Dynamical RAM for                spsi:       0.07 MB

     Dynamical RAM for      wfcinit/wfcrot:       0.07 MB

     Dynamical RAM for           addusdens:       3.09 MB

     Estimated static dynamical RAM per process >       4.82 MB

     Estimated max dynamical RAM per process >       8.17 MB

     Estimated total dynamical RAM >      81.73 MB

     The initial density is read from file :
     ./out/Zn.save/charge-density

     Starting wfcs from file
     Checking if some PAW data can be deallocated... 

     total cpu time spent up to now is        0.6 secs

     Self-consistent Calculation

     iteration #  1     ecut=    55.00 Ry     beta= 0.70
     Davidson diagonalization with overlap

---- Real-time Memory Report at c_bands before calling an iterative solver
            45 MiB given to the printing process from OS
             0 MiB allocation reported by mallinfo(arena+hblkhd)
           611 MiB available memory on the node where the printing process lives
------------------
     ethr =  1.00E-05,  avg # of iterations =  2.2

     Threshold (ethr) on eigenvalues was too large:
     Diagonalizing with lowered threshold

     Davidson diagonalization with overlap

---- Real-time Memory Report at c_bands before calling an iterative solver
            45 MiB given to the printing process from OS
             0 MiB allocation reported by mallinfo(arena+hblkhd)
           577 MiB available memory on the node where the printing process lives
------------------
     ethr =  1.11E-07,  avg # of iterations =  1.4

     total cpu time spent up to now is        2.9 secs

     total energy              =    -487.44229847 Ry
     estimated scf accuracy    <       0.00002612 Ry

     iteration #  2     ecut=    55.00 Ry     beta= 0.70
     Davidson diagonalization with overlap

---- Real-time Memory Report at c_bands before calling an iterative solver
            51 MiB given to the printing process from OS
             0 MiB allocation reported by mallinfo(arena+hblkhd)
           594 MiB available memory on the node where the printing process lives
------------------
     ethr =  1.09E-07,  avg # of iterations =  2.0

     total cpu time spent up to now is        4.2 secs

     total energy              =    -487.44230663 Ry
     estimated scf accuracy    <       0.00002623 Ry

     iteration #  3     ecut=    55.00 Ry     beta= 0.70
     Davidson diagonalization with overlap

---- Real-time Memory Report at c_bands before calling an iterative solver
            51 MiB given to the printing process from OS
             0 MiB allocation reported by mallinfo(arena+hblkhd)
           610 MiB available memory on the node where the printing process lives
------------------
     ethr =  1.09E-07,  avg # of iterations =  2.0

     total cpu time spent up to now is        5.6 secs

     End of self-consistent calculation

          k = 0.0000 0.0000 0.0000 (  1323 PWs)   bands (ev):

     1.0673   3.0939   3.8988   4.1613   4.1613   4.2159   4.2159   4.5876
     4.5876   4.8154   4.8154   7.9810   8.8881  25.8242  29.4380  30.0646

     occupation numbers 
     1.0000   1.0000   1.0000   1.0000   1.0000   1.0000   1.0000   1.0000
     1.0000   1.0000   1.0000   1.0000   1.0000   0.0000   0.0000   0.0000

          k = 0.0000 0.0000 0.0766 (  1336 PWs)   bands (ev):

     1.1948   3.0733   3.9005   4.1598   4.1598   4.2099   4.2099   4.6029
     4.6029   4.8074   4.8074   6.6475  10.5061  23.8310  30.1936  30.1936

     occupation numbers 
     1.0000   1.0000   1.0000   1.0000   1.0000   1.0000   1.0000   1.0000
     1.0000   1.0000   1.0000   1.0000   1.0000   0.0000   0.0000   0.0000

          k = 0.0000 0.0000 0.1533 (  1324 PWs)   bands (ev):

     1.5646   2.9761   3.9214   4.1587   4.1587   4.1947   4.1947   4.6437
     4.6437   4.7835   4.7835   5.2871  12.7527  20.8669  30.5668  30.5668

     occupation numbers 
     1.0000   1.0000   1.0000   1.0000   1.0000   1.0000   1.0000   1.0000
     1.0000   1.0000   1.0000   1.0000   0.0000   0.0000   0.0000   0.0000

          k = 0.0000 0.0000 0.2299 (  1348 PWs)   bands (ev):

     2.1185   2.6735   4.0217   4.1639   4.1639   4.1767   4.1767   4.3920
     4.6947   4.6947   4.7445   4.7445  15.2517  17.9690  31.1233  31.1233

     occupation numbers 
     1.0000   1.0000   1.0000   1.0000   1.0000   1.0000   1.0000   1.0000
     1.0000   1.0000   1.0000   1.0000   0.0000   0.0000   0.0000   0.0000

          k = 0.0000 0.0825 0.0000 (  1328 PWs)   bands (ev):

     1.2248   3.1671   3.9162   4.1443   4.1977   4.2008   4.2536   4.5501
     4.5720   4.7132   4.8171   8.2468   8.9651  25.9994  27.3977  28.6889

     occupation numbers 
     1.0000   1.0000   1.0000   1.0000   1.0000   1.0000   1.0000   1.0000
     1.0000   1.0000   1.0000   1.0000   1.0000   0.0000   0.0000   0.0000

          k = 0.0000 0.0825 0.0766 (  1333 PWs)   bands (ev):

     1.3514   3.1513   3.9170   4.1403   4.1900   4.1987   4.2474   4.5698
     4.5888   4.6944   4.8084   6.8541  10.6500  23.9783  27.5521  28.8246

     occupation numbers 
     1.0000   1.0000   1.0000   1.0000   1.0000   1.0000   1.0000   1.0000
     1.0000   1.0000   1.0000   1.0000   1.0000   0.0000   0.0000   0.0000

          k = 0.0000 0.0825 0.1533 (  1331 PWs)   bands (ev):

     1.7181   3.0704   3.9312   4.1358   4.1707   4.1964   4.2319   4.5870
     4.6324   4.6456   4.7823   5.5372  12.9009  21.0115  27.9363  29.2278

     occupation numbers 
     1.0000   1.0000   1.0000   1.0000   1.0000   1.0000   1.0000   1.0000
     1.0000   1.0000   1.0000   1.0000   0.0000   0.0000   0.0000   0.0000

          k = 0.0000 0.0825 0.2299 (  1339 PWs)   bands (ev):

     2.2638   2.7971   4.0079   4.1407   4.1461   4.2010   4.2141   4.3020
     4.6872   4.7158   4.7403   4.8783  15.3992  18.1149  28.5625  29.4211

     occupation numbers 
     1.0000   1.0000   1.0000   1.0000   1.0000   1.0000   1.0000   1.0000
     1.0000   1.0000   1.0000   1.0000   0.0000   0.0000   0.0000   0.0000

          k = 0.0000 0.1650 0.0000 (  1328 PWs)   bands (ev):

     1.6866   3.3542   3.9473   4.1076   4.1802   4.3128   4.3601   4.3858
     4.5311   4.5512   4.8195   8.9566   9.2150  23.9060  26.4852  26.9435

     occupation numbers 
     1.0000   1.0000   1.0000   1.0000   1.0000   1.0000   1.0000   1.0000
     1.0000   1.0000   1.0000   1.0000   1.0000   0.0000   0.0000   0.0000

          k = 0.0000 0.1650 0.0766 (  1331 PWs)   bands (ev):

     1.8094   3.3502   3.9491   4.0957   4.1596   4.3083   4.3532   4.3916
     4.5525   4.5595   4.8088   7.3715  11.0898  23.9467  24.5206  27.0873

     occupation numbers 
     1.0000   1.0000   1.0000   1.0000   1.0000   1.0000   1.0000   1.0000
     1.0000   1.0000   1.0000   1.0000   1.0000   0.0000   0.0000   0.0000

          k = 0.0000 0.1650 0.1533 (  1333 PWs)   bands (ev):

     2.1619   3.3121   3.9521   4.0764   4.1182   4.3027   4.3367   4.3371
     4.6047   4.6260   4.7777   6.0214  13.3449  21.4260  24.4657  27.0996

     occupation numbers 
     1.0000   1.0000   1.0000   1.0000   1.0000   1.0000   1.0000   1.0000
     1.0000   1.0000   1.0000   1.0000   0.0000   0.0000   0.0000   0.0000

          k = 0.0000 0.1650 0.2299 (  1327 PWs)   bands (ev):

     2.6720   3.1255   3.9699   4.0380   4.1083   4.1945   4.3057   4.3185
     4.6683   4.7292   4.7884   5.1642  15.8377  18.5446  25.0995  25.9848

     occupation numbers 
     1.0000   1.0000   1.0000   1.0000   1.0000   1.0000   1.0000   1.0000
     1.0000   1.0000   1.0000   1.0000   0.0000   0.0000   0.0000   0.0000

          k = 0.0000 0.2474 0.0000 (  1340 PWs)   bands (ev):

     2.3993   3.5303   3.9850   4.0685   4.1263   4.2931   4.4359   4.4766
     4.4785   4.5175   4.8184   9.6902   9.9826  20.5591  25.4056  26.5402

     occupation numbers 
     1.0000   1.0000   1.0000   1.0000   1.0000   1.0000   1.0000   1.0000
     1.0000   1.0000   1.0000   1.0000   1.0000   0.0000   0.0000   0.0000

          k = 0.0000 0.2474 0.0766 (  1343 PWs)   bands (ev):

     2.5069   3.5375   3.9826   4.0421   4.1170   4.2832   4.4500   4.4871
     4.5015   4.5323   4.8059   8.1061  11.8375  20.6823  25.0344  25.1440

     occupation numbers 
     1.0000   1.0000   1.0000   1.0000   1.0000   1.0000   1.0000   1.0000
     1.0000   1.0000   1.0000   1.0000   0.4360   0.0000   0.0000   0.0000

          k = 0.0000 0.2474 0.1533 (  1335 PWs)   bands (ev):

     2.8034   3.5419   3.9572   3.9806   4.1166   4.2558   4.4409   4.4876
     4.5886   4.6420   4.7710   6.6871  14.0791  20.9836  22.2538  23.8114

     occupation numbers 
     1.0000   1.0000   1.0000   1.0000   1.0000   1.0000   1.0000   1.0000
     1.0000   1.0000   1.0000   1.0000   0.0000   0.0000   0.0000   0.0000

          k = 0.0000 0.2474 0.2299 (  1330 PWs)   bands (ev):

     3.1865   3.4632   3.9117   3.9245   4.1541   4.2090   4.4483   4.4664
     4.6542   4.7180   4.9689   5.6241  16.5504  19.2084  21.8197  22.6858

     occupation numbers 
     1.0000   1.0000   1.0000   1.0000   1.0000   1.0000   1.0000   1.0000
     1.0000   1.0000   1.0000   1.0000   0.0000   0.0000   0.0000   0.0000

          k = 0.0000 0.3299 0.0000 (  1338 PWs)   bands (ev):

     3.1150   3.5400   3.8977   4.0770   4.2054   4.3250   4.4200   4.6578
     4.6695   4.6973   4.8136  10.4541  11.2548  17.4484  23.2639  24.0547

     occupation numbers 
     1.0000   1.0000   1.0000   1.0000   1.0000   1.0000   1.0000   1.0000
     1.0000   1.0000   1.0000   1.0000   1.0000   0.0000   0.0000   0.0000

          k = 0.0000 0.3299 0.0766 (  1349 PWs)   bands (ev):

     3.1628   3.5480   3.8908   4.0281   4.1785   4.4341   4.4747   4.6665
     4.6716   4.6895   4.8032   9.0730  12.8837  17.5757  22.0842  24.2975

     occupation numbers 
     1.0000   1.0000   1.0000   1.0000   1.0000   1.0000   1.0000   1.0000
     1.0000   1.0000   1.0000   1.0000   0.0000   0.0000   0.0000   0.0000

          k = 0.0000 0.3299 0.1533 (  1341 PWs)   bands (ev):

     3.2805   3.5589   3.8646   3.9121   4.2668   4.4743   4.5447   4.6480
     4.6954   4.7780   4.9188   7.6179  15.0759  17.9488  20.7590  23.0195

     occupation numbers 
     1.0000   1.0000   1.0000   1.0000   1.0000   1.0000   1.0000   1.0000
     1.0000   1.0000   1.0000   1.0000   0.0000   0.0000   0.0000   0.0000

          k = 0.0000 0.3299 0.2299 (  1333 PWs)   bands (ev):

     3.4169   3.5241   3.8303   3.8460   4.3815   4.4803   4.5324   4.5954
     4.7185   4.7474   5.5226   6.4261  17.4325  18.4839  19.7106  20.4092

     occupation numbers 
     1.0000   1.0000   1.0000   1.0000   1.0000   1.0000   1.0000   1.0000
     1.0000   1.0000   1.0000   1.0000   0.0000   0.0000   0.0000   0.0000

          k = 0.0000 0.4124 0.0000 (  1358 PWs)   bands (ev):

     3.3626   3.4735   3.7310   4.2001   4.2279   4.3712   4.4599   4.8068
     4.8462   4.8660   5.6812  11.4911  12.7359  14.6767  20.4246  21.4353

     occupation numbers 
     1.0000   1.0000   1.0000   1.0000   1.0000   1.0000   1.0000   1.0000
     1.0000   1.0000   1.0000   1.0001   0.0000   0.0000   0.0000   0.0000

          k = 0.0000 0.4124 0.0766 (  1349 PWs)   bands (ev):

     3.3590   3.4693   3.7511   4.0518   4.2921   4.3906   4.5872   4.7767
     4.8488   4.8726   5.7651  10.2906  14.1090  14.8422  19.3122  22.6675

     occupation numbers 
     1.0000   1.0000   1.0000   1.0000   1.0000   1.0000   1.0000   1.0000
     1.0000   1.0000   1.0000   1.0000   0.0000   0.0000   0.0000   0.0000

          k = 0.0000 0.4124 0.1533 (  1344 PWs)   bands (ev):

     3.3644   3.4696   3.7648   3.8770   4.4246   4.4449   4.7067   4.7077
     4.8555   4.8763   6.0835   8.8591  15.1012  16.1624  18.1867  23.3995

     occupation numbers 
     1.0000   1.0000   1.0000   1.0000   1.0000   1.0000   1.0000   1.0000
     1.0000   1.0000   1.0000   1.0000   0.0000   0.0000   0.0000   0.0000

          k = 0.0000 0.4124 0.2299 (  1341 PWs)   bands (ev):

     3.4011   3.4508   3.7562   3.7763   4.5258   4.5802   4.6187   4.6935
     4.8641   4.8723   6.7165   7.6529  15.7288  16.4867  19.0957  21.4583

     occupation numbers 
     1.0000   1.0000   1.0000   1.0000   1.0000   1.0000   1.0000   1.0000
     1.0000   1.0000   1.0000   1.0000   0.0000   0.0000   0.0000   0.0000

          k = 0.0000 0.4949 0.0000 (  1344 PWs)   bands (ev):

     3.3501   3.4312   3.6323   4.1616   4.2927   4.3388   4.6126   4.8012
     4.9702   4.9893   7.2996  11.4726  13.5876  14.3591  17.8989  19.1155

     occupation numbers 
     1.0000   1.0000   1.0000   1.0000   1.0000   1.0000   1.0000   1.0000
     1.0000   1.0000   1.0000   1.0000   0.0000   0.0000   0.0000   0.0000

          k = 0.0000 0.4949 0.0766 (  1345 PWs)   bands (ev):

     3.3531   3.3991   3.6681   4.0364   4.3560   4.3601   4.7037   4.7760
     4.9714   4.9895   7.4005  11.1718  12.8513  15.3832  17.2300  20.3372

     occupation numbers 
     1.0000   1.0000   1.0000   1.0000   1.0000   1.0000   1.0000   1.0000
     1.0000   1.0000   1.0000   1.0000   0.0000   0.0000   0.0000   0.0000

          k = 0.0000 0.4949 0.1533 (  1352 PWs)   bands (ev):

     3.3413   3.3895   3.6988   3.8505   4.4202   4.5043   4.7069   4.8073
     4.9752   4.9883   7.7267  10.2124  12.8038  15.0303  18.3470  22.0411

     occupation numbers 
     1.0000   1.0000   1.0000   1.0000   1.0000   1.0000   1.0000   1.0000
     1.0000   1.0000   1.0000   1.0000   0.0000   0.0000   0.0000   0.0000

          k = 0.0000 0.4949 0.2299 (  1355 PWs)   bands (ev):

     3.3523   3.3830   3.7013   3.7317   4.5095   4.6114   4.6792   4.7997
     4.9802   4.9850   8.3146   9.1646  13.2900  14.0706  20.4688  22.3896

     occupation numbers 
     1.0000   1.0000   1.0000   1.0000   1.0000   1.0000   1.0000   1.0000
     1.0000   1.0000   1.0000   1.0000   0.0000   0.0000   0.0000   0.0000

          k = 0.0000-0.5774 0.0000 (  1340 PWs)   bands (ev):

     3.3309   3.4163   3.6000   4.1380   4.3256   4.3274   4.6617   4.7991
     5.0138   5.0350   8.9177   9.7470  14.6351  15.5059  16.2989  17.7356

     occupation numbers 
     1.0000   1.0000   1.0000   1.0000   1.0000   1.0000   1.0000   1.0000
     1.0000   1.0000   1.0000   1.0000   0.0000   0.0000   0.0000   0.0000

          k = 0.0000-0.5774 0.0766 (  1342 PWs)   bands (ev):

     3.3399   3.3727   3.6406   4.0255   4.3493   4.3800   4.7457   4.7740
     5.0152   5.0340   9.0199   9.7932  13.9835  14.2841  17.8026  18.6175

     occupation numbers 
     1.0000   1.0000   1.0000   1.0000   1.0000   1.0000   1.0000   1.0000
     1.0000   1.0000   1.0000   1.0000   0.0000   0.0000   0.0000   0.0000

          k = 0.0000-0.5774 0.1533 (  1342 PWs)   bands (ev):

     3.3289   3.3579   3.6759   3.8398   4.4114   4.5288   4.7049   4.8435
     5.0188   5.0314   9.3149   9.9087  12.9438  13.0790  19.8368  20.3469

     occupation numbers 
     1.0000   1.0000   1.0000   1.0000   1.0000   1.0000   1.0000   1.0000
     1.0000   1.0000   1.0000   1.0000   0.0000   0.0000   0.0000   0.0000

          k = 0.0000-0.5774 0.2299 (  1342 PWs)   bands (ev):

     3.3321   3.3575   3.6819   3.7163   4.5030   4.6074   4.7088   4.8334
     5.0234   5.0277   9.7173   9.9619  12.2515  12.3169  21.8025  22.0447

     occupation numbers 
     1.0000   1.0000   1.0000   1.0000   1.0000   1.0000   1.0000   1.0000
     1.0000   1.0000   1.0000   1.0000   0.0000   0.0000   0.0000   0.0000

          k = 0.0714 0.1237 0.0000 (  1331 PWs)   bands (ev):

     1.5349   3.2996   3.9403   4.1201   4.1611   4.2814   4.3336   4.4703
     4.4969   4.6143   4.8152   8.7313   9.1289  25.6637  25.7595  26.3345

     occupation numbers 
     1.0000   1.0000   1.0000   1.0000   1.0000   1.0000   1.0000   1.0000
     1.0000   1.0000   1.0000   1.0000   1.0000   0.0000   0.0000   0.0000

          k = 0.0714 0.1237 0.0766 (  1335 PWs)   bands (ev):

     1.6593   3.2920   3.9415   4.1083   4.1499   4.2777   4.3265   4.4653
     4.5289   4.6119   4.8056   7.2105  10.9422  24.2472  25.7964  25.9516

     occupation numbers 
     1.0000   1.0000   1.0000   1.0000   1.0000   1.0000   1.0000   1.0000
     1.0000   1.0000   1.0000   1.0000   1.0000   0.0000   0.0000   0.0000

          k = 0.0714 0.1237 0.1533 (  1332 PWs)   bands (ev):

     2.0177   3.2409   3.9474   4.0926   4.1198   4.2721   4.3103   4.3980
     4.6139   4.6300   4.7779   5.8770  13.1972  21.2934  26.1918  26.3239

     occupation numbers 
     1.0000   1.0000   1.0000   1.0000   1.0000   1.0000   1.0000   1.0000
     1.0000   1.0000   1.0000   1.0000   0.0000   0.0000   0.0000   0.0000

          k = 0.0714 0.1237 0.2299 (  1334 PWs)   bands (ev):

     2.5424   3.0259   3.9823   4.0697   4.1050   4.2053   4.2840   4.2927
     4.6773   4.7235   4.7679   5.0764  15.6924  18.4032  26.8393  26.9464

     occupation numbers 
     1.0000   1.0000   1.0000   1.0000   1.0000   1.0000   1.0000   1.0000
     1.0000   1.0000   1.0000   1.0000   0.0000   0.0000   0.0000   0.0000

          k = 0.0714 0.2062 0.0000 (  1340 PWs)   bands (ev):

     2.1295   3.5014   3.9454   4.0847   4.1690   4.2327   4.4168   4.4316
     4.4924   4.5496   4.8094   9.4940   9.5894  22.2967  24.2163  26.8505

     occupation numbers 
     1.0000   1.0000   1.0000   1.0000   1.0000   1.0000   1.0000   1.0000
     1.0000   1.0000   1.0000   1.0000   1.0000   0.0000   0.0000   0.0000

          k = 0.0714 0.2062 0.0766 (  1333 PWs)   bands (ev):

     2.2457   3.5065   3.9530   4.0609   4.1242   4.2433   4.4180   4.4644
     4.4879   4.5702   4.7997   7.8240  11.5385  22.4138  24.2903  24.9222

     occupation numbers 
     1.0000   1.0000   1.0000   1.0000   1.0000   1.0000   1.0000   1.0000
     1.0000   1.0000   1.0000   1.0000   1.0012   0.0000   0.0000   0.0000

          k = 0.0714 0.2062 0.1533 (  1331 PWs)   bands (ev):

     2.5741   3.5016   3.9655   4.0087   4.0572   4.2124   4.4060   4.4639
     4.5969   4.6247   4.7741   6.4301  13.7879  21.7723  22.9214  24.7788

     occupation numbers 
     1.0000   1.0000   1.0000   1.0000   1.0000   1.0000   1.0000   1.0000
     1.0000   1.0000   1.0000   1.0000   0.0000   0.0000   0.0000   0.0000

          k = 0.0714 0.2062 0.2299 (  1333 PWs)   bands (ev):

     3.0276   3.3883   3.9399   3.9528   4.0617   4.1329   4.4168   4.4394
     4.6642   4.7131   4.8940   5.4395  16.2707  18.9611  23.5120  24.3974

     occupation numbers 
     1.0000   1.0000   1.0000   1.0000   1.0000   1.0000   1.0000   1.0000
     1.0000   1.0000   1.0000   1.0000   0.0000   0.0000   0.0000   0.0000

          k = 0.0714 0.2887 0.0000 (  1349 PWs)   bands (ev):

     2.8926   3.6049   3.9951   4.0132   4.0582   4.3284   4.3302   4.4758
     4.6181   4.7413   4.8017  10.1234  10.7289  19.0681  22.9553  24.8713

     occupation numbers 
     1.0000   1.0000   1.0000   1.0000   1.0000   1.0000   1.0000   1.0000
     1.0000   1.0000   1.0000   1.0000   1.0000   0.0000   0.0000   0.0000

          k = 0.0714 0.2887 0.0766 (  1338 PWs)   bands (ev):

     2.9749   3.6166   3.9616   4.0159   4.0489   4.2987   4.4298   4.4731
     4.6350   4.7193   4.8124   8.6688  12.4420  19.1950  23.0810  23.6883

     occupation numbers 
     1.0000   1.0000   1.0000   1.0000   1.0000   1.0000   1.0000   1.0000
     1.0000   1.0000   1.0000   1.0000   0.0000   0.0000   0.0000   0.0000

          k = 0.0714 0.2887 0.1533 (  1337 PWs)   bands (ev):

     3.1860   3.6368   3.8972   3.9526   4.1025   4.2678   4.4765   4.6116
     4.6408   4.7146   4.8717   7.2260  14.6613  19.5585  22.3429  22.6515

     occupation numbers 
     1.0000   1.0000   1.0000   1.0000   1.0000   1.0000   1.0000   1.0000
     1.0000   1.0000   1.0000   1.0000   0.0000   0.0000   0.0000   0.0000

          k = 0.0714 0.2887 0.2299 (  1331 PWs)   bands (ev):

     3.4271   3.5954   3.8586   3.8956   4.1636   4.2215   4.5143   4.5746
     4.7042   4.7339   5.2741   6.0801  17.1005  19.5376  20.5576  21.2340

     occupation numbers 
     1.0000   1.0000   1.0000   1.0000   1.0000   1.0000   1.0000   1.0000
     1.0000   1.0000   1.0000   1.0000   0.0000   0.0000   0.0000   0.0000

          k = 0.0714 0.3712 0.0000 (  1345 PWs)   bands (ev):

     3.3812   3.5526   3.8079   4.1444   4.2483   4.2650   4.4020   4.6106
     4.7928   4.7964   5.3089  11.0617  12.1008  16.1042  21.8841  22.0009

     occupation numbers 
     1.0000   1.0000   1.0000   1.0000   1.0000   1.0000   1.0000   1.0000
     1.0000   1.0000   1.0000   1.0000   0.0000   0.0000   0.0000   0.0000

          k = 0.0714 0.3712 0.0766 (  1346 PWs)   bands (ev):

     3.3880   3.5588   3.8219   4.0315   4.2127   4.4093   4.4788   4.6047
     4.7633   4.8086   5.3666   9.7754  13.6218  16.2326  20.7563  22.1058

     occupation numbers 
     1.0000   1.0000   1.0000   1.0000   1.0000   1.0000   1.0000   1.0000
     1.0000   1.0000   1.0000   1.0000   0.0000   0.0000   0.0000   0.0000

          k = 0.0714 0.3712 0.1533 (  1344 PWs)   bands (ev):

     3.4179   3.5695   3.8232   3.8893   4.2946   4.4522   4.5604   4.6849
     4.7047   4.8289   5.6207   8.3288  15.7439  16.6171  19.4658  22.4838

     occupation numbers 
     1.0000   1.0000   1.0000   1.0000   1.0000   1.0000   1.0000   1.0000
     1.0000   1.0000   1.0000   1.0000   0.0000   0.0000   0.0000   0.0000

          k = 0.0714 0.3712 0.2299 (  1343 PWs)   bands (ev):

     3.4781   3.5458   3.7995   3.8203   4.4074   4.4908   4.5286   4.5988
     4.8010   4.8354   6.2089   7.1267  17.1914  17.6156  18.8972  20.9797

     occupation numbers 
     1.0000   1.0000   1.0000   1.0000   1.0000   1.0000   1.0000   1.0000
     1.0000   1.0000   1.0000   1.0000   0.0000   0.0000   0.0000   0.0000

          k = 0.0714 0.4536 0.0000 (  1348 PWs)   bands (ev):

     3.4198   3.4997   3.6833   4.1829   4.2571   4.3437   4.4943   4.7846
     4.8389   4.9261   6.6108  12.0432  13.6647  13.7261  19.2165  20.3260

     occupation numbers 
     1.0000   1.0000   1.0000   1.0000   1.0000   1.0000   1.0000   1.0000
     1.0000   1.0000   1.0000   0.0003   0.0000   0.0000   0.0000   0.0000

          k = 0.0714 0.4536 0.0766 (  1344 PWs)   bands (ev):

     3.4177   3.4756   3.7212   4.0414   4.3007   4.3811   4.6065   4.7573
     4.8363   4.9299   6.7089  11.0634  13.5986  15.0504  18.1955  21.4198

     occupation numbers 
     1.0000   1.0000   1.0000   1.0000   1.0000   1.0000   1.0000   1.0000
     1.0000   1.0000   1.0000   1.0000   0.0000   0.0000   0.0000   0.0000

          k = 0.0714 0.4536 0.1533 (  1347 PWs)   bands (ev):

     3.4059   3.4731   3.7514   3.8641   4.3684   4.4923   4.6847   4.7290
     4.8385   4.9354   7.0357   9.7086  13.9495  16.1137  17.8887  21.8364

     occupation numbers 
     1.0000   1.0000   1.0000   1.0000   1.0000   1.0000   1.0000   1.0000
     1.0000   1.0000   1.0000   1.0000   0.0000   0.0000   0.0000   0.0000

          k = 0.0714 0.4536 0.2299 (  1350 PWs)   bands (ev):

     3.4244   3.4633   3.7452   3.7618   4.4704   4.5814   4.6223   4.7152
     4.8860   4.9249   7.6437   8.5440  14.5507  15.3641  19.8351  22.0142

     occupation numbers 
     1.0000   1.0000   1.0000   1.0000   1.0000   1.0000   1.0000   1.0000
     1.0000   1.0000   1.0000   1.0000   0.0000   0.0000   0.0000   0.0000

          k = 0.0714 0.5361 0.0000 (  1337 PWs)   bands (ev):

     3.3819   3.4727   3.6221   4.1468   4.3119   4.3201   4.6083   4.7798
     4.9554   4.9853   8.3797  10.6181  14.3213  15.2488  16.9428  18.2743

     occupation numbers 
     1.0000   1.0000   1.0000   1.0000   1.0000   1.0000   1.0000   1.0000
     1.0000   1.0000   1.0000   1.0000   0.0000   0.0000   0.0000   0.0000

          k = 0.0714 0.5361 0.0766 (  1341 PWs)   bands (ev):

     3.3904   3.4255   3.6707   4.0321   4.3023   4.4016   4.6987   4.7529
     4.9519   4.9843   8.4821  10.6332  13.3772  15.1423  17.4195  19.3893

     occupation numbers 
     1.0000   1.0000   1.0000   1.0000   1.0000   1.0000   1.0000   1.0000
     1.0000   1.0000   1.0000   1.0000   0.0000   0.0000   0.0000   0.0000

          k = 0.0714 0.5361 0.1533 (  1348 PWs)   bands (ev):

     3.3775   3.4140   3.7096   3.8505   4.3570   4.5461   4.6784   4.8155
     4.9404   4.9792   8.7965  10.5252  12.5043  14.0795  19.2495  21.1893

     occupation numbers 
     1.0000   1.0000   1.0000   1.0000   1.0000   1.0000   1.0000   1.0000
     1.0000   1.0000   1.0000   1.0000   0.0000   0.0000   0.0000   0.0000

          k = 0.0714 0.5361 0.2299 (  1347 PWs)   bands (ev):

     3.3841   3.4134   3.7103   3.7346   4.4577   4.5729   4.7095   4.8241
     4.9424   4.9647   9.3236   9.9959  12.4879  13.1125  21.3115  22.1440

     occupation numbers 
     1.0000   1.0000   1.0000   1.0000   1.0000   1.0000   1.0000   1.0000
     1.0000   1.0000   1.0000   1.0000   0.0000   0.0000   0.0000   0.0000

          k = 0.1429 0.2474 0.0000 (  1340 PWs)   bands (ev):

     2.8056   3.6850   3.8867   4.0452   4.0696   4.1937   4.3093   4.5162
     4.6118   4.7610   4.7866  10.0202  10.5500  20.8393  21.0404  26.6187

     occupation numbers 
     1.0000   1.0000   1.0000   1.0000   1.0000   1.0000   1.0000   1.0000
     1.0000   1.0000   1.0000   1.0000   1.0000   0.0000   0.0000   0.0000

          k = 0.1429 0.2474 0.0766 (  1337 PWs)   bands (ev):

     2.9001   3.7005   3.8971   3.9877   4.1017   4.1227   4.4145   4.4917
     4.6417   4.7152   4.8201   8.5374  12.2957  20.9743  21.1574  25.3915

     occupation numbers 
     1.0000   1.0000   1.0000   1.0000   1.0000   1.0000   1.0000   1.0000
     1.0000   1.0000   1.0000   1.0000   0.0000   0.0000   0.0000   0.0000

          k = 0.1429 0.2474 0.1533 (  1339 PWs)   bands (ev):

     3.1525   3.7381   3.8985   3.9292   4.0266   4.1016   4.4746   4.6014
     4.6535   4.6876   4.8900   7.1036  14.5225  21.3767  21.3956  22.7524

     occupation numbers 
     1.0000   1.0000   1.0000   1.0000   1.0000   1.0000   1.0000   1.0000
     1.0000   1.0000   1.0000   1.0000   0.0000   0.0000   0.0000   0.0000

          k = 0.1429 0.2474 0.2299 (  1330 PWs)   bands (ev):

     3.4610   3.6942   3.8593   3.9318   3.9858   4.0521   4.5042   4.5673
     4.7219   4.7252   5.2290   5.9839  16.9779  19.6039  22.0380  22.3501

     occupation numbers 
     1.0000   1.0000   1.0000   1.0000   1.0000   1.0000   1.0000   1.0000
     1.0000   1.0000   1.0000   1.0000   0.0000   0.0000   0.0000   0.0000

          k = 0.1429 0.3299 0.0000 (  1337 PWs)   bands (ev):

     3.4696   3.7107   3.8761   3.9547   4.0976   4.2270   4.3270   4.4475
     4.7635   4.7868   5.2750  10.8534  11.7785  17.8426  19.8532  23.6768

     occupation numbers 
     1.0000   1.0000   1.0000   1.0000   1.0000   1.0000   1.0000   1.0000
     1.0000   1.0000   1.0000   1.0000   0.8598   0.0000   0.0000   0.0000

          k = 0.1429 0.3299 0.0766 (  1338 PWs)   bands (ev):

     3.4944   3.7265   3.8573   3.9618   4.0635   4.2421   4.4187   4.4429
     4.7338   4.8017   5.3227   9.5268  13.3513  17.9723  19.9837  22.4852

     occupation numbers 
     1.0000   1.0000   1.0000   1.0000   1.0000   1.0000   1.0000   1.0000
     1.0000   1.0000   1.0000   1.0000   0.0000   0.0000   0.0000   0.0000

          k = 0.1429 0.3299 0.1533 (  1340 PWs)   bands (ev):

     3.5550   3.7667   3.8023   3.9667   4.0568   4.2168   4.4435   4.6354
     4.6599   4.8290   5.5230   8.0844  15.5263  18.3538  20.3591  21.1549

     occupation numbers 
     1.0000   1.0000   1.0000   1.0000   1.0000   1.0000   1.0000   1.0000
     1.0000   1.0000   1.0000   1.0000   0.0000   0.0000   0.0000   0.0000

          k = 0.1429 0.3299 0.2299 (  1346 PWs)   bands (ev):

     3.6309   3.7115   3.8468   3.9178   4.1078   4.1672   4.4871   4.5677
     4.7899   4.8378   6.0332   6.9043  17.8711  18.9145  20.0776  20.5140

     occupation numbers 
     1.0000   1.0000   1.0000   1.0000   1.0000   1.0000   1.0000   1.0000
     1.0000   1.0000   1.0000   1.0000   0.0000   0.0000   0.0000   0.0000

          k = 0.1429 0.4124 0.0000 (  1347 PWs)   bands (ev):

     3.5986   3.6555   3.7519   4.1737   4.2053   4.2511   4.3632   4.5446
     4.7442   4.9019   6.3138  11.9835  13.2354  15.0598  19.0409  20.8477

     occupation numbers 
     1.0000   1.0000   1.0000   1.0000   1.0000   1.0000   1.0000   1.0000
     1.0000   1.0000   1.0000   0.0059   0.0000   0.0000   0.0000   0.0000

          k = 0.1429 0.4124 0.0766 (  1342 PWs)   bands (ev):

     3.5872   3.6351   3.8059   4.0113   4.2041   4.3775   4.4439   4.5408
     4.7152   4.9104   6.4054  10.7959  14.6053  15.2229  19.1712  19.7215

     occupation numbers 
     1.0000   1.0000   1.0000   1.0000   1.0000   1.0000   1.0000   1.0000
     1.0000   1.0000   1.0000   1.0000   0.0000   0.0000   0.0000   0.0000

          k = 0.1429 0.4124 0.1533 (  1341 PWs)   bands (ev):

     3.5623   3.6529   3.8250   3.8893   4.2366   4.4130   4.5015   4.6358
     4.6792   4.9227   6.7147   9.3824  15.5188  16.6389  18.5487  19.5781

     occupation numbers 
     1.0000   1.0000   1.0000   1.0000   1.0000   1.0000   1.0000   1.0000
     1.0000   1.0000   1.0000   1.0000   0.0000   0.0000   0.0000   0.0000

          k = 0.1429 0.4124 0.2299 (  1348 PWs)   bands (ev):

     3.5803   3.6337   3.8026   3.8449   4.3272   4.4169   4.4884   4.5469
     4.8319   4.9074   7.3065   8.2031  16.1518  16.9377  19.4158  20.1798

     occupation numbers 
     1.0000   1.0000   1.0000   1.0000   1.0000   1.0000   1.0000   1.0000
     1.0000   1.0000   1.0000   1.0000   0.0000   0.0000   0.0000   0.0000

          k = 0.1429 0.4949 0.0000 (  1345 PWs)   bands (ev):

     3.5287   3.6276   3.6787   4.1527   4.2884   4.3016   4.4355   4.7316
     4.7526   4.9351   7.8920  12.0337  13.9698  14.8570  18.2777  18.5754

     occupation numbers 
     1.0000   1.0000   1.0000   1.0000   1.0000   1.0000   1.0000   1.0000
     1.0000   1.0000   1.0000   0.0005   0.0000   0.0000   0.0000   0.0000

          k = 0.1429 0.4949 0.0766 (  1342 PWs)   bands (ev):

     3.5365   3.5625   3.7588   4.0326   4.2380   4.3956   4.5458   4.7010
     4.7459   4.9382   7.9999  11.7845  13.1938  15.9010  17.5823  18.6865

     occupation numbers 
     1.0000   1.0000   1.0000   1.0000   1.0000   1.0000   1.0000   1.0000
     1.0000   1.0000   1.0000   0.8218   0.0000   0.0000   0.0000   0.0000

          k = 0.1429 0.4949 0.1533 (  1340 PWs)   bands (ev):

     3.5111   3.5705   3.8092   3.8687   4.2543   4.5095   4.6114   4.7013
     4.7300   4.9373   8.3366  10.8270  13.1607  15.4917  18.7204  19.0919

     occupation numbers 
     1.0000   1.0000   1.0000   1.0000   1.0000   1.0000   1.0000   1.0000
     1.0000   1.0000   1.0000   1.0000   0.0000   0.0000   0.0000   0.0000

          k = 0.1429 0.4949 0.2299 (  1347 PWs)   bands (ev):

     3.5244   3.5680   3.7803   3.7958   4.3539   4.4846   4.6135   4.6798
     4.8317   4.9081   8.9263   9.7736  13.6821  14.4935  19.7374  20.3969

     occupation numbers 
     1.0000   1.0000   1.0000   1.0000   1.0000   1.0000   1.0000   1.0000
     1.0000   1.0000   1.0000   1.0000   0.0000   0.0000   0.0000   0.0000

          k = 0.1429 0.5774 0.0000 (  1338 PWs)   bands (ev):

     3.5019   3.6120   3.6546   4.1521   4.2549   4.3339   4.4983   4.7270
     4.8723   4.8957   9.5806  10.1783  15.1534  16.0439  16.6305  18.0757

     occupation numbers 
     1.0000   1.0000   1.0000   1.0000   1.0000   1.0000   1.0000   1.0000
     1.0000   1.0000   1.0000   1.0000   0.0000   0.0000   0.0000   0.0000

          k = 0.1429 0.5774 0.0766 (  1334 PWs)   bands (ev):

     3.5141   3.5366   3.7406   4.0414   4.2187   4.4224   4.5874   4.6965
     4.8694   4.8936   9.6943  10.2466  14.4647  14.7156  18.2159  18.5326

     occupation numbers 
     1.0000   1.0000   1.0000   1.0000   1.0000   1.0000   1.0000   1.0000
     1.0000   1.0000   1.0000   1.0000   0.0000   0.0000   0.0000   0.0000

          k = 0.1429 0.5774 0.1533 (  1342 PWs)   bands (ev):

     3.4914   3.5408   3.7928   3.8717   4.2400   4.5673   4.6034   4.7122
     4.8595   4.8802  10.0174  10.4355  13.3691  13.4566  18.9204  20.2878

     occupation numbers 
     1.0000   1.0000   1.0000   1.0000   1.0000   1.0000   1.0000   1.0000
     1.0000   1.0000   1.0000   1.0000   0.0000   0.0000   0.0000   0.0000

          k = 0.1429 0.5774 0.2299 (  1349 PWs)   bands (ev):

     3.5034   3.5432   3.7741   3.7788   4.3439   4.4793   4.7082   4.7736
     4.8426   4.8427  10.4437  10.6196  12.5900  12.6349  19.5813  20.4371

     occupation numbers 
     1.0000   1.0000   1.0000   1.0000   1.0000   1.0000   1.0000   1.0000
     1.0000   1.0000   1.0000   1.0000   0.0000   0.0000   0.0000   0.0000

          k = 0.2143 0.3712 0.0000 (  1340 PWs)   bands (ev):

     3.7611   3.7880   3.8345   3.9786   4.1557   4.1663   4.3823   4.3903
     4.7206   4.8975   6.2439  11.9166  13.0908  16.7982  17.0217  22.6571

     occupation numbers 
     1.0000   1.0000   1.0000   1.0000   1.0000   1.0000   1.0000   1.0000
     1.0000   1.0000   1.0000   0.0695   0.0000   0.0000   0.0000   0.0000

          k = 0.2143 0.3712 0.0766 (  1344 PWs)   bands (ev):

     3.7491   3.7755   3.8815   3.8913   4.1523   4.2252   4.3785   4.4645
     4.6913   4.9075   6.3322  10.6950  14.5425  16.9322  17.1509  21.4264

     occupation numbers 
     1.0000   1.0000   1.0000   1.0000   1.0000   1.0000   1.0000   1.0000
     1.0000   1.0000   1.0000   1.0000   0.0000   0.0000   0.0000   0.0000

          k = 0.2143 0.3712 0.1533 (  1344 PWs)   bands (ev):

     3.7138   3.7643   3.8349   3.9641   4.1194   4.2294   4.3866   4.6106
     4.6640   4.9220   6.6316   9.2755  16.6186  17.3352  17.5296  20.0515

     occupation numbers 
     1.0000   1.0000   1.0000   1.0000   1.0000   1.0000   1.0000   1.0000
     1.0000   1.0000   1.0000   1.0000   0.0000   0.0000   0.0000   0.0000

          k = 0.2143 0.3712 0.2299 (  1347 PWs)   bands (ev):

     3.6995   3.7135   3.8981   3.9647   4.1318   4.1880   4.4319   4.5153
     4.8273   4.9072   7.2108   8.0989  17.9794  18.1108  18.4113  18.8996

     occupation numbers 
     1.0000   1.0000   1.0000   1.0000   1.0000   1.0000   1.0000   1.0000
     1.0000   1.0000   1.0000   1.0000   0.0000   0.0000   0.0000   0.0000

          k = 0.2143 0.4536 0.0000 (  1337 PWs)   bands (ev):

     3.7280   3.7352   3.8189   4.1271   4.1940   4.2739   4.2953   4.5298
     4.6869   4.9182   7.6723  13.1294  14.4182  14.6273  16.2693  20.0584

     occupation numbers 
     1.0000   1.0000   1.0000   1.0000   1.0000   1.0000   1.0000   1.0000
     1.0000   1.0000   1.0000   0.0000   0.0000   0.0000   0.0000   0.0000

          k = 0.2143 0.4536 0.0766 (  1342 PWs)   bands (ev):

     3.6970   3.7438   3.8746   3.9932   4.1900   4.3228   4.3669   4.5566
     4.6561   4.9250   7.7820  12.1107  14.3913  15.9649  16.4058  18.9754

     occupation numbers 
     1.0000   1.0000   1.0000   1.0000   1.0000   1.0000   1.0000   1.0000
     1.0000   1.0000   1.0000   0.0000   0.0000   0.0000   0.0000   0.0000

          k = 0.2143 0.4536 0.1533 (  1346 PWs)   bands (ev):

     3.6670   3.7825   3.8400   3.9647   4.1496   4.3553   4.4180   4.5770
     4.6825   4.9313   8.1252  10.7580  14.7594  16.7774  17.0941  18.4391

     occupation numbers 
     1.0000   1.0000   1.0000   1.0000   1.0000   1.0000   1.0000   1.0000
     1.0000   1.0000   1.0000   1.0000   0.0000   0.0000   0.0000   0.0000

          k = 0.2143 0.4536 0.2299 (  1350 PWs)   bands (ev):

     3.6767   3.7303   3.8621   3.9348   4.2158   4.3174   4.4412   4.4941
     4.8226   4.9058   8.7299   9.6114  15.3855  16.2330  17.4465  18.2773

     occupation numbers 
     1.0000   1.0000   1.0000   1.0000   1.0000   1.0000   1.0000   1.0000
     1.0000   1.0000   1.0000   1.0000   0.0000   0.0000   0.0000   0.0000

          k = 0.2143 0.5361 0.0000 (  1336 PWs)   bands (ev):

     3.6877   3.7117   3.8014   4.1442   4.2115   4.2965   4.3349   4.6687
     4.6963   4.8561   9.4706  11.6108  15.2011  15.9312  16.2509  17.7523

     occupation numbers 
     1.0000   1.0000   1.0000   1.0000   1.0000   1.0000   1.0000   1.0000
     1.0000   1.0000   1.0000   1.0184   0.0000   0.0000   0.0000   0.0000

          k = 0.2143 0.5361 0.0766 (  1338 PWs)   bands (ev):

     3.6696   3.7022   3.8704   4.0384   4.1496   4.3741   4.4137   4.6366
     4.7023   4.8623   9.5853  11.6814  14.2023  15.9644  16.2116  18.1695

     occupation numbers 
     1.0000   1.0000   1.0000   1.0000   1.0000   1.0000   1.0000   1.0000
     1.0000   1.0000   1.0000   1.0756   0.0000   0.0000   0.0000   0.0000

          k = 0.2143 0.5361 0.1533 (  1348 PWs)   bands (ev):

     3.6420   3.7388   3.8911   3.9464   4.1121   4.4320   4.5023   4.5755
     4.7322   4.8696   9.9303  11.7415  13.1850  14.9441  16.4827  18.9828

     occupation numbers 
     1.0000   1.0000   1.0000   1.0000   1.0000   1.0000   1.0000   1.0000
     1.0000   1.0000   1.0000   1.0300   0.0000   0.0000   0.0000   0.0000

          k = 0.2143 0.5361 0.2299 (  1335 PWs)   bands (ev):

     3.6639   3.7293   3.8426   3.9051   4.2125   4.3521   4.5413   4.5653
     4.7980   4.8530  10.4997  11.2337  13.1868  13.9098  17.1296  18.0082

     occupation numbers 
     1.0000   1.0000   1.0000   1.0000   1.0000   1.0000   1.0000   1.0000
     1.0000   1.0000   1.0000   1.0000   0.0000   0.0000   0.0000   0.0000

          k = 0.2857 0.4949 0.0000 (  1326 PWs)   bands (ev):

     3.7448   3.8356   3.9046   4.1163   4.1540   4.2145   4.3208   4.5894
     4.6420   4.8475   9.3574  13.3957  13.7651  15.2524  16.2306  19.3741

     occupation numbers 
     1.0000   1.0000   1.0000   1.0000   1.0000   1.0000   1.0000   1.0000
     1.0000   1.0000   1.0000   0.0000   0.0000   0.0000   0.0000   0.0000

          k = 0.2857 0.4949 0.0766 (  1339 PWs)   bands (ev):

     3.7426   3.8460   3.9357   4.0008   4.1699   4.2497   4.3457   4.6095
     4.6195   4.8565   9.4754  13.2459  13.8993  14.4014  17.2168  18.2822

     occupation numbers 
     1.0000   1.0000   1.0000   1.0000   1.0000   1.0000   1.0000   1.0000
     1.0000   1.0000   1.0000   0.0000   0.0000   0.0000   0.0000   0.0000

          k = 0.2857 0.4949 0.1533 (  1349 PWs)   bands (ev):

     3.7441   3.8607   3.9072   4.0178   4.0904   4.2886   4.3797   4.5320
     4.7036   4.8690   9.8331  12.3442  14.2947  14.3302  16.8468  16.9044

     occupation numbers 
     1.0000   1.0000   1.0000   1.0000   1.0000   1.0000   1.0000   1.0000
     1.0000   1.0000   1.0000   0.0000   0.0000   0.0000   0.0000   0.0000

          k = 0.2857 0.4949 0.2299 (  1339 PWs)   bands (ev):

     3.7615   3.8030   3.9409   4.0083   4.1325   4.2400   4.4119   4.4566
     4.7981   4.8563  10.4386  11.2908  14.8559  14.9128  15.8077  15.8745

     occupation numbers 
     1.0000   1.0000   1.0000   1.0000   1.0000   1.0000   1.0000   1.0000
     1.0000   1.0000   1.0000   1.0000   0.0000   0.0000   0.0000   0.0000

          k = 0.2857 0.5774 0.0000 (  1332 PWs)   bands (ev):

     3.7536   3.8746   3.9374   4.1222   4.1409   4.1526   4.3502   4.6251
     4.6779   4.7531  11.2782  11.4102  13.4794  16.6152  17.5814  17.7879

     occupation numbers 
     1.0000   1.0000   1.0000   1.0000   1.0000   1.0000   1.0000   1.0000
     1.0000   1.0000   1.0000   1.0000   0.0000   0.0000   0.0000   0.0000

          k = 0.2857 0.5774 0.0766 (  1339 PWs)   bands (ev):

     3.7630   3.8814   3.9409   4.0436   4.1288   4.2098   4.3663   4.5923
     4.6966   4.7687  11.4075  11.5104  13.5900  15.8745  16.0812  17.9691

     occupation numbers 
     1.0000   1.0000   1.0000   1.0000   1.0000   1.0000   1.0000   1.0000
     1.0000   1.0000   1.0000   1.0003   0.0000   0.0000   0.0000   0.0000

          k = 0.2857 0.5774 0.1533 (  1348 PWs)   bands (ev):

     3.7820   3.8904   3.9617   3.9635   4.1145   4.2406   4.3916   4.5131
     4.7443   4.7993  11.7763  11.8069  13.8334  14.6972  14.8885  16.7564

     occupation numbers 
     1.0000   1.0000   1.0000   1.0000   1.0000   1.0000   1.0000   1.0000
     1.0000   1.0000   0.8732   0.6633   0.0000   0.0000   0.0000   0.0000

          k = 0.2857 0.5774 0.2299 (  1344 PWs)   bands (ev):

     3.8075   3.8513   3.9579   3.9757   4.1452   4.2143   4.4102   4.4412
     4.7932   4.8141  12.2352  12.2643  13.5560  13.7238  14.8726  15.6771

     occupation numbers 
     1.0000   1.0000   1.0000   1.0000   1.0000   1.0000   1.0000   1.0000
     1.0000   1.0000   0.0000   0.0000   0.0000   0.0000   0.0000   0.0000

     the Fermi energy is    11.8426 ev

!    total energy              =    -487.44231413 Ry
     total all-electron energy =     -7184.236360 Ry
     estimated scf accuracy    <       0.00000021 Ry
     smearing contrib. (-TS)   =       0.00001452 Ry
     internal energy E=F+TS    =    -487.44232864 Ry

     The total energy is F=E-TS. E is the sum of the following terms:
     one-electron contribution =    -111.38569325 Ry
     hartree contribution      =      89.55089589 Ry
     xc contribution           =     -94.40461093 Ry
     ewald contribution        =    -180.32404738 Ry
     one-center paw contrib.   =    -190.87887298 Ry
      -> PAW hartree energy AE =     122.72944541 Ry
      -> PAW hartree energy PS =    -122.10882197 Ry
      -> PAW xc energy AE      =    -143.12549058 Ry
      -> PAW xc energy PS      =      47.06543064 Ry
      -> total E_H with PAW    =      90.17151934 Ry
      -> total E_XC with PAW   =    -190.46467086 Ry

     convergence has been achieved in   3 iterations

     Writing all to output data dir ./out/Zn.save/

     init_run     :      0.41s CPU      0.45s WALL (       1 calls)
     electrons    :      4.78s CPU      5.01s WALL (       1 calls)

     Called by init_run:
     wfcinit      :      0.10s CPU      0.10s WALL (       1 calls)
     potinit      :      0.09s CPU      0.13s WALL (       1 calls)
     hinit0       :      0.19s CPU      0.20s WALL (       1 calls)

     Called by electrons:
     c_bands      :      3.91s CPU      4.03s WALL (       4 calls)
     sum_band     :      0.54s CPU      0.56s WALL (       4 calls)
     v_of_rho     :      0.01s CPU      0.01s WALL (       4 calls)
     v_h          :      0.00s CPU      0.00s WALL (       4 calls)
     v_xc         :      0.01s CPU      0.01s WALL (       4 calls)
     newd         :      0.03s CPU      0.04s WALL (       4 calls)
     PAW_pot      :      0.38s CPU      0.48s WALL (       4 calls)
     mix_rho      :      0.00s CPU      0.00s WALL (       4 calls)

     Called by c_bands:
     init_us_2    :      0.05s CPU      0.05s WALL (     768 calls)
     init_us_2:cp :      0.04s CPU      0.04s WALL (     768 calls)
     cegterg      :      3.78s CPU      3.90s WALL (     384 calls)

     Called by sum_band:
     sum_band:wei :      0.01s CPU      0.01s WALL (       4 calls)
     sum_band:loo :      0.51s CPU      0.51s WALL (       4 calls)
     sum_band:buf :      0.01s CPU      0.01s WALL (     384 calls)
     sum_band:ini :      0.02s CPU      0.02s WALL (     384 calls)
     sum_band:cal :      0.09s CPU      0.10s WALL (     384 calls)
     sum_band:bec :      0.01s CPU      0.01s WALL (     384 calls)
     addusdens    :      0.03s CPU      0.04s WALL (       4 calls)
                                        0.00s GPU  (       4 calls)
     addusd:skk   :      0.00s CPU      0.00s WALL (       4 calls)
                                        0.00s GPU  (       4 calls)

     Called by *egterg:
     cdiaghg      :      0.35s CPU      0.36s WALL (     926 calls)
     cegterg:over :      0.31s CPU      0.32s WALL (     734 calls)
     cegterg:upda :      0.10s CPU      0.11s WALL (     734 calls)
     cegterg:last :      0.23s CPU      0.24s WALL (     724 calls)
     h_psi        :      2.32s CPU      2.40s WALL (    1118 calls)
     s_psi        :      0.21s CPU      0.22s WALL (    1118 calls)
     g_psi        :      0.02s CPU      0.02s WALL (     734 calls)

     Called by h_psi:
     h_psi:calbec :      0.26s CPU      0.27s WALL (    1118 calls)
     vloc_psi     :      1.83s CPU      1.89s WALL (    1118 calls)
     add_vuspsi   :      0.21s CPU      0.22s WALL (    1118 calls)

     General routines
     calbec       :      0.35s CPU      0.36s WALL (    1502 calls)
     fft          :      0.14s CPU      0.14s WALL (      45 calls)
     ffts         :      0.00s CPU      0.00s WALL (       4 calls)
     fftw         :      1.89s CPU      1.95s WALL (   38254 calls)

     Parallel routines

     PAW routines
     PAW_pot      :      0.38s CPU      0.48s WALL (       4 calls)
     PAW_symme    :      0.00s CPU      0.00s WALL (       7 calls)

     PWSCF        :      5.41s CPU      5.75s WALL


   This run was terminated on:   0:31:23  16Feb2024            

=------------------------------------------------------------------------------=
   JOB DONE.
=------------------------------------------------------------------------------=
