### Running on host: unam-asus

     Program PWSCF v.7.2 starts on 16Feb2024 at  0: 6:47 

     This program is part of the open-source Quantum ESPRESSO suite
     for quantum simulation of materials; please cite
         "P. Giannozzi et al., J. Phys.:Condens. Matter 21 395502 (2009);
         "P. Giannozzi et al., J. Phys.:Condens. Matter 29 465901 (2017);
         "P. Giannozzi et al., J. Chem. Phys. 152 154105 (2020);
          URL http://www.quantum-espresso.org", 
     in publications or presentations arising from this work. More details at
     http://www.quantum-espresso.org/quote

     Parallel version (MPI), running on    10 processors

     MPI processes distributed on     1 nodes
     782 MiB available memory on the printing compute node when the environment starts

     Reading input from scf.110.in

     Current dimensions of program PWSCF are:
     Max number of different atomic species (ntypx) = 10
     Max number of k-points (npk) =  40000
     Max angular momentum in pseudopotentials (lmaxx) =  4
     file Zn.pbe-dnl-kjpaw_psl.1.0.0.UPF: wavefunction(s)  4S 3D renormalized
     Message from routine setup:
     using ibrav=0 with symmetry is DISCOURAGED, use correct ibrav instead

     R & G space division:  proc/nbgrp/npool/nimage =      10
     Subspace diagonalization in iterative solution of the eigenvalue problem:
     a serial algorithm will be used


     Parallelization info
     --------------------
     sticks:   dense  smooth     PW     G-vecs:    dense   smooth      PW
     Min          74      74     21                 3034     3034     481
     Max          75      75     22                 3041     3041     484
     Sum         745     745    211                30385    30385    4815

     Using Slab Decomposition



     bravais-lattice index     =            0
     lattice parameter (alat)  =       4.9404  a.u.
     unit-cell volume          =     194.6564 (a.u.)^3
     number of atoms/cell      =            2
     number of atomic types    =            1
     number of electrons       =        24.00
     number of Kohn-Sham states=           16
     kinetic-energy cutoff     =     110.0000  Ry
     charge density cutoff     =     440.0000  Ry
     scf convergence threshold =      4.0E-06
     mixing beta               =       0.7000
     number of iterations used =            8  plain     mixing
     Exchange-correlation= SLA  PW   PBX  PBC
                           (   1   4   3   4   0   0   0)

     celldm(1)=   4.940424  celldm(2)=   0.000000  celldm(3)=   0.000000
     celldm(4)=   0.000000  celldm(5)=   0.000000  celldm(6)=   0.000000

     crystal axes: (cart. coord. in units of alat)
               a(1) = (   1.000000   0.000000   0.000000 )  
               a(2) = (  -0.500000   0.866025   0.000000 )  
               a(3) = (   0.000000   0.000000   1.863998 )  

     reciprocal axes: (cart. coord. in units 2 pi/alat)
               b(1) = (  1.000000  0.577350 -0.000000 )  
               b(2) = (  0.000000  1.154701  0.000000 )  
               b(3) = (  0.000000 -0.000000  0.536481 )  


     PseudoPot. # 1 for Zn read from file:
     /home/abdul/git_repo/ZnS_Cu-Vacancy/pseudo/QE/Zn.pbe-dnl-kjpaw_psl.1.0.0.UPF
     MD5 check sum: c608214d9520ac179f507641260889e3
     Pseudo is Projector augmented-wave + core cor, Zval = 12.0
     Generated using &quot;atomic&quot; code by A. Dal Corso  v.6.2.2
     Shape of augmentation charge: PSQ
     Using radial grid of 1201 points,  6 beta functions with: 
                l(1) =   0
                l(2) =   0
                l(3) =   1
                l(4) =   1
                l(5) =   2
                l(6) =   2
     Q(r) pseudized with 0 coefficients 


     atomic species   valence    mass     pseudopotential
        Zn            12.00    65.38000     Zn( 1.00)

     24 Sym. Ops., with inversion, found (12 have fractional translation)


                                    s                        frac. trans.

      isym =  1     identity                                     

 cryst.   s( 1) = (     1          0          0      )
                  (     0          1          0      )
                  (     0          0          1      )

 cart.    s( 1) = (  1.0000000  0.0000000  0.0000000 )
                  (  0.0000000  1.0000000  0.0000000 )
                  (  0.0000000  0.0000000  1.0000000 )


      isym =  2     180 deg rotation - cart. axis [0,0,1]        

 cryst.   s( 2) = (    -1          0          0      )    f =(  0.0000000 )
                  (     0         -1          0      )       (  0.0000000 )
                  (     0          0          1      )       ( -0.5000000 )

 cart.    s( 2) = ( -1.0000000  0.0000000  0.0000000 )    f =(  0.0000000 )
                  (  0.0000000 -1.0000000  0.0000000 )       (  0.0000000 )
                  (  0.0000000  0.0000000  1.0000000 )       ( -0.9319989 )


      isym =  3     180 deg rotation - cart. axis [0,1,0]        

 cryst.   s( 3) = (    -1          0          0      )    f =(  0.0000000 )
                  (     1          1          0      )       (  0.0000000 )
                  (     0          0         -1      )       (  0.5000000 )

 cart.    s( 3) = ( -1.0000000  0.0000000  0.0000000 )    f =(  0.0000000 )
                  (  0.0000000  1.0000000  0.0000000 )       (  0.0000000 )
                  (  0.0000000  0.0000000 -1.0000000 )       (  0.9319989 )


      isym =  4     180 deg rotation - cart. axis [1,0,0]        

 cryst.   s( 4) = (     1          0          0      )
                  (    -1         -1          0      )
                  (     0          0         -1      )

 cart.    s( 4) = (  1.0000000  0.0000000  0.0000000 )
                  (  0.0000000 -1.0000000  0.0000000 )
                  (  0.0000000  0.0000000 -1.0000000 )


      isym =  5      60 deg rotation - cryst. axis [0,0,1]       

 cryst.   s( 5) = (     1          1          0      )    f =(  0.0000000 )
                  (    -1          0          0      )       ( -0.0000000 )
                  (     0          0          1      )       ( -0.5000000 )

 cart.    s( 5) = (  0.5000000 -0.8660254  0.0000000 )    f =(  0.0000000 )
                  (  0.8660254  0.5000000  0.0000000 )       ( -0.0000000 )
                  (  0.0000000  0.0000000  1.0000000 )       ( -0.9319989 )


      isym =  6      60 deg rotation - cryst. axis [0,0,-1]      

 cryst.   s( 6) = (     0         -1          0      )    f =(  0.0000000 )
                  (     1          1          0      )       ( -0.0000000 )
                  (     0          0          1      )       ( -0.5000000 )

 cart.    s( 6) = (  0.5000000  0.8660254  0.0000000 )    f =(  0.0000000 )
                  ( -0.8660254  0.5000000  0.0000000 )       ( -0.0000000 )
                  (  0.0000000  0.0000000  1.0000000 )       ( -0.9319989 )


      isym =  7     120 deg rotation - cryst. axis [0,0,1]       

 cryst.   s( 7) = (     0          1          0      )
                  (    -1         -1          0      )
                  (     0          0          1      )

 cart.    s( 7) = ( -0.5000000 -0.8660254  0.0000000 )
                  (  0.8660254 -0.5000000  0.0000000 )
                  (  0.0000000  0.0000000  1.0000000 )


      isym =  8     120 deg rotation - cryst. axis [0,0,-1]      

 cryst.   s( 8) = (    -1         -1          0      )
                  (     1          0          0      )
                  (     0          0          1      )

 cart.    s( 8) = ( -0.5000000  0.8660254  0.0000000 )
                  ( -0.8660254 -0.5000000  0.0000000 )
                  (  0.0000000  0.0000000  1.0000000 )


      isym =  9     180 deg rotation - cryst. axis [1,-1,0]      

 cryst.   s( 9) = (     0         -1          0      )    f =(  0.0000000 )
                  (    -1          0          0      )       (  0.0000000 )
                  (     0          0         -1      )       (  0.5000000 )

 cart.    s( 9) = (  0.5000000 -0.8660254  0.0000000 )    f =(  0.0000000 )
                  ( -0.8660254 -0.5000000  0.0000000 )       (  0.0000000 )
                  (  0.0000000  0.0000000 -1.0000000 )       (  0.9319989 )


      isym = 10     180 deg rotation - cryst. axis [2,1,0]       

 cryst.   s(10) = (     1          1          0      )    f =(  0.0000000 )
                  (     0         -1          0      )       ( -0.0000000 )
                  (     0          0         -1      )       (  0.5000000 )

 cart.    s(10) = (  0.5000000  0.8660254  0.0000000 )    f =(  0.0000000 )
                  (  0.8660254 -0.5000000  0.0000000 )       ( -0.0000000 )
                  (  0.0000000  0.0000000 -1.0000000 )       (  0.9319989 )


      isym = 11     180 deg rotation - cryst. axis [0,1,0]       

 cryst.   s(11) = (    -1         -1          0      )
                  (     0          1          0      )
                  (     0          0         -1      )

 cart.    s(11) = ( -0.5000000 -0.8660254  0.0000000 )
                  ( -0.8660254  0.5000000  0.0000000 )
                  (  0.0000000  0.0000000 -1.0000000 )


      isym = 12     180 deg rotation - cryst. axis [1,1,0]       

 cryst.   s(12) = (     0          1          0      )
                  (     1          0          0      )
                  (     0          0         -1      )

 cart.    s(12) = ( -0.5000000  0.8660254  0.0000000 )
                  (  0.8660254  0.5000000  0.0000000 )
                  (  0.0000000  0.0000000 -1.0000000 )


      isym = 13     inversion                                    

 cryst.   s(13) = (    -1          0          0      )
                  (     0         -1          0      )
                  (     0          0         -1      )

 cart.    s(13) = ( -1.0000000  0.0000000  0.0000000 )
                  (  0.0000000 -1.0000000  0.0000000 )
                  (  0.0000000  0.0000000 -1.0000000 )


      isym = 14     inv. 180 deg rotation - cart. axis [0,0,1]   

 cryst.   s(14) = (     1          0          0      )    f =(  0.0000000 )
                  (     0          1          0      )       (  0.0000000 )
                  (     0          0         -1      )       (  0.5000000 )

 cart.    s(14) = (  1.0000000  0.0000000  0.0000000 )    f =(  0.0000000 )
                  (  0.0000000  1.0000000  0.0000000 )       (  0.0000000 )
                  (  0.0000000  0.0000000 -1.0000000 )       (  0.9319989 )


      isym = 15     inv. 180 deg rotation - cart. axis [0,1,0]   

 cryst.   s(15) = (     1          0          0      )    f =(  0.0000000 )
                  (    -1         -1          0      )       (  0.0000000 )
                  (     0          0          1      )       ( -0.5000000 )

 cart.    s(15) = (  1.0000000  0.0000000  0.0000000 )    f =(  0.0000000 )
                  (  0.0000000 -1.0000000  0.0000000 )       (  0.0000000 )
                  (  0.0000000  0.0000000  1.0000000 )       ( -0.9319989 )


      isym = 16     inv. 180 deg rotation - cart. axis [1,0,0]   

 cryst.   s(16) = (    -1          0          0      )
                  (     1          1          0      )
                  (     0          0          1      )

 cart.    s(16) = ( -1.0000000  0.0000000  0.0000000 )
                  (  0.0000000  1.0000000  0.0000000 )
                  (  0.0000000  0.0000000  1.0000000 )


      isym = 17     inv.  60 deg rotation - cryst. axis [0,0,1]  

 cryst.   s(17) = (    -1         -1          0      )    f =(  0.0000000 )
                  (     1          0          0      )       (  0.0000000 )
                  (     0          0         -1      )       (  0.5000000 )

 cart.    s(17) = ( -0.5000000  0.8660254  0.0000000 )    f =(  0.0000000 )
                  ( -0.8660254 -0.5000000  0.0000000 )       (  0.0000000 )
                  (  0.0000000  0.0000000 -1.0000000 )       (  0.9319989 )


      isym = 18     inv.  60 deg rotation - cryst. axis [0,0,-1] 

 cryst.   s(18) = (     0          1          0      )    f =(  0.0000000 )
                  (    -1         -1          0      )       ( -0.0000000 )
                  (     0          0         -1      )       (  0.5000000 )

 cart.    s(18) = ( -0.5000000 -0.8660254  0.0000000 )    f =(  0.0000000 )
                  (  0.8660254 -0.5000000  0.0000000 )       ( -0.0000000 )
                  (  0.0000000  0.0000000 -1.0000000 )       (  0.9319989 )


      isym = 19     inv. 120 deg rotation - cryst. axis [0,0,1]  

 cryst.   s(19) = (     0         -1          0      )
                  (     1          1          0      )
                  (     0          0         -1      )

 cart.    s(19) = (  0.5000000  0.8660254  0.0000000 )
                  ( -0.8660254  0.5000000  0.0000000 )
                  (  0.0000000  0.0000000 -1.0000000 )


      isym = 20     inv. 120 deg rotation - cryst. axis [0,0,-1] 

 cryst.   s(20) = (     1          1          0      )
                  (    -1          0          0      )
                  (     0          0         -1      )

 cart.    s(20) = (  0.5000000 -0.8660254  0.0000000 )
                  (  0.8660254  0.5000000  0.0000000 )
                  (  0.0000000  0.0000000 -1.0000000 )


      isym = 21     inv. 180 deg rotation - cryst. axis [1,-1,0] 

 cryst.   s(21) = (     0          1          0      )    f =(  0.0000000 )
                  (     1          0          0      )       ( -0.0000000 )
                  (     0          0          1      )       ( -0.5000000 )

 cart.    s(21) = ( -0.5000000  0.8660254  0.0000000 )    f =(  0.0000000 )
                  (  0.8660254  0.5000000  0.0000000 )       ( -0.0000000 )
                  (  0.0000000  0.0000000  1.0000000 )       ( -0.9319989 )


      isym = 22     inv. 180 deg rotation - cryst. axis [2,1,0]  

 cryst.   s(22) = (    -1         -1          0      )    f =(  0.0000000 )
                  (     0          1          0      )       ( -0.0000000 )
                  (     0          0          1      )       ( -0.5000000 )

 cart.    s(22) = ( -0.5000000 -0.8660254  0.0000000 )    f =(  0.0000000 )
                  ( -0.8660254  0.5000000  0.0000000 )       ( -0.0000000 )
                  (  0.0000000  0.0000000  1.0000000 )       ( -0.9319989 )


      isym = 23     inv. 180 deg rotation - cryst. axis [0,1,0]  

 cryst.   s(23) = (     1          1          0      )
                  (     0         -1          0      )
                  (     0          0          1      )

 cart.    s(23) = (  0.5000000  0.8660254  0.0000000 )
                  (  0.8660254 -0.5000000  0.0000000 )
                  (  0.0000000  0.0000000  1.0000000 )


      isym = 24     inv. 180 deg rotation - cryst. axis [1,1,0]  

 cryst.   s(24) = (     0         -1          0      )
                  (    -1          0          0      )
                  (     0          0          1      )

 cart.    s(24) = (  0.5000000 -0.8660254  0.0000000 )
                  ( -0.8660254 -0.5000000  0.0000000 )
                  (  0.0000000  0.0000000  1.0000000 )


   Cartesian axes

     site n.     atom                  positions (alat units)
         1           Zn  tau(   1) = (  -0.0000000   0.5773503   0.4659995  )
         2           Zn  tau(   2) = (   0.5000000   0.2886751   1.3979984  )

   Crystallographic axes

     site n.     atom                  positions (cryst. coord.)
         1           Zn  tau(   1) = (  0.3333333  0.6666667  0.2500000  )
         2           Zn  tau(   2) = (  0.6666667  0.3333333  0.7500000  )

     number of k points=    96  Marzari-Vanderbilt smearing, width (Ry)=  0.0073
                       cart. coord. in units 2pi/alat
        k(    1) = (   0.0000000   0.0000000   0.0000000), wk =   0.0014577
        k(    2) = (   0.0000000   0.0000000   0.0766402), wk =   0.0029155
        k(    3) = (   0.0000000   0.0000000   0.1532804), wk =   0.0029155
        k(    4) = (   0.0000000   0.0000000   0.2299206), wk =   0.0029155
        k(    5) = (   0.0000000   0.0824786   0.0000000), wk =   0.0087464
        k(    6) = (   0.0000000   0.0824786   0.0766402), wk =   0.0174927
        k(    7) = (   0.0000000   0.0824786   0.1532804), wk =   0.0174927
        k(    8) = (   0.0000000   0.0824786   0.2299206), wk =   0.0174927
        k(    9) = (   0.0000000   0.1649572   0.0000000), wk =   0.0087464
        k(   10) = (   0.0000000   0.1649572   0.0766402), wk =   0.0174927
        k(   11) = (   0.0000000   0.1649572   0.1532804), wk =   0.0174927
        k(   12) = (   0.0000000   0.1649572   0.2299206), wk =   0.0174927
        k(   13) = (   0.0000000   0.2474358   0.0000000), wk =   0.0087464
        k(   14) = (   0.0000000   0.2474358   0.0766402), wk =   0.0174927
        k(   15) = (   0.0000000   0.2474358   0.1532804), wk =   0.0174927
        k(   16) = (   0.0000000   0.2474358   0.2299206), wk =   0.0174927
        k(   17) = (   0.0000000   0.3299144   0.0000000), wk =   0.0087464
        k(   18) = (   0.0000000   0.3299144   0.0766402), wk =   0.0174927
        k(   19) = (   0.0000000   0.3299144   0.1532804), wk =   0.0174927
        k(   20) = (   0.0000000   0.3299144   0.2299206), wk =   0.0174927
        k(   21) = (   0.0000000   0.4123930   0.0000000), wk =   0.0087464
        k(   22) = (   0.0000000   0.4123930   0.0766402), wk =   0.0174927
        k(   23) = (   0.0000000   0.4123930   0.1532804), wk =   0.0174927
        k(   24) = (   0.0000000   0.4123930   0.2299206), wk =   0.0174927
        k(   25) = (   0.0000000   0.4948717   0.0000000), wk =   0.0087464
        k(   26) = (   0.0000000   0.4948717   0.0766402), wk =   0.0174927
        k(   27) = (   0.0000000   0.4948717   0.1532804), wk =   0.0174927
        k(   28) = (   0.0000000   0.4948717   0.2299206), wk =   0.0174927
        k(   29) = (   0.0000000  -0.5773503   0.0000000), wk =   0.0043732
        k(   30) = (   0.0000000  -0.5773503   0.0766402), wk =   0.0087464
        k(   31) = (   0.0000000  -0.5773503   0.1532804), wk =   0.0087464
        k(   32) = (   0.0000000  -0.5773503   0.2299206), wk =   0.0087464
        k(   33) = (   0.0714286   0.1237179   0.0000000), wk =   0.0087464
        k(   34) = (   0.0714286   0.1237179   0.0766402), wk =   0.0174927
        k(   35) = (   0.0714286   0.1237179   0.1532804), wk =   0.0174927
        k(   36) = (   0.0714286   0.1237179   0.2299206), wk =   0.0174927
        k(   37) = (   0.0714286   0.2061965   0.0000000), wk =   0.0174927
        k(   38) = (   0.0714286   0.2061965   0.0766402), wk =   0.0349854
        k(   39) = (   0.0714286   0.2061965   0.1532804), wk =   0.0349854
        k(   40) = (   0.0714286   0.2061965   0.2299206), wk =   0.0349854
        k(   41) = (   0.0714286   0.2886751   0.0000000), wk =   0.0174927
        k(   42) = (   0.0714286   0.2886751   0.0766402), wk =   0.0349854
        k(   43) = (   0.0714286   0.2886751   0.1532804), wk =   0.0349854
        k(   44) = (   0.0714286   0.2886751   0.2299206), wk =   0.0349854
        k(   45) = (   0.0714286   0.3711537   0.0000000), wk =   0.0174927
        k(   46) = (   0.0714286   0.3711537   0.0766402), wk =   0.0349854
        k(   47) = (   0.0714286   0.3711537   0.1532804), wk =   0.0349854
        k(   48) = (   0.0714286   0.3711537   0.2299206), wk =   0.0349854
        k(   49) = (   0.0714286   0.4536324   0.0000000), wk =   0.0174927
        k(   50) = (   0.0714286   0.4536324   0.0766402), wk =   0.0349854
        k(   51) = (   0.0714286   0.4536324   0.1532804), wk =   0.0349854
        k(   52) = (   0.0714286   0.4536324   0.2299206), wk =   0.0349854
        k(   53) = (   0.0714286   0.5361110   0.0000000), wk =   0.0174927
        k(   54) = (   0.0714286   0.5361110   0.0766402), wk =   0.0349854
        k(   55) = (   0.0714286   0.5361110   0.1532804), wk =   0.0349854
        k(   56) = (   0.0714286   0.5361110   0.2299206), wk =   0.0349854
        k(   57) = (   0.1428571   0.2474358   0.0000000), wk =   0.0087464
        k(   58) = (   0.1428571   0.2474358   0.0766402), wk =   0.0174927
        k(   59) = (   0.1428571   0.2474358   0.1532804), wk =   0.0174927
        k(   60) = (   0.1428571   0.2474358   0.2299206), wk =   0.0174927
        k(   61) = (   0.1428571   0.3299144   0.0000000), wk =   0.0174927
        k(   62) = (   0.1428571   0.3299144   0.0766402), wk =   0.0349854
        k(   63) = (   0.1428571   0.3299144   0.1532804), wk =   0.0349854
        k(   64) = (   0.1428571   0.3299144   0.2299206), wk =   0.0349854
        k(   65) = (   0.1428571   0.4123930   0.0000000), wk =   0.0174927
        k(   66) = (   0.1428571   0.4123930   0.0766402), wk =   0.0349854
        k(   67) = (   0.1428571   0.4123930   0.1532804), wk =   0.0349854
        k(   68) = (   0.1428571   0.4123930   0.2299206), wk =   0.0349854
        k(   69) = (   0.1428571   0.4948717   0.0000000), wk =   0.0174927
        k(   70) = (   0.1428571   0.4948717   0.0766402), wk =   0.0349854
        k(   71) = (   0.1428571   0.4948717   0.1532804), wk =   0.0349854
        k(   72) = (   0.1428571   0.4948717   0.2299206), wk =   0.0349854
        k(   73) = (   0.1428571   0.5773503   0.0000000), wk =   0.0087464
        k(   74) = (   0.1428571   0.5773503   0.0766402), wk =   0.0174927
        k(   75) = (   0.1428571   0.5773503   0.1532804), wk =   0.0174927
        k(   76) = (   0.1428571   0.5773503   0.2299206), wk =   0.0174927
        k(   77) = (   0.2142857   0.3711537   0.0000000), wk =   0.0087464
        k(   78) = (   0.2142857   0.3711537   0.0766402), wk =   0.0174927
        k(   79) = (   0.2142857   0.3711537   0.1532804), wk =   0.0174927
        k(   80) = (   0.2142857   0.3711537   0.2299206), wk =   0.0174927
        k(   81) = (   0.2142857   0.4536324   0.0000000), wk =   0.0174927
        k(   82) = (   0.2142857   0.4536324   0.0766402), wk =   0.0349854
        k(   83) = (   0.2142857   0.4536324   0.1532804), wk =   0.0349854
        k(   84) = (   0.2142857   0.4536324   0.2299206), wk =   0.0349854
        k(   85) = (   0.2142857   0.5361110   0.0000000), wk =   0.0174927
        k(   86) = (   0.2142857   0.5361110   0.0766402), wk =   0.0349854
        k(   87) = (   0.2142857   0.5361110   0.1532804), wk =   0.0349854
        k(   88) = (   0.2142857   0.5361110   0.2299206), wk =   0.0349854
        k(   89) = (   0.2857143   0.4948717   0.0000000), wk =   0.0087464
        k(   90) = (   0.2857143   0.4948717   0.0766402), wk =   0.0174927
        k(   91) = (   0.2857143   0.4948717   0.1532804), wk =   0.0174927
        k(   92) = (   0.2857143   0.4948717   0.2299206), wk =   0.0174927
        k(   93) = (   0.2857143   0.5773503   0.0000000), wk =   0.0087464
        k(   94) = (   0.2857143   0.5773503   0.0766402), wk =   0.0174927
        k(   95) = (   0.2857143   0.5773503   0.1532804), wk =   0.0174927
        k(   96) = (   0.2857143   0.5773503   0.2299206), wk =   0.0174927

                       cryst. coord.
        k(    1) = (   0.0000000   0.0000000   0.0000000), wk =   0.0014577
        k(    2) = (   0.0000000   0.0000000   0.1428571), wk =   0.0029155
        k(    3) = (   0.0000000   0.0000000   0.2857143), wk =   0.0029155
        k(    4) = (   0.0000000   0.0000000   0.4285714), wk =   0.0029155
        k(    5) = (   0.0000000   0.0714286   0.0000000), wk =   0.0087464
        k(    6) = (   0.0000000   0.0714286   0.1428571), wk =   0.0174927
        k(    7) = (   0.0000000   0.0714286   0.2857143), wk =   0.0174927
        k(    8) = (   0.0000000   0.0714286   0.4285714), wk =   0.0174927
        k(    9) = (   0.0000000   0.1428571   0.0000000), wk =   0.0087464
        k(   10) = (   0.0000000   0.1428571   0.1428571), wk =   0.0174927
        k(   11) = (   0.0000000   0.1428571   0.2857143), wk =   0.0174927
        k(   12) = (   0.0000000   0.1428571   0.4285714), wk =   0.0174927
        k(   13) = (   0.0000000   0.2142857   0.0000000), wk =   0.0087464
        k(   14) = (   0.0000000   0.2142857   0.1428571), wk =   0.0174927
        k(   15) = (   0.0000000   0.2142857   0.2857143), wk =   0.0174927
        k(   16) = (   0.0000000   0.2142857   0.4285714), wk =   0.0174927
        k(   17) = (   0.0000000   0.2857143   0.0000000), wk =   0.0087464
        k(   18) = (   0.0000000   0.2857143   0.1428571), wk =   0.0174927
        k(   19) = (   0.0000000   0.2857143   0.2857143), wk =   0.0174927
        k(   20) = (   0.0000000   0.2857143   0.4285714), wk =   0.0174927
        k(   21) = (   0.0000000   0.3571429   0.0000000), wk =   0.0087464
        k(   22) = (   0.0000000   0.3571429   0.1428571), wk =   0.0174927
        k(   23) = (   0.0000000   0.3571429   0.2857143), wk =   0.0174927
        k(   24) = (   0.0000000   0.3571429   0.4285714), wk =   0.0174927
        k(   25) = (   0.0000000   0.4285714   0.0000000), wk =   0.0087464
        k(   26) = (   0.0000000   0.4285714   0.1428571), wk =   0.0174927
        k(   27) = (   0.0000000   0.4285714   0.2857143), wk =   0.0174927
        k(   28) = (   0.0000000   0.4285714   0.4285714), wk =   0.0174927
        k(   29) = (   0.0000000  -0.5000000   0.0000000), wk =   0.0043732
        k(   30) = (   0.0000000  -0.5000000   0.1428571), wk =   0.0087464
        k(   31) = (   0.0000000  -0.5000000   0.2857143), wk =   0.0087464
        k(   32) = (   0.0000000  -0.5000000   0.4285714), wk =   0.0087464
        k(   33) = (   0.0714286   0.0714286   0.0000000), wk =   0.0087464
        k(   34) = (   0.0714286   0.0714286   0.1428571), wk =   0.0174927
        k(   35) = (   0.0714286   0.0714286   0.2857143), wk =   0.0174927
        k(   36) = (   0.0714286   0.0714286   0.4285714), wk =   0.0174927
        k(   37) = (   0.0714286   0.1428571   0.0000000), wk =   0.0174927
        k(   38) = (   0.0714286   0.1428571   0.1428571), wk =   0.0349854
        k(   39) = (   0.0714286   0.1428571   0.2857143), wk =   0.0349854
        k(   40) = (   0.0714286   0.1428571   0.4285714), wk =   0.0349854
        k(   41) = (   0.0714286   0.2142857   0.0000000), wk =   0.0174927
        k(   42) = (   0.0714286   0.2142857   0.1428571), wk =   0.0349854
        k(   43) = (   0.0714286   0.2142857   0.2857143), wk =   0.0349854
        k(   44) = (   0.0714286   0.2142857   0.4285714), wk =   0.0349854
        k(   45) = (   0.0714286   0.2857143   0.0000000), wk =   0.0174927
        k(   46) = (   0.0714286   0.2857143   0.1428571), wk =   0.0349854
        k(   47) = (   0.0714286   0.2857143   0.2857143), wk =   0.0349854
        k(   48) = (   0.0714286   0.2857143   0.4285714), wk =   0.0349854
        k(   49) = (   0.0714286   0.3571429   0.0000000), wk =   0.0174927
        k(   50) = (   0.0714286   0.3571429   0.1428571), wk =   0.0349854
        k(   51) = (   0.0714286   0.3571429   0.2857143), wk =   0.0349854
        k(   52) = (   0.0714286   0.3571429   0.4285714), wk =   0.0349854
        k(   53) = (   0.0714286   0.4285714   0.0000000), wk =   0.0174927
        k(   54) = (   0.0714286   0.4285714   0.1428571), wk =   0.0349854
        k(   55) = (   0.0714286   0.4285714   0.2857143), wk =   0.0349854
        k(   56) = (   0.0714286   0.4285714   0.4285714), wk =   0.0349854
        k(   57) = (   0.1428571   0.1428571   0.0000000), wk =   0.0087464
        k(   58) = (   0.1428571   0.1428571   0.1428571), wk =   0.0174927
        k(   59) = (   0.1428571   0.1428571   0.2857143), wk =   0.0174927
        k(   60) = (   0.1428571   0.1428571   0.4285714), wk =   0.0174927
        k(   61) = (   0.1428571   0.2142857   0.0000000), wk =   0.0174927
        k(   62) = (   0.1428571   0.2142857   0.1428571), wk =   0.0349854
        k(   63) = (   0.1428571   0.2142857   0.2857143), wk =   0.0349854
        k(   64) = (   0.1428571   0.2142857   0.4285714), wk =   0.0349854
        k(   65) = (   0.1428571   0.2857143   0.0000000), wk =   0.0174927
        k(   66) = (   0.1428571   0.2857143   0.1428571), wk =   0.0349854
        k(   67) = (   0.1428571   0.2857143   0.2857143), wk =   0.0349854
        k(   68) = (   0.1428571   0.2857143   0.4285714), wk =   0.0349854
        k(   69) = (   0.1428571   0.3571429   0.0000000), wk =   0.0174927
        k(   70) = (   0.1428571   0.3571429   0.1428571), wk =   0.0349854
        k(   71) = (   0.1428571   0.3571429   0.2857143), wk =   0.0349854
        k(   72) = (   0.1428571   0.3571429   0.4285714), wk =   0.0349854
        k(   73) = (   0.1428571   0.4285714   0.0000000), wk =   0.0087464
        k(   74) = (   0.1428571   0.4285714   0.1428571), wk =   0.0174927
        k(   75) = (   0.1428571   0.4285714   0.2857143), wk =   0.0174927
        k(   76) = (   0.1428571   0.4285714   0.4285714), wk =   0.0174927
        k(   77) = (   0.2142857   0.2142857   0.0000000), wk =   0.0087464
        k(   78) = (   0.2142857   0.2142857   0.1428571), wk =   0.0174927
        k(   79) = (   0.2142857   0.2142857   0.2857143), wk =   0.0174927
        k(   80) = (   0.2142857   0.2142857   0.4285714), wk =   0.0174927
        k(   81) = (   0.2142857   0.2857143   0.0000000), wk =   0.0174927
        k(   82) = (   0.2142857   0.2857143   0.1428571), wk =   0.0349854
        k(   83) = (   0.2142857   0.2857143   0.2857143), wk =   0.0349854
        k(   84) = (   0.2142857   0.2857143   0.4285714), wk =   0.0349854
        k(   85) = (   0.2142857   0.3571429   0.0000000), wk =   0.0174927
        k(   86) = (   0.2142857   0.3571429   0.1428571), wk =   0.0349854
        k(   87) = (   0.2142857   0.3571429   0.2857143), wk =   0.0349854
        k(   88) = (   0.2142857   0.3571429   0.4285714), wk =   0.0349854
        k(   89) = (   0.2857143   0.2857143   0.0000000), wk =   0.0087464
        k(   90) = (   0.2857143   0.2857143   0.1428571), wk =   0.0174927
        k(   91) = (   0.2857143   0.2857143   0.2857143), wk =   0.0174927
        k(   92) = (   0.2857143   0.2857143   0.4285714), wk =   0.0174927
        k(   93) = (   0.2857143   0.3571429   0.0000000), wk =   0.0087464
        k(   94) = (   0.2857143   0.3571429   0.1428571), wk =   0.0174927
        k(   95) = (   0.2857143   0.3571429   0.2857143), wk =   0.0174927
        k(   96) = (   0.2857143   0.3571429   0.4285714), wk =   0.0174927

     Dense  grid:    30385 G-vectors     FFT dimensions: (  36,  36,  64)

     Dynamical RAM for                 wfc:       0.09 MB

     Dynamical RAM for     wfc (w. buffer):       8.98 MB

     Dynamical RAM for           str. fact:       0.05 MB

     Dynamical RAM for           local pot:       0.00 MB

     Dynamical RAM for          nlocal pot:       0.21 MB

     Dynamical RAM for                qrad:       1.68 MB

     Dynamical RAM for          rho,v,vnew:       0.35 MB

     Dynamical RAM for               rhoin:       0.12 MB

     Dynamical RAM for            rho*nmix:       0.74 MB

     Dynamical RAM for           G-vectors:       0.20 MB

     Dynamical RAM for          h,s,v(r/c):       0.05 MB

     Dynamical RAM for          <psi|beta>:       0.01 MB

     Dynamical RAM for                 psi:       0.19 MB

     Dynamical RAM for                hpsi:       0.19 MB

     Dynamical RAM for                spsi:       0.19 MB

     Dynamical RAM for      wfcinit/wfcrot:       0.19 MB

     Dynamical RAM for           addusdens:       8.71 MB

     Estimated static dynamical RAM per process >      12.01 MB

     Estimated max dynamical RAM per process >      21.47 MB

     Estimated total dynamical RAM >     214.68 MB

     The initial density is read from file :
     ./out/Zn.save/charge-density

     Starting wfcs from file
     Checking if some PAW data can be deallocated... 

     total cpu time spent up to now is        0.9 secs

     Self-consistent Calculation

     iteration #  1     ecut=   110.00 Ry     beta= 0.70
     Davidson diagonalization with overlap

---- Real-time Memory Report at c_bands before calling an iterative solver
            47 MiB given to the printing process from OS
             0 MiB allocation reported by mallinfo(arena+hblkhd)
           569 MiB available memory on the node where the printing process lives
------------------
     ethr =  1.00E-05,  avg # of iterations =  1.9

     Threshold (ethr) on eigenvalues was too large:
     Diagonalizing with lowered threshold

     Davidson diagonalization with overlap

---- Real-time Memory Report at c_bands before calling an iterative solver
            58 MiB given to the printing process from OS
             0 MiB allocation reported by mallinfo(arena+hblkhd)
           494 MiB available memory on the node where the printing process lives
------------------
     ethr =  4.56E-10,  avg # of iterations =  3.0

     total cpu time spent up to now is        8.8 secs

     End of self-consistent calculation

          k = 0.0000 0.0000 0.0000 (  3829 PWs)   bands (ev):

     1.0673   3.0911   3.8960   4.1578   4.1578   4.2130   4.2130   4.5846
     4.5846   4.8113   4.8113   7.9809   8.8867  25.8238  29.4368  30.0639

     occupation numbers 
     1.0000   1.0000   1.0000   1.0000   1.0000   1.0000   1.0000   1.0000
     1.0000   1.0000   1.0000   1.0000   1.0000   0.0000   0.0000   0.0000

          k = 0.0000 0.0000 0.0766 (  3805 PWs)   bands (ev):

     1.1948   3.0710   3.8979   4.1563   4.1563   4.2070   4.2070   4.6001
     4.6001   4.8034   4.8034   6.6468  10.5054  23.8304  30.1928  30.1928

     occupation numbers 
     1.0000   1.0000   1.0000   1.0000   1.0000   1.0000   1.0000   1.0000
     1.0000   1.0000   1.0000   1.0000   1.0000   0.0000   0.0000   0.0000

          k = 0.0000 0.0000 0.1533 (  3793 PWs)   bands (ev):

     1.5645   2.9743   3.9179   4.1552   4.1552   4.1918   4.1918   4.6404
     4.6404   4.7796   4.7796   5.2858  12.7520  20.8663  30.5660  30.5660

     occupation numbers 
     1.0000   1.0000   1.0000   1.0000   1.0000   1.0000   1.0000   1.0000
     1.0000   1.0000   1.0000   1.0000   0.0000   0.0000   0.0000   0.0000

          k = 0.0000 0.0000 0.2299 (  3786 PWs)   bands (ev):

     2.1183   2.6725   4.0190   4.1605   4.1605   4.1739   4.1739   4.3899
     4.6917   4.6917   4.7410   4.7410  15.2511  17.9684  31.1225  31.1225

     occupation numbers 
     1.0000   1.0000   1.0000   1.0000   1.0000   1.0000   1.0000   1.0000
     1.0000   1.0000   1.0000   1.0000   0.0000   0.0000   0.0000   0.0000

          k = 0.0000 0.0825 0.0000 (  3805 PWs)   bands (ev):

     1.2247   3.1645   3.9134   4.1408   4.1946   4.1972   4.2505   4.5473
     4.5690   4.7094   4.8131   8.2466   8.9637  25.9989  27.3970  28.6881

     occupation numbers 
     1.0000   1.0000   1.0000   1.0000   1.0000   1.0000   1.0000   1.0000
     1.0000   1.0000   1.0000   1.0000   1.0000   0.0000   0.0000   0.0000

          k = 0.0000 0.0825 0.0766 (  3813 PWs)   bands (ev):

     1.3514   3.1489   3.9142   4.1369   4.1870   4.1951   4.2443   4.5669
     4.5859   4.6908   4.8044   6.8532  10.6492  23.9777  27.5513  28.8238

     occupation numbers 
     1.0000   1.0000   1.0000   1.0000   1.0000   1.0000   1.0000   1.0000
     1.0000   1.0000   1.0000   1.0000   1.0000   0.0000   0.0000   0.0000

          k = 0.0000 0.0825 0.1533 (  3790 PWs)   bands (ev):

     1.7180   3.0684   3.9278   4.1325   4.1676   4.1932   4.2288   4.5839
     4.6293   4.6424   4.7785   5.5356  12.9002  21.0109  27.9355  29.2269

     occupation numbers 
     1.0000   1.0000   1.0000   1.0000   1.0000   1.0000   1.0000   1.0000
     1.0000   1.0000   1.0000   1.0000   0.0000   0.0000   0.0000   0.0000

          k = 0.0000 0.0825 0.2299 (  3781 PWs)   bands (ev):

     2.2635   2.7961   4.0050   4.1375   4.1431   4.1978   4.2110   4.2995
     4.6841   4.7126   4.7369   4.8753  15.3985  18.1142  28.5617  29.4205

     occupation numbers 
     1.0000   1.0000   1.0000   1.0000   1.0000   1.0000   1.0000   1.0000
     1.0000   1.0000   1.0000   1.0000   0.0000   0.0000   0.0000   0.0000

          k = 0.0000 0.1650 0.0000 (  3798 PWs)   bands (ev):

     1.6866   3.3515   3.9444   4.1044   4.1769   4.3091   4.3568   4.3827
     4.5280   4.5479   4.8156   8.9562   9.2138  23.9053  26.4847  26.9428

     occupation numbers 
     1.0000   1.0000   1.0000   1.0000   1.0000   1.0000   1.0000   1.0000
     1.0000   1.0000   1.0000   1.0000   1.0000   0.0000   0.0000   0.0000

          k = 0.0000 0.1650 0.0766 (  3796 PWs)   bands (ev):

     1.8093   3.3476   3.9460   4.0926   4.1565   4.3049   4.3497   4.3885
     4.5495   4.5562   4.8050   7.3705  11.0891  23.9460  24.5199  27.0865

     occupation numbers 
     1.0000   1.0000   1.0000   1.0000   1.0000   1.0000   1.0000   1.0000
     1.0000   1.0000   1.0000   1.0000   1.0000   0.0000   0.0000   0.0000

          k = 0.0000 0.1650 0.1533 (  3797 PWs)   bands (ev):

     2.1618   3.3099   3.9489   4.0732   4.1152   4.2994   4.3333   4.3342
     4.6016   4.6228   4.7741   6.0198  13.3442  21.4253  24.4650  27.0988

     occupation numbers 
     1.0000   1.0000   1.0000   1.0000   1.0000   1.0000   1.0000   1.0000
     1.0000   1.0000   1.0000   1.0000   0.0000   0.0000   0.0000   0.0000

          k = 0.0000 0.1650 0.2299 (  3789 PWs)   bands (ev):

     2.6716   3.1242   3.9669   4.0350   4.1051   4.1915   4.3023   4.3151
     4.6650   4.7256   4.7853   5.1616  15.8371  18.5440  25.0988  25.9841

     occupation numbers 
     1.0000   1.0000   1.0000   1.0000   1.0000   1.0000   1.0000   1.0000
     1.0000   1.0000   1.0000   1.0000   0.0000   0.0000   0.0000   0.0000

          k = 0.0000 0.2474 0.0000 (  3802 PWs)   bands (ev):

     2.3992   3.5275   3.9820   4.0655   4.1237   4.2899   4.4326   4.4734
     4.4754   4.5139   4.8147   9.6893   9.9821  20.5584  25.4050  26.5399

     occupation numbers 
     1.0000   1.0000   1.0000   1.0000   1.0000   1.0000   1.0000   1.0000
     1.0000   1.0000   1.0000   1.0000   1.0000   0.0000   0.0000   0.0000

          k = 0.0000 0.2474 0.0766 (  3793 PWs)   bands (ev):

     2.5066   3.5348   3.9796   4.0392   4.1141   4.2801   4.4472   4.4838
     4.4980   4.5290   4.8024   8.1052  11.8369  20.6816  25.0337  25.1432

     occupation numbers 
     1.0000   1.0000   1.0000   1.0000   1.0000   1.0000   1.0000   1.0000
     1.0000   1.0000   1.0000   1.0000   0.4362   0.0000   0.0000   0.0000

          k = 0.0000 0.2474 0.1533 (  3782 PWs)   bands (ev):

     2.8029   3.5393   3.9541   3.9777   4.1137   4.2527   4.4378   4.4841
     4.5854   4.6387   4.7674   6.6859  14.0784  20.9830  22.2531  23.8106

     occupation numbers 
     1.0000   1.0000   1.0000   1.0000   1.0000   1.0000   1.0000   1.0000
     1.0000   1.0000   1.0000   1.0000   0.0000   0.0000   0.0000   0.0000

          k = 0.0000 0.2474 0.2299 (  3787 PWs)   bands (ev):

     3.1855   3.4612   3.9088   3.9215   4.1510   4.2060   4.4449   4.4630
     4.6509   4.7144   4.9661   5.6223  16.5498  19.2078  21.8190  22.6850

     occupation numbers 
     1.0000   1.0000   1.0000   1.0000   1.0000   1.0000   1.0000   1.0000
     1.0000   1.0000   1.0000   1.0000   0.0000   0.0000   0.0000   0.0000

          k = 0.0000 0.3299 0.0000 (  3798 PWs)   bands (ev):

     3.1140   3.5371   3.8948   4.0739   4.2024   4.3216   4.4168   4.6552
     4.6663   4.6939   4.8099  10.4533  11.2543  17.4478  23.2631  24.0541

     occupation numbers 
     1.0000   1.0000   1.0000   1.0000   1.0000   1.0000   1.0000   1.0000
     1.0000   1.0000   1.0000   1.0000   1.0000   0.0000   0.0000   0.0000

          k = 0.0000 0.3299 0.0766 (  3789 PWs)   bands (ev):

     3.1616   3.5453   3.8882   4.0254   4.1754   4.4311   4.4714   4.6643
     4.6684   4.6861   4.7998   9.0723  12.8832  17.5750  22.0834  24.2969

     occupation numbers 
     1.0000   1.0000   1.0000   1.0000   1.0000   1.0000   1.0000   1.0000
     1.0000   1.0000   1.0000   1.0000   0.0000   0.0000   0.0000   0.0000

          k = 0.0000 0.3299 0.1533 (  3784 PWs)   bands (ev):

     3.2789   3.5562   3.8618   3.9094   4.2636   4.4712   4.5414   4.6444
     4.6921   4.7745   4.9169   7.6171  15.0754  17.9482  20.7582  23.0189

     occupation numbers 
     1.0000   1.0000   1.0000   1.0000   1.0000   1.0000   1.0000   1.0000
     1.0000   1.0000   1.0000   1.0000   0.0000   0.0000   0.0000   0.0000

          k = 0.0000 0.3299 0.2299 (  3784 PWs)   bands (ev):

     3.4148   3.5216   3.8274   3.8430   4.3784   4.4772   4.5290   4.5917
     4.7150   4.7439   5.5212   6.4250  17.4319  18.4834  19.7099  20.4085

     occupation numbers 
     1.0000   1.0000   1.0000   1.0000   1.0000   1.0000   1.0000   1.0000
     1.0000   1.0000   1.0000   1.0000   0.0000   0.0000   0.0000   0.0000

          k = 0.0000 0.4124 0.0000 (  3794 PWs)   bands (ev):

     3.3603   3.4710   3.7283   4.1971   4.2246   4.3683   4.4569   4.8033
     4.8433   4.8630   5.6801  11.4905  12.7353  14.6761  20.4238  21.4346

     occupation numbers 
     1.0000   1.0000   1.0000   1.0000   1.0000   1.0000   1.0000   1.0000
     1.0000   1.0000   1.0000   1.0001   0.0000   0.0000   0.0000   0.0000

          k = 0.0000 0.4124 0.0766 (  3795 PWs)   bands (ev):

     3.3568   3.4666   3.7483   4.0489   4.2888   4.3874   4.5837   4.7732
     4.8457   4.8694   5.7640  10.2900  14.1085  14.8417  19.3115  22.6669

     occupation numbers 
     1.0000   1.0000   1.0000   1.0000   1.0000   1.0000   1.0000   1.0000
     1.0000   1.0000   1.0000   1.0000   0.0000   0.0000   0.0000   0.0000

          k = 0.0000 0.4124 0.1533 (  3789 PWs)   bands (ev):

     3.3621   3.4669   3.7618   3.8742   4.4213   4.4418   4.7031   4.7042
     4.8521   4.8729   6.0827   8.8585  15.1006  16.1620  18.1859  23.3991

     occupation numbers 
     1.0000   1.0000   1.0000   1.0000   1.0000   1.0000   1.0000   1.0000
     1.0000   1.0000   1.0000   1.0000   0.0000   0.0000   0.0000   0.0000

          k = 0.0000 0.4124 0.2299 (  3792 PWs)   bands (ev):

     3.3986   3.4482   3.7533   3.7734   4.5223   4.5769   4.6152   4.6900
     4.8608   4.8689   6.7158   7.6523  15.7281  16.4862  19.0950  21.4578

     occupation numbers 
     1.0000   1.0000   1.0000   1.0000   1.0000   1.0000   1.0000   1.0000
     1.0000   1.0000   1.0000   1.0000   0.0000   0.0000   0.0000   0.0000

          k = 0.0000 0.4949 0.0000 (  3802 PWs)   bands (ev):

     3.3474   3.4286   3.6295   4.1581   4.2896   4.3357   4.6095   4.7978
     4.9666   4.9862   7.2988  11.4720  13.5872  14.3586  17.8983  19.1147

     occupation numbers 
     1.0000   1.0000   1.0000   1.0000   1.0000   1.0000   1.0000   1.0000
     1.0000   1.0000   1.0000   1.0000   0.0000   0.0000   0.0000   0.0000

          k = 0.0000 0.4949 0.0766 (  3795 PWs)   bands (ev):

     3.3504   3.3965   3.6652   4.0334   4.3528   4.3569   4.7002   4.7724
     4.9681   4.9863   7.3998  11.1713  12.8506  15.3829  17.2292  20.3365

     occupation numbers 
     1.0000   1.0000   1.0000   1.0000   1.0000   1.0000   1.0000   1.0000
     1.0000   1.0000   1.0000   1.0000   0.0000   0.0000   0.0000   0.0000

          k = 0.0000 0.4949 0.1533 (  3792 PWs)   bands (ev):

     3.3388   3.3868   3.6959   3.8476   4.4172   4.5011   4.7035   4.8038
     4.9720   4.9852   7.7261  10.2120  12.8030  15.0298  18.3463  22.0406

     occupation numbers 
     1.0000   1.0000   1.0000   1.0000   1.0000   1.0000   1.0000   1.0000
     1.0000   1.0000   1.0000   1.0000   0.0000   0.0000   0.0000   0.0000

          k = 0.0000 0.4949 0.2299 (  3800 PWs)   bands (ev):

     3.3498   3.3804   3.6985   3.7289   4.5062   4.6081   4.6759   4.7962
     4.9771   4.9819   8.3142   9.1642  13.2893  14.0699  20.4683  22.3892

     occupation numbers 
     1.0000   1.0000   1.0000   1.0000   1.0000   1.0000   1.0000   1.0000
     1.0000   1.0000   1.0000   1.0000   0.0000   0.0000   0.0000   0.0000

          k = 0.0000-0.5774 0.0000 (  3818 PWs)   bands (ev):

     3.3281   3.4135   3.5970   4.1344   4.3225   4.3242   4.6583   4.7957
     5.0105   5.0318   8.9172   9.7462  14.6347  15.5056  16.2982  17.7345

     occupation numbers 
     1.0000   1.0000   1.0000   1.0000   1.0000   1.0000   1.0000   1.0000
     1.0000   1.0000   1.0000   1.0000   0.0000   0.0000   0.0000   0.0000

          k = 0.0000-0.5774 0.0766 (  3808 PWs)   bands (ev):

     3.3371   3.3700   3.6376   4.0222   4.3461   4.3768   4.7420   4.7705
     5.0120   5.0309   9.0195   9.7925  13.9829  14.2837  17.8021  18.6166

     occupation numbers 
     1.0000   1.0000   1.0000   1.0000   1.0000   1.0000   1.0000   1.0000
     1.0000   1.0000   1.0000   1.0000   0.0000   0.0000   0.0000   0.0000

          k = 0.0000-0.5774 0.1533 (  3810 PWs)   bands (ev):

     3.3262   3.3550   3.6730   3.8369   4.4081   4.5254   4.7013   4.8398
     5.0155   5.0283   9.3145   9.9081  12.9431  13.0784  19.8364  20.3462

     occupation numbers 
     1.0000   1.0000   1.0000   1.0000   1.0000   1.0000   1.0000   1.0000
     1.0000   1.0000   1.0000   1.0000   0.0000   0.0000   0.0000   0.0000

          k = 0.0000-0.5774 0.2299 (  3788 PWs)   bands (ev):

     3.3294   3.3547   3.6790   3.7133   4.4997   4.6042   4.7053   4.8297
     5.0199   5.0244   9.7170   9.9616  12.2507  12.3162  21.8022  22.0442

     occupation numbers 
     1.0000   1.0000   1.0000   1.0000   1.0000   1.0000   1.0000   1.0000
     1.0000   1.0000   1.0000   1.0000   0.0000   0.0000   0.0000   0.0000

          k = 0.0714 0.1237 0.0000 (  3805 PWs)   bands (ev):

     1.5349   3.2969   3.9374   4.1168   4.1580   4.2779   4.3304   4.4670
     4.4939   4.6112   4.8112   8.7309   9.1276  25.6631  25.7587  26.3340

     occupation numbers 
     1.0000   1.0000   1.0000   1.0000   1.0000   1.0000   1.0000   1.0000
     1.0000   1.0000   1.0000   1.0000   1.0000   0.0000   0.0000   0.0000

          k = 0.0714 0.1237 0.0766 (  3808 PWs)   bands (ev):

     1.6592   3.2895   3.9385   4.1051   4.1468   4.2742   4.3234   4.4622
     4.5259   4.6089   4.8017   7.2095  10.9415  24.2466  25.7957  25.9508

     occupation numbers 
     1.0000   1.0000   1.0000   1.0000   1.0000   1.0000   1.0000   1.0000
     1.0000   1.0000   1.0000   1.0000   1.0000   0.0000   0.0000   0.0000

          k = 0.0714 0.1237 0.1533 (  3799 PWs)   bands (ev):

     2.0176   3.2388   3.9441   4.0895   4.1167   4.2687   4.3071   4.3951
     4.6107   4.6268   4.7743   5.8754  13.1965  21.2927  26.1912  26.3231

     occupation numbers 
     1.0000   1.0000   1.0000   1.0000   1.0000   1.0000   1.0000   1.0000
     1.0000   1.0000   1.0000   1.0000   0.0000   0.0000   0.0000   0.0000

          k = 0.0714 0.1237 0.2299 (  3793 PWs)   bands (ev):

     2.5420   3.0247   3.9793   4.0667   4.1018   4.2024   4.2808   4.2896
     4.6741   4.7201   4.7647   5.0736  15.6918  18.4026  26.8385  26.9455

     occupation numbers 
     1.0000   1.0000   1.0000   1.0000   1.0000   1.0000   1.0000   1.0000
     1.0000   1.0000   1.0000   1.0000   0.0000   0.0000   0.0000   0.0000

          k = 0.0714 0.2062 0.0000 (  3797 PWs)   bands (ev):

     2.1294   3.4986   3.9425   4.0816   4.1658   4.2300   4.4137   4.4282
     4.4890   4.5466   4.8056   9.4930   9.5890  22.2960  24.2156  26.8499

     occupation numbers 
     1.0000   1.0000   1.0000   1.0000   1.0000   1.0000   1.0000   1.0000
     1.0000   1.0000   1.0000   1.0000   1.0000   0.0000   0.0000   0.0000

          k = 0.0714 0.2062 0.0766 (  3790 PWs)   bands (ev):

     2.2455   3.5038   3.9499   4.0579   4.1210   4.2403   4.4148   4.4612
     4.4844   4.5670   4.7959   7.8230  11.5378  22.4131  24.2896  24.9215

     occupation numbers 
     1.0000   1.0000   1.0000   1.0000   1.0000   1.0000   1.0000   1.0000
     1.0000   1.0000   1.0000   1.0000   1.0012   0.0000   0.0000   0.0000

          k = 0.0714 0.2062 0.1533 (  3792 PWs)   bands (ev):

     2.5738   3.4992   3.9624   4.0056   4.0541   4.2093   4.4029   4.4605
     4.5935   4.6214   4.7705   6.4288  13.7873  21.7716  22.9207  24.7781

     occupation numbers 
     1.0000   1.0000   1.0000   1.0000   1.0000   1.0000   1.0000   1.0000
     1.0000   1.0000   1.0000   1.0000   0.0000   0.0000   0.0000   0.0000

          k = 0.0714 0.2062 0.2299 (  3785 PWs)   bands (ev):

     3.0269   3.3867   3.9369   3.9497   4.0586   4.1298   4.4136   4.4362
     4.6609   4.7097   4.8911   5.4373  16.2701  18.9605  23.5112  24.3967

     occupation numbers 
     1.0000   1.0000   1.0000   1.0000   1.0000   1.0000   1.0000   1.0000
     1.0000   1.0000   1.0000   1.0000   0.0000   0.0000   0.0000   0.0000

          k = 0.0714 0.2887 0.0000 (  3797 PWs)   bands (ev):

     2.8921   3.6021   3.9926   4.0104   4.0553   4.3251   4.3272   4.4728
     4.6149   4.7382   4.7982  10.1226  10.7284  19.0675  22.9546  24.8704

     occupation numbers 
     1.0000   1.0000   1.0000   1.0000   1.0000   1.0000   1.0000   1.0000
     1.0000   1.0000   1.0000   1.0000   1.0000   0.0000   0.0000   0.0000

          k = 0.0714 0.2887 0.0766 (  3797 PWs)   bands (ev):

     2.9743   3.6137   3.9588   4.0130   4.0459   4.2955   4.4264   4.4700
     4.6317   4.7160   4.8089   8.6680  12.4414  19.1943  23.0803  23.6875

     occupation numbers 
     1.0000   1.0000   1.0000   1.0000   1.0000   1.0000   1.0000   1.0000
     1.0000   1.0000   1.0000   1.0000   0.0000   0.0000   0.0000   0.0000

          k = 0.0714 0.2887 0.1533 (  3787 PWs)   bands (ev):

     3.1850   3.6341   3.8945   3.9496   4.0995   4.2647   4.4734   4.6081
     4.6373   4.7114   4.8687   7.2250  14.6607  19.5579  22.3422  22.6509

     occupation numbers 
     1.0000   1.0000   1.0000   1.0000   1.0000   1.0000   1.0000   1.0000
     1.0000   1.0000   1.0000   1.0000   0.0000   0.0000   0.0000   0.0000

          k = 0.0714 0.2887 0.2299 (  3784 PWs)   bands (ev):

     3.4254   3.5931   3.8556   3.8925   4.1606   4.2184   4.5109   4.5711
     4.7007   4.7303   5.2720   6.0787  17.0999  19.5371  20.5569  21.2333

     occupation numbers 
     1.0000   1.0000   1.0000   1.0000   1.0000   1.0000   1.0000   1.0000
     1.0000   1.0000   1.0000   1.0000   0.0000   0.0000   0.0000   0.0000

          k = 0.0714 0.3712 0.0000 (  3806 PWs)   bands (ev):

     3.3794   3.5499   3.8052   4.1414   4.2448   4.2622   4.3989   4.6075
     4.7893   4.7931   5.3069  11.0611  12.1003  16.1036  21.8832  22.0004

     occupation numbers 
     1.0000   1.0000   1.0000   1.0000   1.0000   1.0000   1.0000   1.0000
     1.0000   1.0000   1.0000   1.0000   0.0000   0.0000   0.0000   0.0000

          k = 0.0714 0.3712 0.0766 (  3797 PWs)   bands (ev):

     3.3861   3.5560   3.8191   4.0286   4.2096   4.4063   4.4756   4.6015
     4.7598   4.8053   5.3648   9.7748  13.6213  16.2320  20.7556  22.1052

     occupation numbers 
     1.0000   1.0000   1.0000   1.0000   1.0000   1.0000   1.0000   1.0000
     1.0000   1.0000   1.0000   1.0000   0.0000   0.0000   0.0000   0.0000

          k = 0.0714 0.3712 0.1533 (  3789 PWs)   bands (ev):

     3.4159   3.5667   3.8203   3.8866   4.2915   4.4491   4.5570   4.6816
     4.7014   4.8256   5.6194   8.3281  15.7434  16.6165  19.4650  22.4832

     occupation numbers 
     1.0000   1.0000   1.0000   1.0000   1.0000   1.0000   1.0000   1.0000
     1.0000   1.0000   1.0000   1.0000   0.0000   0.0000   0.0000   0.0000

          k = 0.0714 0.3712 0.2299 (  3793 PWs)   bands (ev):

     3.4757   3.5433   3.7967   3.8174   4.4043   4.4875   4.5253   4.5953
     4.7977   4.8320   6.2079   7.1259  17.1908  17.6152  18.8965  20.9791

     occupation numbers 
     1.0000   1.0000   1.0000   1.0000   1.0000   1.0000   1.0000   1.0000
     1.0000   1.0000   1.0000   1.0000   0.0000   0.0000   0.0000   0.0000

          k = 0.0714 0.4536 0.0000 (  3791 PWs)   bands (ev):

     3.4172   3.4971   3.6805   4.1796   4.2541   4.3406   4.4912   4.7811
     4.8356   4.9229   6.6098  12.0426  13.6641  13.7255  19.2158  20.3253

     occupation numbers 
     1.0000   1.0000   1.0000   1.0000   1.0000   1.0000   1.0000   1.0000
     1.0000   1.0000   1.0000   0.0003   0.0000   0.0000   0.0000   0.0000

          k = 0.0714 0.4536 0.0766 (  3786 PWs)   bands (ev):

     3.4150   3.4730   3.7183   4.0383   4.2976   4.3779   4.6031   4.7537
     4.8330   4.9267   6.7080  11.0629  13.5980  15.0499  18.1948  21.4193

     occupation numbers 
     1.0000   1.0000   1.0000   1.0000   1.0000   1.0000   1.0000   1.0000
     1.0000   1.0000   1.0000   1.0000   0.0000   0.0000   0.0000   0.0000

          k = 0.0714 0.4536 0.1533 (  3794 PWs)   bands (ev):

     3.4033   3.4705   3.7485   3.8612   4.3652   4.4890   4.6813   4.7255
     4.8353   4.9322   7.0349   9.7081  13.9488  16.1133  17.8880  21.8358

     occupation numbers 
     1.0000   1.0000   1.0000   1.0000   1.0000   1.0000   1.0000   1.0000
     1.0000   1.0000   1.0000   1.0000   0.0000   0.0000   0.0000   0.0000

          k = 0.0714 0.4536 0.2299 (  3793 PWs)   bands (ev):

     3.4218   3.4607   3.7424   3.7590   4.4672   4.5780   4.6189   4.7118
     4.8828   4.9217   7.6431   8.5434  14.5501  15.3635  19.8345  22.0138

     occupation numbers 
     1.0000   1.0000   1.0000   1.0000   1.0000   1.0000   1.0000   1.0000
     1.0000   1.0000   1.0000   1.0000   0.0000   0.0000   0.0000   0.0000

          k = 0.0714 0.5361 0.0000 (  3795 PWs)   bands (ev):

     3.3790   3.4699   3.6191   4.1434   4.3087   4.3169   4.6049   4.7762
     4.9521   4.9820   8.3790  10.6174  14.3208  15.2484  16.9421  18.2734

     occupation numbers 
     1.0000   1.0000   1.0000   1.0000   1.0000   1.0000   1.0000   1.0000
     1.0000   1.0000   1.0000   1.0000   0.0000   0.0000   0.0000   0.0000

          k = 0.0714 0.5361 0.0766 (  3802 PWs)   bands (ev):

     3.3876   3.4228   3.6677   4.0288   4.2992   4.3983   4.6952   4.7493
     4.9487   4.9811   8.4815  10.6326  13.3767  15.1419  17.4188  19.3885

     occupation numbers 
     1.0000   1.0000   1.0000   1.0000   1.0000   1.0000   1.0000   1.0000
     1.0000   1.0000   1.0000   1.0000   0.0000   0.0000   0.0000   0.0000

          k = 0.0714 0.5361 0.1533 (  3794 PWs)   bands (ev):

     3.3749   3.4112   3.7067   3.8476   4.3539   4.5428   4.6750   4.8119
     4.9372   4.9760   8.7960  10.5247  12.5036  14.0789  19.2489  21.1887

     occupation numbers 
     1.0000   1.0000   1.0000   1.0000   1.0000   1.0000   1.0000   1.0000
     1.0000   1.0000   1.0000   1.0000   0.0000   0.0000   0.0000   0.0000

          k = 0.0714 0.5361 0.2299 (  3796 PWs)   bands (ev):

     3.3815   3.4106   3.7074   3.7318   4.4543   4.5696   4.7061   4.8205
     4.9392   4.9615   9.3231   9.9955  12.4871  13.1119  21.3110  22.1435

     occupation numbers 
     1.0000   1.0000   1.0000   1.0000   1.0000   1.0000   1.0000   1.0000
     1.0000   1.0000   1.0000   1.0000   0.0000   0.0000   0.0000   0.0000

          k = 0.1429 0.2474 0.0000 (  3790 PWs)   bands (ev):

     2.8053   3.6820   3.8836   4.0425   4.0664   4.1905   4.3061   4.5133
     4.6085   4.7580   4.7827  10.0193  10.5495  20.8387  21.0396  26.6182

     occupation numbers 
     1.0000   1.0000   1.0000   1.0000   1.0000   1.0000   1.0000   1.0000
     1.0000   1.0000   1.0000   1.0000   1.0000   0.0000   0.0000   0.0000

          k = 0.1429 0.2474 0.0766 (  3792 PWs)   bands (ev):

     2.8998   3.6975   3.8942   3.9848   4.0987   4.1196   4.4111   4.4886
     4.6384   4.7119   4.8167   8.5366  12.2951  20.9738  21.1566  25.3908

     occupation numbers 
     1.0000   1.0000   1.0000   1.0000   1.0000   1.0000   1.0000   1.0000
     1.0000   1.0000   1.0000   1.0000   0.0000   0.0000   0.0000   0.0000

          k = 0.1429 0.2474 0.1533 (  3794 PWs)   bands (ev):

     3.1518   3.7353   3.8957   3.9262   4.0237   4.0985   4.4714   4.5979
     4.6503   4.6842   4.8871   7.1026  14.5219  21.3762  21.3948  22.7517

     occupation numbers 
     1.0000   1.0000   1.0000   1.0000   1.0000   1.0000   1.0000   1.0000
     1.0000   1.0000   1.0000   1.0000   0.0000   0.0000   0.0000   0.0000

          k = 0.1429 0.2474 0.2299 (  3781 PWs)   bands (ev):

     3.4596   3.6921   3.8562   3.9287   3.9827   4.0488   4.5010   4.5640
     4.7184   4.7216   5.2267   5.9824  16.9773  19.6033  22.0374  22.3492

     occupation numbers 
     1.0000   1.0000   1.0000   1.0000   1.0000   1.0000   1.0000   1.0000
     1.0000   1.0000   1.0000   1.0000   0.0000   0.0000   0.0000   0.0000

          k = 0.1429 0.3299 0.0000 (  3796 PWs)   bands (ev):

     3.4685   3.7077   3.8734   3.9518   4.0944   4.2236   4.3236   4.4444
     4.7596   4.7832   5.2727  10.8527  11.7779  17.8420  19.8526  23.6760

     occupation numbers 
     1.0000   1.0000   1.0000   1.0000   1.0000   1.0000   1.0000   1.0000
     1.0000   1.0000   1.0000   1.0000   0.8596   0.0000   0.0000   0.0000

          k = 0.1429 0.3299 0.0766 (  3796 PWs)   bands (ev):

     3.4930   3.7235   3.8546   3.9589   4.0603   4.2390   4.4153   4.4396
     4.7302   4.7982   5.3205   9.5261  13.3508  17.9717  19.9831  22.4845

     occupation numbers 
     1.0000   1.0000   1.0000   1.0000   1.0000   1.0000   1.0000   1.0000
     1.0000   1.0000   1.0000   1.0000   0.0000   0.0000   0.0000   0.0000

          k = 0.1429 0.3299 0.1533 (  3794 PWs)   bands (ev):

     3.5532   3.7639   3.7994   3.9637   4.0536   4.2137   4.4402   4.6322
     4.6564   4.8256   5.5211   8.0836  15.5257  18.3532  20.3584  21.1542

     occupation numbers 
     1.0000   1.0000   1.0000   1.0000   1.0000   1.0000   1.0000   1.0000
     1.0000   1.0000   1.0000   1.0000   0.0000   0.0000   0.0000   0.0000

          k = 0.1429 0.3299 0.2299 (  3778 PWs)   bands (ev):

     3.6286   3.7090   3.8438   3.9148   4.1048   4.1642   4.4839   4.5645
     4.7866   4.8344   6.0319   6.9033  17.8706  18.9139  20.0768  20.5135

     occupation numbers 
     1.0000   1.0000   1.0000   1.0000   1.0000   1.0000   1.0000   1.0000
     1.0000   1.0000   1.0000   1.0000   0.0000   0.0000   0.0000   0.0000

          k = 0.1429 0.4124 0.0000 (  3793 PWs)   bands (ev):

     3.5958   3.6532   3.7492   4.1704   4.2022   4.2485   4.3601   4.5413
     4.7407   4.8986   6.3125  11.9829  13.2348  15.0592  19.0403  20.8470

     occupation numbers 
     1.0000   1.0000   1.0000   1.0000   1.0000   1.0000   1.0000   1.0000
     1.0000   1.0000   1.0000   0.0059   0.0000   0.0000   0.0000   0.0000

          k = 0.1429 0.4124 0.0766 (  3792 PWs)   bands (ev):

     3.5846   3.6324   3.8031   4.0083   4.2009   4.3743   4.4409   4.5373
     4.7117   4.9071   6.4041  10.7953  14.6048  15.2223  19.1705  19.7208

     occupation numbers 
     1.0000   1.0000   1.0000   1.0000   1.0000   1.0000   1.0000   1.0000
     1.0000   1.0000   1.0000   1.0000   0.0000   0.0000   0.0000   0.0000

          k = 0.1429 0.4124 0.1533 (  3782 PWs)   bands (ev):

     3.5598   3.6500   3.8222   3.8863   4.2333   4.4098   4.4983   4.6323
     4.6759   4.9193   6.7136   9.3818  15.5181  16.6385  18.5479  19.5775

     occupation numbers 
     1.0000   1.0000   1.0000   1.0000   1.0000   1.0000   1.0000   1.0000
     1.0000   1.0000   1.0000   1.0000   0.0000   0.0000   0.0000   0.0000

          k = 0.1429 0.4124 0.2299 (  3789 PWs)   bands (ev):

     3.5778   3.6309   3.7997   3.8419   4.3240   4.4138   4.4852   4.5436
     4.8286   4.9041   7.3056   8.2024  16.1512  16.9371  19.4152  20.1792

     occupation numbers 
     1.0000   1.0000   1.0000   1.0000   1.0000   1.0000   1.0000   1.0000
     1.0000   1.0000   1.0000   1.0000   0.0000   0.0000   0.0000   0.0000

          k = 0.1429 0.4949 0.0000 (  3797 PWs)   bands (ev):

     3.5258   3.6250   3.6758   4.1493   4.2853   4.2985   4.4326   4.7281
     4.7492   4.9319   7.8911  12.0330  13.9693  14.8565  18.2769  18.5750

     occupation numbers 
     1.0000   1.0000   1.0000   1.0000   1.0000   1.0000   1.0000   1.0000
     1.0000   1.0000   1.0000   0.0005   0.0000   0.0000   0.0000   0.0000

          k = 0.1429 0.4949 0.0766 (  3794 PWs)   bands (ev):

     3.5336   3.5598   3.7559   4.0295   4.2349   4.3924   4.5426   4.6975
     4.7425   4.9348   7.9990  11.7839  13.1932  15.9006  17.5815  18.6860

     occupation numbers 
     1.0000   1.0000   1.0000   1.0000   1.0000   1.0000   1.0000   1.0000
     1.0000   1.0000   1.0000   0.8216   0.0000   0.0000   0.0000   0.0000

          k = 0.1429 0.4949 0.1533 (  3793 PWs)   bands (ev):

     3.5084   3.5677   3.8061   3.8657   4.2511   4.5061   4.6079   4.6980
     4.7265   4.9339   8.3359  10.8265  13.1601  15.4912  18.7198  19.0914

     occupation numbers 
     1.0000   1.0000   1.0000   1.0000   1.0000   1.0000   1.0000   1.0000
     1.0000   1.0000   1.0000   1.0000   0.0000   0.0000   0.0000   0.0000

          k = 0.1429 0.4949 0.2299 (  3790 PWs)   bands (ev):

     3.5218   3.5653   3.7774   3.7928   4.3507   4.4812   4.6103   4.6765
     4.8283   4.9047   8.9257   9.7730  13.6814  14.4929  19.7368  20.3964

     occupation numbers 
     1.0000   1.0000   1.0000   1.0000   1.0000   1.0000   1.0000   1.0000
     1.0000   1.0000   1.0000   1.0000   0.0000   0.0000   0.0000   0.0000

          k = 0.1429 0.5774 0.0000 (  3794 PWs)   bands (ev):

     3.4988   3.6089   3.6518   4.1485   4.2519   4.3307   4.4951   4.7235
     4.8692   4.8922   9.5799  10.1775  15.1530  16.0436  16.6298  18.0747

     occupation numbers 
     1.0000   1.0000   1.0000   1.0000   1.0000   1.0000   1.0000   1.0000
     1.0000   1.0000   1.0000   1.0000   0.0000   0.0000   0.0000   0.0000

          k = 0.1429 0.5774 0.0766 (  3805 PWs)   bands (ev):

     3.5109   3.5338   3.7374   4.0382   4.2156   4.4190   4.5841   4.6929
     4.8661   4.8901   9.6937  10.2459  14.4641  14.7151  18.2153  18.5322

     occupation numbers 
     1.0000   1.0000   1.0000   1.0000   1.0000   1.0000   1.0000   1.0000
     1.0000   1.0000   1.0000   1.0000   0.0000   0.0000   0.0000   0.0000

          k = 0.1429 0.5774 0.1533 (  3797 PWs)   bands (ev):

     3.4887   3.5378   3.7897   3.8688   4.2368   4.5639   4.5999   4.7088
     4.8563   4.8766  10.0169  10.4349  13.3684  13.4560  18.9199  20.2874

     occupation numbers 
     1.0000   1.0000   1.0000   1.0000   1.0000   1.0000   1.0000   1.0000
     1.0000   1.0000   1.0000   1.0000   0.0000   0.0000   0.0000   0.0000

          k = 0.1429 0.5774 0.2299 (  3781 PWs)   bands (ev):

     3.5008   3.5404   3.7712   3.7759   4.3409   4.4760   4.7049   4.7704
     4.8390   4.8392  10.4432  10.6192  12.5892  12.6342  19.5807  20.4365

     occupation numbers 
     1.0000   1.0000   1.0000   1.0000   1.0000   1.0000   1.0000   1.0000
     1.0000   1.0000   1.0000   1.0000   0.0000   0.0000   0.0000   0.0000

          k = 0.2143 0.3712 0.0000 (  3782 PWs)   bands (ev):

     3.7584   3.7853   3.8314   3.9767   4.1522   4.1630   4.3791   4.3869
     4.7168   4.8940   6.2424  11.9160  13.0902  16.7978  17.0209  22.6563

     occupation numbers 
     1.0000   1.0000   1.0000   1.0000   1.0000   1.0000   1.0000   1.0000
     1.0000   1.0000   1.0000   0.0696   0.0000   0.0000   0.0000   0.0000

          k = 0.2143 0.3712 0.0766 (  3787 PWs)   bands (ev):

     3.7462   3.7729   3.8791   3.8883   4.1490   4.2223   4.3754   4.4610
     4.6877   4.9041   6.3309  10.6944  14.5419  16.9318  17.1501  21.4260

     occupation numbers 
     1.0000   1.0000   1.0000   1.0000   1.0000   1.0000   1.0000   1.0000
     1.0000   1.0000   1.0000   1.0000   0.0000   0.0000   0.0000   0.0000

          k = 0.2143 0.3712 0.1533 (  3788 PWs)   bands (ev):

     3.7109   3.7619   3.8319   3.9610   4.1161   4.2266   4.3834   4.6072
     4.6607   4.9186   6.6304   9.2748  16.6180  17.3347  17.5288  20.0510

     occupation numbers 
     1.0000   1.0000   1.0000   1.0000   1.0000   1.0000   1.0000   1.0000
     1.0000   1.0000   1.0000   1.0000   0.0000   0.0000   0.0000   0.0000

          k = 0.2143 0.3712 0.2299 (  3786 PWs)   bands (ev):

     3.6969   3.7110   3.8951   3.9617   4.1287   4.1849   4.4286   4.5121
     4.8239   4.9038   7.2099   8.0981  17.9790  18.1101  18.4108  18.8991

     occupation numbers 
     1.0000   1.0000   1.0000   1.0000   1.0000   1.0000   1.0000   1.0000
     1.0000   1.0000   1.0000   1.0000   0.0000   0.0000   0.0000   0.0000

          k = 0.2143 0.4536 0.0000 (  3778 PWs)   bands (ev):

     3.7251   3.7323   3.8161   4.1237   4.1911   4.2707   4.2921   4.5263
     4.6832   4.9147   7.6712  13.1287  14.4177  14.6268  16.2687  20.0577

     occupation numbers 
     1.0000   1.0000   1.0000   1.0000   1.0000   1.0000   1.0000   1.0000
     1.0000   1.0000   1.0000   0.0000   0.0000   0.0000   0.0000   0.0000

          k = 0.2143 0.4536 0.0766 (  3786 PWs)   bands (ev):

     3.6942   3.7409   3.8719   3.9901   4.1868   4.3196   4.3637   4.5529
     4.6525   4.9217   7.7811  12.1101  14.3907  15.9644  16.4052  18.9747

     occupation numbers 
     1.0000   1.0000   1.0000   1.0000   1.0000   1.0000   1.0000   1.0000
     1.0000   1.0000   1.0000   0.0000   0.0000   0.0000   0.0000   0.0000

          k = 0.2143 0.4536 0.1533 (  3790 PWs)   bands (ev):

     3.6642   3.7796   3.8373   3.9617   4.1465   4.3522   4.4148   4.5735
     4.6791   4.9279   8.1244  10.7574  14.7588  16.7768  17.0936  18.4386

     occupation numbers 
     1.0000   1.0000   1.0000   1.0000   1.0000   1.0000   1.0000   1.0000
     1.0000   1.0000   1.0000   1.0000   0.0000   0.0000   0.0000   0.0000

          k = 0.2143 0.4536 0.2299 (  3789 PWs)   bands (ev):

     3.6740   3.7276   3.8592   3.9317   4.2127   4.3143   4.4381   4.4909
     4.8192   4.9024   8.7292   9.6108  15.3849  16.2324  17.4459  18.2767

     occupation numbers 
     1.0000   1.0000   1.0000   1.0000   1.0000   1.0000   1.0000   1.0000
     1.0000   1.0000   1.0000   1.0000   0.0000   0.0000   0.0000   0.0000

          k = 0.2143 0.5361 0.0000 (  3784 PWs)   bands (ev):

     3.6846   3.7089   3.7984   4.1409   4.2084   4.2934   4.3317   4.6652
     4.6928   4.8524   9.4698  11.6101  15.2005  15.9306  16.2505  17.7518

     occupation numbers 
     1.0000   1.0000   1.0000   1.0000   1.0000   1.0000   1.0000   1.0000
     1.0000   1.0000   1.0000   1.0184   0.0000   0.0000   0.0000   0.0000

          k = 0.2143 0.5361 0.0766 (  3787 PWs)   bands (ev):

     3.6668   3.6992   3.8674   4.0353   4.1465   4.3709   4.4106   4.6331
     4.6988   4.8586   9.5846  11.6808  14.2018  15.9637  16.2112  18.1690

     occupation numbers 
     1.0000   1.0000   1.0000   1.0000   1.0000   1.0000   1.0000   1.0000
     1.0000   1.0000   1.0000   1.0756   0.0000   0.0000   0.0000   0.0000

          k = 0.2143 0.5361 0.1533 (  3796 PWs)   bands (ev):

     3.6393   3.7359   3.8883   3.9434   4.1091   4.4288   4.4992   4.5721
     4.7287   4.8660   9.9296  11.7409  13.1844  14.9435  16.4822  18.9822

     occupation numbers 
     1.0000   1.0000   1.0000   1.0000   1.0000   1.0000   1.0000   1.0000
     1.0000   1.0000   1.0000   1.0299   0.0000   0.0000   0.0000   0.0000

          k = 0.2143 0.5361 0.2299 (  3809 PWs)   bands (ev):

     3.6611   3.7265   3.8394   3.9018   4.2093   4.3487   4.5380   4.5618
     4.7943   4.8491  10.4990  11.2331  13.1862  13.9092  17.1290  18.0076

     occupation numbers 
     1.0000   1.0000   1.0000   1.0000   1.0000   1.0000   1.0000   1.0000
     1.0000   1.0000   1.0000   1.0000   0.0000   0.0000   0.0000   0.0000

          k = 0.2857 0.4949 0.0000 (  3774 PWs)   bands (ev):

     3.7419   3.8328   3.9014   4.1127   4.1511   4.2111   4.3173   4.5855
     4.6383   4.8437   9.3566  13.3951  13.7644  15.2519  16.2301  19.3735

     occupation numbers 
     1.0000   1.0000   1.0000   1.0000   1.0000   1.0000   1.0000   1.0000
     1.0000   1.0000   1.0000   0.0000   0.0000   0.0000   0.0000   0.0000

          k = 0.2857 0.4949 0.0766 (  3784 PWs)   bands (ev):

     3.7396   3.8432   3.9328   3.9978   4.1667   4.2467   4.3424   4.6060
     4.6158   4.8528   9.4746  13.2453  13.8985  14.4010  17.2164  18.2818

     occupation numbers 
     1.0000   1.0000   1.0000   1.0000   1.0000   1.0000   1.0000   1.0000
     1.0000   1.0000   1.0000   0.0000   0.0000   0.0000   0.0000   0.0000

          k = 0.2857 0.4949 0.1533 (  3797 PWs)   bands (ev):

     3.7414   3.8579   3.9043   4.0150   4.0872   4.2856   4.3765   4.5285
     4.7001   4.8654   9.8324  12.3436  14.2939  14.3298  16.8462  16.9040

     occupation numbers 
     1.0000   1.0000   1.0000   1.0000   1.0000   1.0000   1.0000   1.0000
     1.0000   1.0000   1.0000   0.0000   0.0000   0.0000   0.0000   0.0000

          k = 0.2857 0.4949 0.2299 (  3804 PWs)   bands (ev):

     3.7586   3.8001   3.9379   4.0052   4.1294   4.2369   4.4085   4.4532
     4.7944   4.8524  10.4379  11.2901  14.8554  14.9120  15.8073  15.8738

     occupation numbers 
     1.0000   1.0000   1.0000   1.0000   1.0000   1.0000   1.0000   1.0000
     1.0000   1.0000   1.0000   1.0000   0.0000   0.0000   0.0000   0.0000

          k = 0.2857 0.5774 0.0000 (  3778 PWs)   bands (ev):

     3.7507   3.8717   3.9344   4.1191   4.1377   4.1494   4.3467   4.6215
     4.6742   4.7493  11.2774  11.4096  13.4787  16.6147  17.5810  17.7874

     occupation numbers 
     1.0000   1.0000   1.0000   1.0000   1.0000   1.0000   1.0000   1.0000
     1.0000   1.0000   1.0000   1.0000   0.0000   0.0000   0.0000   0.0000

          k = 0.2857 0.5774 0.0766 (  3788 PWs)   bands (ev):

     3.7602   3.8786   3.9379   4.0406   4.1257   4.2065   4.3629   4.5888
     4.6930   4.7650  11.4067  11.5098  13.5893  15.8739  16.0808  17.9686

     occupation numbers 
     1.0000   1.0000   1.0000   1.0000   1.0000   1.0000   1.0000   1.0000
     1.0000   1.0000   1.0000   1.0003   0.0000   0.0000   0.0000   0.0000

          k = 0.2857 0.5774 0.1533 (  3803 PWs)   bands (ev):

     3.7793   3.8875   3.9588   3.9607   4.1113   4.2375   4.3883   4.5098
     4.7408   4.7958  11.7756  11.8063  13.8326  14.6965  14.8881  16.7559

     occupation numbers 
     1.0000   1.0000   1.0000   1.0000   1.0000   1.0000   1.0000   1.0000
     1.0000   1.0000   0.8740   0.6632   0.0000   0.0000   0.0000   0.0000

          k = 0.2857 0.5774 0.2299 (  3805 PWs)   bands (ev):

     3.8047   3.8484   3.9550   3.9727   4.1421   4.2112   4.4068   4.4378
     4.7897   4.8104  12.2346  12.2636  13.5554  13.7231  14.8721  15.6766

     occupation numbers 
     1.0000   1.0000   1.0000   1.0000   1.0000   1.0000   1.0000   1.0000
     1.0000   1.0000   0.0000   0.0000   0.0000   0.0000   0.0000   0.0000

     the Fermi energy is    11.8420 ev

!    total energy              =    -487.44639052 Ry
     total all-electron energy =     -7184.240436 Ry
     estimated scf accuracy    <       0.00000012 Ry
     smearing contrib. (-TS)   =       0.00001448 Ry
     internal energy E=F+TS    =    -487.44640500 Ry

     The total energy is F=E-TS. E is the sum of the following terms:
     one-electron contribution =    -111.38677664 Ry
     hartree contribution      =      89.54451506 Ry
     xc contribution           =     -94.40209774 Ry
     ewald contribution        =    -180.32404734 Ry
     one-center paw contrib.   =    -190.87799834 Ry
      -> PAW hartree energy AE =     122.84301944 Ry
      -> PAW hartree energy PS =    -122.22201287 Ry
      -> PAW xc energy AE      =    -143.13309719 Ry
      -> PAW xc energy PS      =      47.07309145 Ry
      -> total E_H with PAW    =      90.16552163 Ry
      -> total E_XC with PAW   =    -190.46210348 Ry

     convergence has been achieved in   1 iterations

     Writing all to output data dir ./out/Zn.save/

     init_run     :      0.65s CPU      0.75s WALL (       1 calls)
     electrons    :      7.74s CPU      7.87s WALL (       1 calls)

     Called by init_run:
     wfcinit      :      0.23s CPU      0.27s WALL (       1 calls)
     potinit      :      0.11s CPU      0.15s WALL (       1 calls)
     hinit0       :      0.27s CPU      0.27s WALL (       1 calls)

     Called by electrons:
     c_bands      :      6.61s CPU      6.70s WALL (       2 calls)
     sum_band     :      0.97s CPU      1.01s WALL (       2 calls)
     v_of_rho     :      0.02s CPU      0.02s WALL (       2 calls)
     v_h          :      0.00s CPU      0.00s WALL (       2 calls)
     v_xc         :      0.02s CPU      0.02s WALL (       2 calls)
     newd         :      0.05s CPU      0.05s WALL (       2 calls)
     PAW_pot      :      0.22s CPU      0.26s WALL (       2 calls)
     mix_rho      :      0.00s CPU      0.00s WALL (       2 calls)

     Called by c_bands:
     init_us_2    :      0.09s CPU      0.09s WALL (     384 calls)
     init_us_2:cp :      0.09s CPU      0.09s WALL (     384 calls)
     cegterg      :      6.37s CPU      6.45s WALL (     192 calls)

     Called by sum_band:
     sum_band:wei :      0.00s CPU      0.00s WALL (       2 calls)
     sum_band:loo :      0.92s CPU      0.95s WALL (       2 calls)
     sum_band:buf :      0.01s CPU      0.01s WALL (     192 calls)
     sum_band:ini :      0.04s CPU      0.04s WALL (     192 calls)
     sum_band:cal :      0.15s CPU      0.15s WALL (     192 calls)
     sum_band:bec :      0.00s CPU      0.01s WALL (     192 calls)
     addusdens    :      0.04s CPU      0.05s WALL (       2 calls)
                                        0.00s GPU  (       2 calls)
     addusd:skk   :      0.00s CPU      0.00s WALL (       2 calls)
                                        0.00s GPU  (       2 calls)

     Called by *egterg:
     cdiaghg      :      0.27s CPU      0.27s WALL (     471 calls)
     cegterg:over :      0.44s CPU      0.44s WALL (     471 calls)
     cegterg:upda :      0.20s CPU      0.20s WALL (     471 calls)
     cegterg:last :      0.48s CPU      0.48s WALL (     376 calls)
     h_psi        :      4.31s CPU      4.37s WALL (     663 calls)
     s_psi        :      0.37s CPU      0.37s WALL (     663 calls)
     g_psi        :      0.04s CPU      0.04s WALL (     471 calls)

     Called by h_psi:
     h_psi:calbec :      0.43s CPU      0.44s WALL (     663 calls)
     vloc_psi     :      3.48s CPU      3.52s WALL (     663 calls)
     add_vuspsi   :      0.37s CPU      0.38s WALL (     663 calls)

     General routines
     calbec       :      0.58s CPU      0.59s WALL (     855 calls)
     fft          :      0.17s CPU      0.17s WALL (      23 calls)
     ffts         :      0.00s CPU      0.00s WALL (       2 calls)
     fftw         :      3.45s CPU      3.51s WALL (   18442 calls)

     Parallel routines

     PAW routines
     PAW_pot      :      0.22s CPU      0.26s WALL (       2 calls)
     PAW_symme    :      0.00s CPU      0.00s WALL (       3 calls)

     PWSCF        :      8.75s CPU      9.19s WALL


   This run was terminated on:   0: 6:56  16Feb2024            

=------------------------------------------------------------------------------=
   JOB DONE.
=------------------------------------------------------------------------------=
