
     Program PWSCF v.7.2 starts on 18Jul2024 at 17:19: 1 

     This program is part of the open-source Quantum ESPRESSO suite
     for quantum simulation of materials; please cite
         "P. Giannozzi et al., J. Phys.:Condens. Matter 21 395502 (2009);
         "P. Giannozzi et al., J. Phys.:Condens. Matter 29 465901 (2017);
         "P. Giannozzi et al., J. Chem. Phys. 152 154105 (2020);
          URL http://www.quantum-espresso.org", 
     in publications or presentations arising from this work. More details at
     http://www.quantum-espresso.org/quote

     Parallel version (MPI), running on  1456 processors

     MPI processes distributed on    13 nodes
     231908 MiB available memory on the printing compute node when the environment starts
 
     Reading input from 2.Cu_vac_in_ZnS.nscf.qn1.unrlxd.U3.in

     Current dimensions of program PWSCF are:
     Max number of different atomic species (ntypx) = 10
     Max number of k-points (npk) =  40000
     Max angular momentum in pseudopotentials (lmaxx) =  4

     Atomic positions and unit cell read from directory:
     ./out/Cu_vac_qn1_U3_unrlxd.save/
 
     file S.pbe-n-kjpaw_psl.1.0.0.UPF: wavefunction(s)  3S 3P renormalized
     file Zn.pbe-dnl-kjpaw_psl.1.0.0.UPF: wavefunction(s)  4S 3D renormalized
     file Cu.pbe-spn-kjpaw_psl.1.0.0.UPF: wavefunction(s)  4S 3P 3D renormalized
     [opt_tetra]  Optimized tetrahedron method is used.
 
     K-points division:     npool     =      13
     R & G space division:  proc/nbgrp/npool/nimage =     112
     Subspace diagonalization in iterative solution of the eigenvalue problem:
     one sub-group per band group will be used
     scalapack distributed-memory algorithm (size of sub-group:  3*  3 procs)

 
     Parallelization info
     --------------------
     sticks:   dense  smooth     PW     G-vecs:    dense   smooth      PW
     Min         180     180     46                19282    19282    2562
     Max         181     181     47                19291    19291    2573
     Sum       20217   20217   5249              2160009  2160009  287777
 
     Using Slab Decomposition
 


     bravais-lattice index     =            1
     lattice parameter (alat)  =      20.5686  a.u.
     unit-cell volume          =    8701.8437 (a.u.)^3
     number of atoms/cell      =           63
     number of atomic types    =            3
     number of electrons       =       578.00
     number of Kohn-Sham states=          347
     kinetic-energy cutoff     =     150.0000  Ry
     charge density cutoff     =     600.0000  Ry
     Exchange-correlation= SLA  PW   PBX  PBC
                           (   1   4   3   4   0   0   0)
     Hubbard projectors: ortho-atomic
     Hubbard parameters of DFT+U (Dudarev formulation) in eV:
     U(Zn-3d) =  7.0000
     U(Cu-3d) =  3.0000

     Internal variables: lda_plus_u = T, lda_plus_u_kind = 0

     celldm(1)=  20.568554  celldm(2)=   0.000000  celldm(3)=   0.000000
     celldm(4)=   0.000000  celldm(5)=   0.000000  celldm(6)=   0.000000

     crystal axes: (cart. coord. in units of alat)
               a(1) = (   1.000000   0.000000   0.000000 )  
               a(2) = (   0.000000   1.000000   0.000000 )  
               a(3) = (   0.000000   0.000000   1.000000 )  

     reciprocal axes: (cart. coord. in units 2 pi/alat)
               b(1) = (  1.000000  0.000000  0.000000 )  
               b(2) = (  0.000000  1.000000  0.000000 )  
               b(3) = (  0.000000  0.000000  1.000000 )  


     PseudoPot. # 1 for S  read from file:
     /arf/home/amuhaymin/pseudo/S.pbe-n-kjpaw_psl.1.0.0.UPF
     MD5 check sum: fb45dfebcf3e72a4e1bd4a866ec2e262
     Pseudo is Projector augmented-wave + core cor, Zval =  6.0
     Generated using &quot;atomic&quot; code by A. Dal Corso  v.6.3
     Shape of augmentation charge: PSQ
     Using radial grid of 1151 points,  6 beta functions with: 
                l(1) =   0
                l(2) =   0
                l(3) =   1
                l(4) =   1
                l(5) =   2
                l(6) =   2
     Q(r) pseudized with 0 coefficients 


     PseudoPot. # 2 for Zn read from file:
     /arf/home/amuhaymin/pseudo/Zn.pbe-dnl-kjpaw_psl.1.0.0.UPF
     MD5 check sum: c608214d9520ac179f507641260889e3
     Pseudo is Projector augmented-wave + core cor, Zval = 12.0
     Generated using &quot;atomic&quot; code by A. Dal Corso  v.6.2.2
     Shape of augmentation charge: PSQ
     Using radial grid of 1201 points,  6 beta functions with: 
                l(1) =   0
                l(2) =   0
                l(3) =   1
                l(4) =   1
                l(5) =   2
                l(6) =   2
     Q(r) pseudized with 0 coefficients 


     PseudoPot. # 3 for Cu read from file:
     /arf/home/amuhaymin/pseudo/Cu.pbe-spn-kjpaw_psl.1.0.0.UPF
     MD5 check sum: e7cbaad2f97193e5fe23251a619a52b0
     Pseudo is Projector augmented-wave + core cor, Zval = 19.0
     Generated using &quot;atomic&quot; code by A. Dal Corso  v.6.3
     Shape of augmentation charge: PSQ
     Using radial grid of 1199 points,  6 beta functions with: 
                l(1) =   0
                l(2) =   0
                l(3) =   1
                l(4) =   1
                l(5) =   2
                l(6) =   2
     Q(r) pseudized with 0 coefficients 


     atomic species   valence    mass     pseudopotential
        S              6.00    32.06500     S ( 1.00)
        Zn            12.00    65.38000     Zn( 1.00)
        Cu            19.00    63.54600     Cu( 1.00)

     Starting magnetic structure 
     atomic species   magnetization
        S            0.000
        Zn           0.000
        Cu           0.000

      6 Sym. Ops. (no inversion) found


                                    s                        frac. trans.

      isym =  1     identity                                     

 cryst.   s( 1) = (     1          0          0      )
                  (     0          1          0      )
                  (     0          0          1      )

 cart.    s( 1) = (  1.0000000  0.0000000  0.0000000 )
                  (  0.0000000  1.0000000  0.0000000 )
                  (  0.0000000  0.0000000  1.0000000 )


      isym =  2     120 deg rotation - cart. axis [-1,-1,-1]     

 cryst.   s( 2) = (     0          0          1      )
                  (     1          0          0      )
                  (     0          1          0      )

 cart.    s( 2) = (  0.0000000  1.0000000  0.0000000 )
                  (  0.0000000  0.0000000  1.0000000 )
                  (  1.0000000  0.0000000  0.0000000 )


      isym =  3     120 deg rotation - cart. axis [1,1,1]        

 cryst.   s( 3) = (     0          1          0      )
                  (     0          0          1      )
                  (     1          0          0      )

 cart.    s( 3) = (  0.0000000  0.0000000  1.0000000 )
                  (  1.0000000  0.0000000  0.0000000 )
                  (  0.0000000  1.0000000  0.0000000 )


      isym =  4     inv. 180 deg rotation - cart. axis [1,-1,0]  

 cryst.   s( 4) = (     0          1          0      )
                  (     1          0          0      )
                  (     0          0          1      )

 cart.    s( 4) = (  0.0000000  1.0000000  0.0000000 )
                  (  1.0000000  0.0000000  0.0000000 )
                  (  0.0000000  0.0000000  1.0000000 )


      isym =  5     inv. 180 deg rotation - cart. axis [-1,0,1]  

 cryst.   s( 5) = (     0          0          1      )
                  (     0          1          0      )
                  (     1          0          0      )

 cart.    s( 5) = (  0.0000000  0.0000000  1.0000000 )
                  (  0.0000000  1.0000000  0.0000000 )
                  (  1.0000000  0.0000000  0.0000000 )


      isym =  6     inv. 180 deg rotation - cart. axis [0,1,-1]  

 cryst.   s( 6) = (     1          0          0      )
                  (     0          0          1      )
                  (     0          1          0      )

 cart.    s( 6) = (  1.0000000  0.0000000  0.0000000 )
                  (  0.0000000  0.0000000  1.0000000 )
                  (  0.0000000  1.0000000  0.0000000 )


     point group C_3v (3m)  
     there are  3 classes
     the character table:

       E     2C3   3s_v 
A_1    1.00  1.00  1.00
A_2    1.00  1.00 -1.00
E      2.00 -1.00  0.00

     the symmetry operations in each class and the name of the first element:

     E        1
          identity                                               
     2C3      2    3
          120 deg rotation - cart. axis [-1,-1,-1]               
     3s_v     4    5    6
          inv. 180 deg rotation - cart. axis [1,-1,0]            

   Cartesian axes

     site n.     atom                  positions (alat units)
         1           Zn  tau(   1) = (   0.0000000   0.0000000   0.0000000  )
         2           Zn  tau(   2) = (   0.0000000   0.2500000   0.2500000  )
         3           Zn  tau(   3) = (   0.2500000   0.0000000   0.2500000  )
         4           Zn  tau(   4) = (   0.2500000   0.2500000   0.0000000  )
         5           S   tau(   5) = (   0.1250000   0.3750000   0.3750000  )
         6           S   tau(   6) = (   0.1250000   0.1250000   0.1250000  )
         7           S   tau(   7) = (   0.3750000   0.3750000   0.1250000  )
         8           S   tau(   8) = (   0.3750000   0.1250000   0.3750000  )
         9           Zn  tau(   9) = (   0.0000000   0.0000000   0.5000000  )
        10           Zn  tau(  10) = (   0.0000000   0.2500000   0.7500000  )
        11           Zn  tau(  11) = (   0.2500000   0.0000000   0.7500000  )
        12           Zn  tau(  12) = (   0.2500000   0.2500000   0.5000000  )
        13           S   tau(  13) = (   0.1250000   0.3750000   0.8750000  )
        14           S   tau(  14) = (   0.1250000   0.1250000   0.6250000  )
        15           S   tau(  15) = (   0.3750000   0.3750000   0.6250000  )
        16           S   tau(  16) = (   0.3750000   0.1250000   0.8750000  )
        17           Zn  tau(  17) = (   0.0000000   0.5000000   0.0000000  )
        18           Zn  tau(  18) = (   0.0000000   0.7500000   0.2500000  )
        19           Zn  tau(  19) = (   0.2500000   0.5000000   0.2500000  )
        20           Zn  tau(  20) = (   0.2500000   0.7500000   0.0000000  )
        21           S   tau(  21) = (   0.1250000   0.8750000   0.3750000  )
        22           S   tau(  22) = (   0.1250000   0.6250000   0.1250000  )
        23           S   tau(  23) = (   0.3750000   0.8750000   0.1250000  )
        24           S   tau(  24) = (   0.3750000   0.6250000   0.3750000  )
        25           Zn  tau(  25) = (   0.0000000   0.5000000   0.5000000  )
        26           Zn  tau(  26) = (   0.0000000   0.7500000   0.7500000  )
        27           Zn  tau(  27) = (   0.2500000   0.5000000   0.7500000  )
        28           Zn  tau(  28) = (   0.2500000   0.7500000   0.5000000  )
        29           S   tau(  29) = (   0.1250000   0.8750000   0.8750000  )
        30           S   tau(  30) = (   0.1250000   0.6250000   0.6250000  )
        31           S   tau(  31) = (   0.3750000   0.8750000   0.6250000  )
        32           S   tau(  32) = (   0.3750000   0.6250000   0.8750000  )
        33           Zn  tau(  33) = (   0.5000000   0.0000000   0.0000000  )
        34           Zn  tau(  34) = (   0.5000000   0.2500000   0.2500000  )
        35           Zn  tau(  35) = (   0.7500000   0.0000000   0.2500000  )
        36           Zn  tau(  36) = (   0.7500000   0.2500000   0.0000000  )
        37           S   tau(  37) = (   0.6250000   0.3750000   0.3750000  )
        38           S   tau(  38) = (   0.6250000   0.1250000   0.1250000  )
        39           S   tau(  39) = (   0.8750000   0.3750000   0.1250000  )
        40           S   tau(  40) = (   0.8750000   0.1250000   0.3750000  )
        41           Zn  tau(  41) = (   0.5000000   0.0000000   0.5000000  )
        42           Zn  tau(  42) = (   0.5000000   0.2500000   0.7500000  )
        43           Zn  tau(  43) = (   0.7500000   0.0000000   0.7500000  )
        44           Zn  tau(  44) = (   0.7500000   0.2500000   0.5000000  )
        45           S   tau(  45) = (   0.6250000   0.3750000   0.8750000  )
        46           S   tau(  46) = (   0.6250000   0.1250000   0.6250000  )
        47           S   tau(  47) = (   0.8750000   0.3750000   0.6250000  )
        48           S   tau(  48) = (   0.8750000   0.1250000   0.8750000  )
        49           Zn  tau(  49) = (   0.5000000   0.5000000   0.0000000  )
        50           Zn  tau(  50) = (   0.5000000   0.7500000   0.2500000  )
        51           Zn  tau(  51) = (   0.7500000   0.5000000   0.2500000  )
        52           Zn  tau(  52) = (   0.7500000   0.7500000   0.0000000  )
        53           S   tau(  53) = (   0.6250000   0.8750000   0.3750000  )
        54           S   tau(  54) = (   0.6250000   0.6250000   0.1250000  )
        55           S   tau(  55) = (   0.8750000   0.8750000   0.1250000  )
        56           S   tau(  56) = (   0.8750000   0.6250000   0.3750000  )
        57           Cu  tau(  57) = (   0.5000000   0.5000000   0.5000000  )
        58           Zn  tau(  58) = (   0.5000000   0.7500000   0.7500000  )
        59           Zn  tau(  59) = (   0.7500000   0.5000000   0.7500000  )
        60           Zn  tau(  60) = (   0.7500000   0.7500000   0.5000000  )
        61           S   tau(  61) = (   0.6250000   0.8750000   0.8750000  )
        62           S   tau(  62) = (   0.8750000   0.8750000   0.6250000  )
        63           S   tau(  63) = (   0.8750000   0.6250000   0.8750000  )

   Crystallographic axes

     site n.     atom                  positions (cryst. coord.)
         1           Zn  tau(   1) = (  0.0000000  0.0000000  0.0000000  )
         2           Zn  tau(   2) = (  0.0000000  0.2500000  0.2500000  )
         3           Zn  tau(   3) = (  0.2500000  0.0000000  0.2500000  )
         4           Zn  tau(   4) = (  0.2500000  0.2500000  0.0000000  )
         5           S   tau(   5) = (  0.1250000  0.3750000  0.3750000  )
         6           S   tau(   6) = (  0.1250000  0.1250000  0.1250000  )
         7           S   tau(   7) = (  0.3750000  0.3750000  0.1250000  )
         8           S   tau(   8) = (  0.3750000  0.1250000  0.3750000  )
         9           Zn  tau(   9) = (  0.0000000  0.0000000  0.5000000  )
        10           Zn  tau(  10) = (  0.0000000  0.2500000  0.7500000  )
        11           Zn  tau(  11) = (  0.2500000  0.0000000  0.7500000  )
        12           Zn  tau(  12) = (  0.2500000  0.2500000  0.5000000  )
        13           S   tau(  13) = (  0.1250000  0.3750000  0.8750000  )
        14           S   tau(  14) = (  0.1250000  0.1250000  0.6250000  )
        15           S   tau(  15) = (  0.3750000  0.3750000  0.6250000  )
        16           S   tau(  16) = (  0.3750000  0.1250000  0.8750000  )
        17           Zn  tau(  17) = (  0.0000000  0.5000000  0.0000000  )
        18           Zn  tau(  18) = (  0.0000000  0.7500000  0.2500000  )
        19           Zn  tau(  19) = (  0.2500000  0.5000000  0.2500000  )
        20           Zn  tau(  20) = (  0.2500000  0.7500000  0.0000000  )
        21           S   tau(  21) = (  0.1250000  0.8750000  0.3750000  )
        22           S   tau(  22) = (  0.1250000  0.6250000  0.1250000  )
        23           S   tau(  23) = (  0.3750000  0.8750000  0.1250000  )
        24           S   tau(  24) = (  0.3750000  0.6250000  0.3750000  )
        25           Zn  tau(  25) = (  0.0000000  0.5000000  0.5000000  )
        26           Zn  tau(  26) = (  0.0000000  0.7500000  0.7500000  )
        27           Zn  tau(  27) = (  0.2500000  0.5000000  0.7500000  )
        28           Zn  tau(  28) = (  0.2500000  0.7500000  0.5000000  )
        29           S   tau(  29) = (  0.1250000  0.8750000  0.8750000  )
        30           S   tau(  30) = (  0.1250000  0.6250000  0.6250000  )
        31           S   tau(  31) = (  0.3750000  0.8750000  0.6250000  )
        32           S   tau(  32) = (  0.3750000  0.6250000  0.8750000  )
        33           Zn  tau(  33) = (  0.5000000  0.0000000  0.0000000  )
        34           Zn  tau(  34) = (  0.5000000  0.2500000  0.2500000  )
        35           Zn  tau(  35) = (  0.7500000  0.0000000  0.2500000  )
        36           Zn  tau(  36) = (  0.7500000  0.2500000  0.0000000  )
        37           S   tau(  37) = (  0.6250000  0.3750000  0.3750000  )
        38           S   tau(  38) = (  0.6250000  0.1250000  0.1250000  )
        39           S   tau(  39) = (  0.8750000  0.3750000  0.1250000  )
        40           S   tau(  40) = (  0.8750000  0.1250000  0.3750000  )
        41           Zn  tau(  41) = (  0.5000000  0.0000000  0.5000000  )
        42           Zn  tau(  42) = (  0.5000000  0.2500000  0.7500000  )
        43           Zn  tau(  43) = (  0.7500000  0.0000000  0.7500000  )
        44           Zn  tau(  44) = (  0.7500000  0.2500000  0.5000000  )
        45           S   tau(  45) = (  0.6250000  0.3750000  0.8750000  )
        46           S   tau(  46) = (  0.6250000  0.1250000  0.6250000  )
        47           S   tau(  47) = (  0.8750000  0.3750000  0.6250000  )
        48           S   tau(  48) = (  0.8750000  0.1250000  0.8750000  )
        49           Zn  tau(  49) = (  0.5000000  0.5000000  0.0000000  )
        50           Zn  tau(  50) = (  0.5000000  0.7500000  0.2500000  )
        51           Zn  tau(  51) = (  0.7500000  0.5000000  0.2500000  )
        52           Zn  tau(  52) = (  0.7500000  0.7500000  0.0000000  )
        53           S   tau(  53) = (  0.6250000  0.8750000  0.3750000  )
        54           S   tau(  54) = (  0.6250000  0.6250000  0.1250000  )
        55           S   tau(  55) = (  0.8750000  0.8750000  0.1250000  )
        56           S   tau(  56) = (  0.8750000  0.6250000  0.3750000  )
        57           Cu  tau(  57) = (  0.5000000  0.5000000  0.5000000  )
        58           Zn  tau(  58) = (  0.5000000  0.7500000  0.7500000  )
        59           Zn  tau(  59) = (  0.7500000  0.5000000  0.7500000  )
        60           Zn  tau(  60) = (  0.7500000  0.7500000  0.5000000  )
        61           S   tau(  61) = (  0.6250000  0.8750000  0.8750000  )
        62           S   tau(  62) = (  0.8750000  0.8750000  0.6250000  )
        63           S   tau(  63) = (  0.8750000  0.6250000  0.8750000  )

     number of k points=    13 (tetrahedron method)
                       cart. coord. in units 2pi/alat
        k(    1) = (   0.0000000   0.0000000   0.0000000), wk =   0.0156250
        k(    2) = (   0.0000000   0.0000000   0.2500000), wk =   0.0937500
        k(    3) = (   0.0000000   0.0000000  -0.5000000), wk =   0.0468750
        k(    4) = (   0.0000000   0.2500000   0.2500000), wk =   0.0937500
        k(    5) = (   0.0000000   0.2500000  -0.5000000), wk =   0.1875000
        k(    6) = (   0.0000000  -0.5000000  -0.5000000), wk =   0.0468750
        k(    7) = (   0.2500000   0.2500000   0.2500000), wk =   0.0312500
        k(    8) = (   0.2500000   0.2500000  -0.5000000), wk =   0.0937500
        k(    9) = (   0.2500000  -0.5000000  -0.5000000), wk =   0.0937500
        k(   10) = (  -0.5000000  -0.5000000  -0.5000000), wk =   0.0156250
        k(   11) = (  -0.2500000   0.0000000   0.2500000), wk =   0.0937500
        k(   12) = (   0.2500000  -0.2500000   0.2500000), wk =   0.0937500
        k(   13) = (   0.2500000  -0.2500000  -0.5000000), wk =   0.0937500

                       cryst. coord.
        k(    1) = (   0.0000000   0.0000000   0.0000000), wk =   0.0156250
        k(    2) = (   0.0000000   0.0000000   0.2500000), wk =   0.0937500
        k(    3) = (   0.0000000   0.0000000  -0.5000000), wk =   0.0468750
        k(    4) = (   0.0000000   0.2500000   0.2500000), wk =   0.0937500
        k(    5) = (   0.0000000   0.2500000  -0.5000000), wk =   0.1875000
        k(    6) = (   0.0000000  -0.5000000  -0.5000000), wk =   0.0468750
        k(    7) = (   0.2500000   0.2500000   0.2500000), wk =   0.0312500
        k(    8) = (   0.2500000   0.2500000  -0.5000000), wk =   0.0937500
        k(    9) = (   0.2500000  -0.5000000  -0.5000000), wk =   0.0937500
        k(   10) = (  -0.5000000  -0.5000000  -0.5000000), wk =   0.0156250
        k(   11) = (  -0.2500000   0.0000000   0.2500000), wk =   0.0937500
        k(   12) = (   0.2500000  -0.2500000   0.2500000), wk =   0.0937500
        k(   13) = (   0.2500000  -0.2500000  -0.5000000), wk =   0.0937500

     Dense  grid:  2160009 G-vectors     FFT dimensions: ( 162, 162, 162)

     Dynamical RAM for                 wfc:      12.76 MB

     Dynamical RAM for     wfc (w. buffer):      38.28 MB

     Dynamical RAM for             U proj.:       5.88 MB

     Dynamical RAM for  U proj. (w. buff.):      17.65 MB

     Dynamical RAM for           str. fact:       0.88 MB

     Dynamical RAM for           local pot:       0.00 MB

     Dynamical RAM for          nlocal pot:      41.70 MB

     Dynamical RAM for                qrad:       5.90 MB

     Dynamical RAM for          rho,v,vnew:       4.17 MB

     Dynamical RAM for           G-vectors:       1.25 MB

     Dynamical RAM for          h,s,v(r/c):       2.44 MB

     Dynamical RAM for          <psi|beta>:       6.00 MB

     Dynamical RAM for                 psi:      25.52 MB

     Dynamical RAM for                hpsi:      25.52 MB

     Dynamical RAM for                spsi:      25.52 MB

     Dynamical RAM for      wfcinit/wfcrot:      34.28 MB

     Dynamical RAM for           addusdens:       5.48 MB

     Estimated static dynamical RAM per process >     113.41 MB

     Estimated max dynamical RAM per process >     198.42 MB

     Estimated total dynamical RAM >     282.13 GB
     Generating pointlists ...
     new r_m :   0.0893 (alat units)  1.8370 (a.u.) for type    1
     new r_m :   0.0893 (alat units)  1.8370 (a.u.) for type    2
     new r_m :   0.0893 (alat units)  1.8370 (a.u.) for type    3

     The potential is recalculated from file :
     ./out/Cu_vac_qn1_U3_unrlxd.save/charge-density


     HUBBARD ENERGY =    0.2673  (Ry)

     STARTING HUBBARD OCCUPATIONS:

     =================== HUBBARD OCCUPATIONS ===================
     ------------------------ ATOM    1 ------------------------
     Tr[ns(  1)] (up, down, total) =   4.98377  4.98377  9.96755
     Atomic magnetic moment for atom   1 =   0.00000
     SPIN  1
     eigenvalues:
       0.996  0.996  0.996  0.998  0.998
     eigenvectors (columns):
      -0.000 -0.000 -0.000  0.369  0.929
      -0.045  0.815 -0.577 -0.000  0.000
       0.728 -0.369 -0.577  0.000  0.000
       0.000 -0.000  0.000 -0.929  0.369
       0.684  0.446  0.577  0.000  0.000
     occupation matrix ns (before diag.):
       0.998  0.000  0.000  0.000  0.000
       0.000  0.996  0.000  0.000 -0.000
       0.000  0.000  0.996 -0.000 -0.000
       0.000  0.000 -0.000  0.998 -0.000
       0.000 -0.000 -0.000 -0.000  0.996
     SPIN  2
     eigenvalues:
       0.996  0.996  0.996  0.998  0.998
     eigenvectors (columns):
       0.000  0.000 -0.000  0.053  0.999
      -0.054 -0.815 -0.577 -0.000  0.000
      -0.678  0.454 -0.577  0.000  0.000
      -0.000  0.000  0.000 -0.999  0.053
      -0.733 -0.360  0.577  0.000  0.000
     occupation matrix ns (before diag.):
       0.998  0.000  0.000  0.000  0.000
       0.000  0.996  0.000  0.000 -0.000
       0.000  0.000  0.996 -0.000 -0.000
       0.000  0.000 -0.000  0.998 -0.000
       0.000 -0.000 -0.000 -0.000  0.996
     ------------------------ ATOM    2 ------------------------
     Tr[ns(  2)] (up, down, total) =   4.98377  4.98377  9.96754
     Atomic magnetic moment for atom   2 =  -0.00000
     SPIN  1
     eigenvalues:
       0.996  0.996  0.996  0.998  0.998
     eigenvectors (columns):
       0.002  0.009 -0.001 -0.500 -0.866
      -0.552  0.707 -0.441 -0.001  0.007
      -0.624  0.000  0.781 -0.004  0.000
      -0.003  0.005  0.002  0.866 -0.500
       0.552  0.707  0.441  0.001  0.007
     occupation matrix ns (before diag.):
       0.998 -0.000  0.000  0.000 -0.000
      -0.000  0.996 -0.000 -0.000 -0.000
       0.000 -0.000  0.996 -0.000  0.000
       0.000 -0.000 -0.000  0.998 -0.000
      -0.000 -0.000  0.000 -0.000  0.996
     SPIN  2
     eigenvalues:
       0.996  0.996  0.996  0.998  0.998
     eigenvectors (columns):
       0.002  0.009 -0.001 -0.500 -0.866
      -0.552  0.707 -0.441 -0.001  0.007
      -0.624  0.000  0.781 -0.004 -0.000
      -0.003  0.005  0.002  0.866 -0.500
       0.552  0.707  0.441  0.001  0.007
     occupation matrix ns (before diag.):
       0.998 -0.000  0.000  0.000 -0.000
      -0.000  0.996 -0.000 -0.000 -0.000
       0.000 -0.000  0.996 -0.000  0.000
       0.000 -0.000 -0.000  0.998 -0.000
      -0.000 -0.000  0.000 -0.000  0.996
     ------------------------ ATOM    3 ------------------------
     Tr[ns(  3)] (up, down, total) =   4.98377  4.98377  9.96754
     Atomic magnetic moment for atom   3 =  -0.00000
     SPIN  1
     eigenvalues:
       0.996  0.996  0.996  0.998  0.998
     eigenvectors (columns):
       0.002  0.009 -0.001 -0.500 -0.866
      -0.624 -0.000  0.781 -0.004  0.000
      -0.552  0.707 -0.441 -0.001  0.007
       0.003 -0.005 -0.002 -0.866  0.500
       0.552  0.707  0.441  0.001  0.007
     occupation matrix ns (before diag.):
       0.998  0.000 -0.000 -0.000 -0.000
       0.000  0.996 -0.000  0.000  0.000
      -0.000 -0.000  0.996  0.000 -0.000
      -0.000  0.000  0.000  0.998  0.000
      -0.000  0.000 -0.000  0.000  0.996
     SPIN  2
     eigenvalues:
       0.996  0.996  0.996  0.998  0.998
     eigenvectors (columns):
       0.002  0.009 -0.001 -0.500 -0.866
      -0.624  0.000  0.781 -0.004  0.000
      -0.552  0.707 -0.441 -0.001  0.007
       0.003 -0.005 -0.002 -0.866  0.500
       0.552  0.707  0.441  0.001  0.007
     occupation matrix ns (before diag.):
       0.998  0.000 -0.000 -0.000 -0.000
       0.000  0.996 -0.000  0.000  0.000
      -0.000 -0.000  0.996  0.000 -0.000
      -0.000  0.000  0.000  0.998  0.000
      -0.000  0.000 -0.000  0.000  0.996
     ------------------------ ATOM    4 ------------------------
     Tr[ns(  4)] (up, down, total) =   4.98377  4.98377  9.96754
     Atomic magnetic moment for atom   4 =  -0.00000
     SPIN  1
     eigenvalues:
       0.996  0.996  0.996  0.998  0.998
     eigenvectors (columns):
      -0.004  0.000  0.002  1.000 -0.000
      -0.552  0.707 -0.441 -0.001  0.007
      -0.552 -0.707 -0.441 -0.001 -0.007
       0.000  0.010 -0.000 -0.000 -1.000
       0.624 -0.000 -0.781  0.004  0.000
     occupation matrix ns (before diag.):
       0.998 -0.000 -0.000  0.000  0.000
      -0.000  0.996  0.000 -0.000  0.000
      -0.000  0.000  0.996  0.000  0.000
       0.000 -0.000  0.000  0.998 -0.000
       0.000  0.000  0.000 -0.000  0.996
     SPIN  2
     eigenvalues:
       0.996  0.996  0.996  0.998  0.998
     eigenvectors (columns):
      -0.004  0.000  0.002  1.000 -0.000
      -0.552  0.707 -0.441 -0.001  0.007
      -0.552 -0.707 -0.441 -0.001 -0.007
       0.000  0.010 -0.000 -0.000 -1.000
       0.624 -0.000 -0.781  0.004  0.000
     occupation matrix ns (before diag.):
       0.998 -0.000 -0.000  0.000  0.000
      -0.000  0.996  0.000 -0.000  0.000
      -0.000  0.000  0.996  0.000  0.000
       0.000 -0.000  0.000  0.998 -0.000
       0.000  0.000  0.000 -0.000  0.996
     ------------------------ ATOM    9 ------------------------
     Tr[ns(  9)] (up, down, total) =   4.98367  4.98367  9.96733
     Atomic magnetic moment for atom   9 =  -0.00000
     SPIN  1
     eigenvalues:
       0.996  0.996  0.996  0.998  0.998
     eigenvectors (columns):
      -0.011  0.001  0.000 -0.000  1.000
      -0.680 -0.193  0.707  0.000 -0.007
      -0.680 -0.193 -0.707 -0.000 -0.007
       0.000  0.000 -0.001  1.000  0.000
      -0.273  0.962 -0.000 -0.000 -0.004
     occupation matrix ns (before diag.):
       0.998 -0.000 -0.000  0.000 -0.000
      -0.000  0.996 -0.000  0.000 -0.000
      -0.000 -0.000  0.996 -0.000 -0.000
       0.000  0.000 -0.000  0.998 -0.000
      -0.000 -0.000 -0.000 -0.000  0.996
     SPIN  2
     eigenvalues:
       0.996  0.996  0.996  0.998  0.998
     eigenvectors (columns):
      -0.011  0.001  0.000 -0.000  1.000
      -0.680 -0.193  0.707  0.000 -0.007
      -0.680 -0.193 -0.707 -0.000 -0.007
       0.000  0.000 -0.001  1.000  0.000
      -0.273  0.962 -0.000 -0.000 -0.004
     occupation matrix ns (before diag.):
       0.998 -0.000 -0.000  0.000 -0.000
      -0.000  0.996 -0.000  0.000 -0.000
      -0.000 -0.000  0.996 -0.000 -0.000
       0.000  0.000 -0.000  0.998 -0.000
      -0.000 -0.000 -0.000 -0.000  0.996
     ------------------------ ATOM   10 ------------------------
     Tr[ns( 10)] (up, down, total) =   4.98370  4.98370  9.96739
     Atomic magnetic moment for atom  10 =  -0.00000
     SPIN  1
     eigenvalues:
       0.996  0.996  0.996  0.998  0.998
     eigenvectors (columns):
      -0.011 -0.012  0.001  0.882  0.472
       0.717 -0.435  0.544  0.004 -0.003
      -0.673 -0.230  0.703 -0.011 -0.001
       0.006 -0.004 -0.002 -0.472  0.882
       0.180  0.870  0.458  0.009  0.008
     occupation matrix ns (before diag.):
       0.998  0.000 -0.000  0.000  0.000
       0.000  0.996  0.000 -0.000 -0.000
      -0.000  0.000  0.996  0.000  0.000
       0.000 -0.000  0.000  0.998  0.000
       0.000 -0.000  0.000  0.000  0.996
     SPIN  2
     eigenvalues:
       0.996  0.996  0.996  0.998  0.998
     eigenvectors (columns):
      -0.011 -0.012  0.001  0.882  0.472
       0.717 -0.435  0.544  0.004 -0.003
      -0.673 -0.230  0.703 -0.011 -0.001
       0.006 -0.004 -0.002 -0.472  0.882
       0.180  0.870  0.458  0.009  0.008
     occupation matrix ns (before diag.):
       0.998  0.000 -0.000  0.000  0.000
       0.000  0.996  0.000 -0.000 -0.000
      -0.000  0.000  0.996  0.000  0.000
       0.000 -0.000  0.000  0.998  0.000
       0.000 -0.000  0.000  0.000  0.996
     ------------------------ ATOM   11 ------------------------
     Tr[ns( 11)] (up, down, total) =   4.98370  4.98370  9.96739
     Atomic magnetic moment for atom  11 =  -0.00000
     SPIN  1
     eigenvalues:
       0.996  0.996  0.996  0.998  0.998
     eigenvectors (columns):
      -0.011 -0.012  0.001  0.882  0.472
      -0.673 -0.230  0.703 -0.011 -0.001
       0.717 -0.435  0.544  0.004 -0.003
      -0.006  0.004  0.002  0.472 -0.882
       0.180  0.870  0.458  0.009  0.008
     occupation matrix ns (before diag.):
       0.998 -0.000  0.000 -0.000  0.000
      -0.000  0.996  0.000 -0.000  0.000
       0.000  0.000  0.996  0.000 -0.000
      -0.000 -0.000  0.000  0.998 -0.000
       0.000  0.000 -0.000 -0.000  0.996
     SPIN  2
     eigenvalues:
       0.996  0.996  0.996  0.998  0.998
     eigenvectors (columns):
      -0.011 -0.012  0.001  0.882  0.472
      -0.673 -0.230  0.703 -0.011 -0.001
       0.717 -0.435  0.544  0.004 -0.003
      -0.006  0.004  0.002  0.472 -0.882
       0.180  0.870  0.458  0.009  0.008
     occupation matrix ns (before diag.):
       0.998 -0.000  0.000 -0.000  0.000
      -0.000  0.996  0.000 -0.000  0.000
       0.000  0.000  0.996  0.000 -0.000
      -0.000 -0.000  0.000  0.998 -0.000
       0.000  0.000 -0.000 -0.000  0.996
     ------------------------ ATOM   12 ------------------------
     Tr[ns( 12)] (up, down, total) =   4.98374  4.98374  9.96748
     Atomic magnetic moment for atom  12 =   0.00000
     SPIN  1
     eigenvalues:
       0.996  0.996  0.996  0.998  0.998
     eigenvectors (columns):
      -0.004 -0.000  0.068 -0.000 -0.998
      -0.481  0.707  0.517 -0.024  0.037
      -0.481 -0.707  0.517  0.024  0.037
       0.000  0.034  0.000  0.999 -0.000
       0.733 -0.000  0.679 -0.000  0.044
     occupation matrix ns (before diag.):
       0.998 -0.000 -0.000  0.000 -0.000
      -0.000  0.996 -0.000 -0.000  0.000
      -0.000 -0.000  0.996  0.000  0.000
       0.000 -0.000  0.000  0.998 -0.000
      -0.000  0.000  0.000 -0.000  0.996
     SPIN  2
     eigenvalues:
       0.996  0.996  0.996  0.998  0.998
     eigenvectors (columns):
      -0.004 -0.000  0.068 -0.000 -0.998
      -0.481  0.707  0.517 -0.024  0.037
      -0.481 -0.707  0.517  0.024  0.037
       0.000  0.034  0.000  0.999 -0.000
       0.733 -0.000  0.679 -0.000  0.044
     occupation matrix ns (before diag.):
       0.998 -0.000 -0.000  0.000 -0.000
      -0.000  0.996 -0.000 -0.000  0.000
      -0.000 -0.000  0.996  0.000  0.000
       0.000 -0.000  0.000  0.998 -0.000
      -0.000  0.000  0.000 -0.000  0.996
     ------------------------ ATOM   17 ------------------------
     Tr[ns( 17)] (up, down, total) =   4.98367  4.98367  9.96733
     Atomic magnetic moment for atom  17 =  -0.00000
     SPIN  1
     eigenvalues:
       0.996  0.996  0.996  0.998  0.998
     eigenvectors (columns):
       0.005  0.001  0.001 -0.866  0.500
       0.273  0.962 -0.000  0.000 -0.004
      -0.680  0.193 -0.707 -0.000  0.007
       0.009  0.001 -0.000  0.500  0.866
       0.680 -0.193 -0.707 -0.000 -0.007
     occupation matrix ns (before diag.):
       0.998 -0.000  0.000  0.000 -0.000
      -0.000  0.996  0.000 -0.000 -0.000
       0.000  0.000  0.996  0.000  0.000
       0.000 -0.000  0.000  0.998 -0.000
      -0.000 -0.000  0.000 -0.000  0.996
     SPIN  2
     eigenvalues:
       0.996  0.996  0.996  0.998  0.998
     eigenvectors (columns):
       0.005  0.001  0.001 -0.866  0.500
       0.273  0.962 -0.000  0.000 -0.004
      -0.680  0.193 -0.707 -0.000  0.007
       0.009  0.001 -0.000  0.500  0.866
       0.680 -0.193 -0.707 -0.000 -0.007
     occupation matrix ns (before diag.):
       0.998 -0.000  0.000  0.000 -0.000
      -0.000  0.996  0.000 -0.000 -0.000
       0.000  0.000  0.996  0.000  0.000
       0.000 -0.000  0.000  0.998 -0.000
      -0.000 -0.000  0.000 -0.000  0.996
     ------------------------ ATOM   18 ------------------------
     Tr[ns( 18)] (up, down, total) =   4.98370  4.98370  9.96739
     Atomic magnetic moment for atom  18 =  -0.00000
     SPIN  1
     eigenvalues:
       0.996  0.996  0.996  0.998  0.998
     eigenvectors (columns):
       0.001  0.009 -0.001  0.032 -0.999
      -0.180 -0.870  0.458  0.009 -0.008
      -0.673 -0.230 -0.703  0.011 -0.001
       0.012  0.008  0.001  0.999  0.032
      -0.717  0.435  0.544  0.004  0.003
     occupation matrix ns (before diag.):
       0.998  0.000  0.000 -0.000 -0.000
       0.000  0.996 -0.000  0.000 -0.000
       0.000 -0.000  0.996  0.000 -0.000
      -0.000  0.000  0.000  0.998  0.000
      -0.000 -0.000 -0.000  0.000  0.996
     SPIN  2
     eigenvalues:
       0.996  0.996  0.996  0.998  0.998
     eigenvectors (columns):
       0.001  0.009 -0.001  0.032 -0.999
      -0.180 -0.870  0.458  0.009 -0.008
      -0.673 -0.230 -0.703  0.011 -0.001
       0.012  0.008  0.001  0.999  0.032
      -0.717  0.435  0.544  0.004  0.003
     occupation matrix ns (before diag.):
       0.998  0.000  0.000 -0.000 -0.000
       0.000  0.996 -0.000  0.000 -0.000
       0.000 -0.000  0.996  0.000 -0.000
      -0.000  0.000  0.000  0.998  0.000
      -0.000 -0.000 -0.000  0.000  0.996
     ------------------------ ATOM   19 ------------------------
     Tr[ns( 19)] (up, down, total) =   4.98374  4.98374  9.96748
     Atomic magnetic moment for atom  19 =   0.00000
     SPIN  1
     eigenvalues:
       0.996  0.996  0.996  0.998  0.998
     eigenvectors (columns):
       0.002 -0.030 -0.034 -0.866 -0.499
      -0.733  0.000 -0.679  0.000  0.044
      -0.481 -0.707  0.517  0.024 -0.037
       0.003  0.017 -0.059  0.500 -0.864
       0.481 -0.707 -0.517  0.024  0.037
     occupation matrix ns (before diag.):
       0.998 -0.000 -0.000  0.000 -0.000
      -0.000  0.996 -0.000 -0.000  0.000
      -0.000 -0.000  0.996  0.000  0.000
       0.000 -0.000  0.000  0.998 -0.000
      -0.000  0.000  0.000 -0.000  0.996
     SPIN  2
     eigenvalues:
       0.996  0.996  0.996  0.998  0.998
     eigenvectors (columns):
       0.002 -0.030 -0.034 -0.866 -0.499
      -0.733  0.000 -0.679  0.000  0.044
      -0.481 -0.707  0.517  0.024 -0.037
       0.003  0.017 -0.059  0.500 -0.864
       0.481 -0.707 -0.517  0.024  0.037
     occupation matrix ns (before diag.):
       0.998 -0.000 -0.000  0.000 -0.000
      -0.000  0.996 -0.000 -0.000  0.000
      -0.000 -0.000  0.996  0.000  0.000
       0.000 -0.000  0.000  0.998 -0.000
      -0.000  0.000  0.000 -0.000  0.996
     ------------------------ ATOM   20 ------------------------
     Tr[ns( 20)] (up, down, total) =   4.98370  4.98370  9.96739
     Atomic magnetic moment for atom  20 =  -0.00000
     SPIN  1
     eigenvalues:
       0.996  0.996  0.996  0.998  0.998
     eigenvectors (columns):
      -0.010 -0.003 -0.002  0.849 -0.528
       0.180  0.870 -0.458  0.009  0.008
      -0.717  0.435  0.544 -0.004  0.003
      -0.006 -0.012  0.000  0.527  0.849
      -0.673 -0.230 -0.703 -0.011 -0.001
     occupation matrix ns (before diag.):
       0.998  0.000 -0.000 -0.000 -0.000
       0.000  0.996  0.000  0.000  0.000
      -0.000  0.000  0.996  0.000 -0.000
      -0.000  0.000  0.000  0.998 -0.000
      -0.000  0.000 -0.000 -0.000  0.996
     SPIN  2
     eigenvalues:
       0.996  0.996  0.996  0.998  0.998
     eigenvectors (columns):
      -0.010 -0.003 -0.002  0.849 -0.528
       0.180  0.870 -0.458  0.009  0.008
      -0.717  0.435  0.544 -0.004  0.003
      -0.006 -0.012  0.000  0.528  0.849
      -0.673 -0.230 -0.703 -0.011 -0.001
     occupation matrix ns (before diag.):
       0.998  0.000 -0.000 -0.000 -0.000
       0.000  0.996  0.000  0.000  0.000
      -0.000  0.000  0.996  0.000 -0.000
      -0.000  0.000  0.000  0.998 -0.000
      -0.000  0.000 -0.000 -0.000  0.996
     ------------------------ ATOM   25 ------------------------
     Tr[ns( 25)] (up, down, total) =   4.98386  4.98386  9.96771
     Atomic magnetic moment for atom  25 =   0.00000
     SPIN  1
     eigenvalues:
       0.996  0.996  0.996  0.998  0.998
     eigenvectors (columns):
       0.006 -0.001 -0.002  0.866 -0.500
       0.707  0.632 -0.316 -0.005  0.001
      -0.000  0.447  0.894 -0.000 -0.005
       0.003  0.001  0.004  0.500  0.866
       0.707 -0.632  0.316 -0.005 -0.001
     occupation matrix ns (before diag.):
       0.998 -0.000  0.000 -0.000 -0.000
      -0.000  0.996 -0.000 -0.000 -0.000
       0.000 -0.000  0.996 -0.000  0.000
      -0.000 -0.000 -0.000  0.998 -0.000
      -0.000 -0.000  0.000 -0.000  0.996
     SPIN  2
     eigenvalues:
       0.996  0.996  0.996  0.998  0.998
     eigenvectors (columns):
       0.006 -0.001 -0.002  0.866 -0.500
       0.707  0.632 -0.316 -0.005  0.001
      -0.000  0.447  0.894 -0.000 -0.005
       0.003  0.001  0.004  0.500  0.866
       0.707 -0.632  0.316 -0.005 -0.001
     occupation matrix ns (before diag.):
       0.998 -0.000  0.000 -0.000 -0.000
      -0.000  0.996 -0.000 -0.000 -0.000
       0.000 -0.000  0.996 -0.000  0.000
      -0.000 -0.000 -0.000  0.998 -0.000
      -0.000 -0.000  0.000 -0.000  0.996
     ------------------------ ATOM   26 ------------------------
     Tr[ns( 26)] (up, down, total) =   4.98379  4.98379  9.96759
     Atomic magnetic moment for atom  26 =   0.00000
     SPIN  1
     eigenvalues:
       0.996  0.996  0.996  0.998  0.998
     eigenvectors (columns):
      -0.003  0.015  0.005 -0.866  0.500
      -0.534 -0.707 -0.463 -0.012  0.001
       0.655  0.000 -0.756  0.000  0.012
       0.006  0.008 -0.009 -0.500 -0.866
       0.534 -0.707  0.463 -0.012 -0.001
     occupation matrix ns (before diag.):
       0.998  0.000  0.000 -0.000  0.000
       0.000  0.996  0.000  0.000 -0.000
       0.000  0.000  0.996 -0.000 -0.000
      -0.000  0.000 -0.000  0.998  0.000
       0.000 -0.000 -0.000  0.000  0.996
     SPIN  2
     eigenvalues:
       0.996  0.996  0.996  0.998  0.998
     eigenvectors (columns):
      -0.003  0.015  0.005 -0.866  0.500
      -0.534 -0.707 -0.463 -0.012  0.001
       0.655  0.000 -0.756  0.000  0.012
       0.006  0.008 -0.009 -0.500 -0.866
       0.534 -0.707  0.463 -0.012 -0.001
     occupation matrix ns (before diag.):
       0.998  0.000  0.000 -0.000  0.000
       0.000  0.996  0.000  0.000 -0.000
       0.000  0.000  0.996 -0.000 -0.000
      -0.000  0.000 -0.000  0.998  0.000
       0.000 -0.000 -0.000  0.000  0.996
     ------------------------ ATOM   27 ------------------------
     Tr[ns( 27)] (up, down, total) =   4.98380  4.98380  9.96761
     Atomic magnetic moment for atom  27 =   0.00000
     SPIN  1
     eigenvalues:
       0.996  0.996  0.996  0.998  0.998
     eigenvectors (columns):
       0.006 -0.036  0.041 -0.876 -0.479
       0.778  0.048 -0.624  0.001 -0.049
      -0.422 -0.698 -0.576  0.027 -0.052
       0.006  0.016  0.078  0.481 -0.873
      -0.465  0.713 -0.521 -0.029 -0.052
     occupation matrix ns (before diag.):
       0.998  0.000  0.000  0.000  0.000
       0.000  0.996  0.000  0.000  0.000
       0.000  0.000  0.996  0.000  0.000
       0.000  0.000  0.000  0.998  0.000
       0.000  0.000  0.000  0.000  0.996
     SPIN  2
     eigenvalues:
       0.996  0.996  0.996  0.998  0.998
     eigenvectors (columns):
       0.006 -0.036  0.041 -0.876 -0.479
       0.778  0.048 -0.624  0.001 -0.049
      -0.422 -0.698 -0.576  0.027 -0.052
       0.006  0.016  0.078  0.481 -0.873
      -0.465  0.713 -0.521 -0.029 -0.052
     occupation matrix ns (before diag.):
       0.998  0.000  0.000  0.000  0.000
       0.000  0.996  0.000  0.000  0.000
       0.000  0.000  0.996  0.000  0.000
       0.000  0.000  0.000  0.998  0.000
       0.000  0.000  0.000  0.000  0.996
     ------------------------ ATOM   28 ------------------------
     Tr[ns( 28)] (up, down, total) =   4.98380  4.98380  9.96761
     Atomic magnetic moment for atom  28 =   0.00000
     SPIN  1
     eigenvalues:
       0.996  0.996  0.996  0.998  0.998
     eigenvectors (columns):
      -0.008  0.004 -0.088 -0.022  0.996
       0.465 -0.713  0.521 -0.029  0.052
      -0.422 -0.698 -0.576 -0.027 -0.052
      -0.002  0.039  0.003 -0.999 -0.022
      -0.778 -0.048  0.624  0.001  0.049
     occupation matrix ns (before diag.):
       0.998  0.000 -0.000 -0.000  0.000
       0.000  0.996 -0.000  0.000  0.000
      -0.000 -0.000  0.996  0.000 -0.000
      -0.000  0.000  0.000  0.998 -0.000
       0.000  0.000 -0.000 -0.000  0.996
     SPIN  2
     eigenvalues:
       0.996  0.996  0.996  0.998  0.998
     eigenvectors (columns):
      -0.008  0.004 -0.088 -0.022  0.996
       0.465 -0.713  0.521 -0.029  0.052
      -0.422 -0.698 -0.576 -0.027 -0.052
      -0.002  0.039  0.003 -0.999 -0.022
      -0.778 -0.048  0.624  0.001  0.049
     occupation matrix ns (before diag.):
       0.998  0.000 -0.000 -0.000  0.000
       0.000  0.996 -0.000  0.000  0.000
      -0.000 -0.000  0.996  0.000 -0.000
      -0.000  0.000  0.000  0.998 -0.000
       0.000  0.000 -0.000 -0.000  0.996
     ------------------------ ATOM   33 ------------------------
     Tr[ns( 33)] (up, down, total) =   4.98367  4.98367  9.96733
     Atomic magnetic moment for atom  33 =  -0.00000
     SPIN  1
     eigenvalues:
       0.996  0.996  0.996  0.998  0.998
     eigenvectors (columns):
       0.005  0.001  0.001 -0.866  0.500
      -0.680  0.193 -0.707 -0.000  0.007
       0.273  0.962 -0.000  0.000 -0.004
      -0.009 -0.001  0.000 -0.500 -0.866
       0.680 -0.193 -0.707 -0.000 -0.007
     occupation matrix ns (before diag.):
       0.998  0.000 -0.000 -0.000 -0.000
       0.000  0.996  0.000 -0.000  0.000
      -0.000  0.000  0.996  0.000 -0.000
      -0.000 -0.000  0.000  0.998  0.000
      -0.000  0.000 -0.000  0.000  0.996
     SPIN  2
     eigenvalues:
       0.996  0.996  0.996  0.998  0.998
     eigenvectors (columns):
       0.005  0.001  0.001 -0.866  0.500
      -0.680  0.193 -0.707 -0.000  0.007
       0.273  0.962 -0.000  0.000 -0.004
      -0.009 -0.001  0.000 -0.500 -0.866
       0.680 -0.193 -0.707 -0.000 -0.007
     occupation matrix ns (before diag.):
       0.998  0.000 -0.000 -0.000 -0.000
       0.000  0.996  0.000 -0.000  0.000
      -0.000  0.000  0.996  0.000 -0.000
      -0.000 -0.000  0.000  0.998  0.000
      -0.000  0.000 -0.000  0.000  0.996
     ------------------------ ATOM   34 ------------------------
     Tr[ns( 34)] (up, down, total) =   4.98374  4.98374  9.96748
     Atomic magnetic moment for atom  34 =   0.00000
     SPIN  1
     eigenvalues:
       0.996  0.996  0.996  0.998  0.998
     eigenvectors (columns):
       0.002 -0.030 -0.034 -0.866 -0.499
      -0.481 -0.707  0.517  0.024 -0.037
      -0.733 -0.000 -0.679  0.000  0.044
      -0.003 -0.017  0.059 -0.500  0.864
       0.481 -0.707 -0.517  0.024  0.037
     occupation matrix ns (before diag.):
       0.998 -0.000 -0.000 -0.000 -0.000
      -0.000  0.996 -0.000 -0.000  0.000
      -0.000 -0.000  0.996  0.000  0.000
      -0.000 -0.000  0.000  0.998  0.000
      -0.000  0.000  0.000  0.000  0.996
     SPIN  2
     eigenvalues:
       0.996  0.996  0.996  0.998  0.998
     eigenvectors (columns):
       0.002 -0.030 -0.034 -0.866 -0.499
      -0.481 -0.707  0.517  0.024 -0.037
      -0.733 -0.000 -0.679 -0.000  0.044
      -0.003 -0.017  0.059 -0.500  0.864
       0.481 -0.707 -0.517  0.024  0.037
     occupation matrix ns (before diag.):
       0.998 -0.000 -0.000 -0.000 -0.000
      -0.000  0.996 -0.000 -0.000  0.000
      -0.000 -0.000  0.996  0.000  0.000
      -0.000 -0.000  0.000  0.998  0.000
      -0.000  0.000  0.000  0.000  0.996
     ------------------------ ATOM   35 ------------------------
     Tr[ns( 35)] (up, down, total) =   4.98370  4.98370  9.96739
     Atomic magnetic moment for atom  35 =  -0.00000
     SPIN  1
     eigenvalues:
       0.996  0.996  0.996  0.998  0.998
     eigenvectors (columns):
       0.001 -0.009  0.001  0.032 -0.999
      -0.673  0.230  0.703  0.011 -0.001
      -0.180  0.870 -0.458  0.009 -0.008
      -0.012  0.008  0.001 -0.999 -0.032
      -0.717 -0.435 -0.544  0.004  0.003
     occupation matrix ns (before diag.):
       0.998  0.000  0.000  0.000 -0.000
       0.000  0.996 -0.000 -0.000 -0.000
       0.000 -0.000  0.996 -0.000 -0.000
       0.000 -0.000 -0.000  0.998 -0.000
      -0.000 -0.000 -0.000 -0.000  0.996
     SPIN  2
     eigenvalues:
       0.996  0.996  0.996  0.998  0.998
     eigenvectors (columns):
       0.001 -0.009  0.001  0.032 -0.999
      -0.673  0.230  0.703  0.011 -0.001
      -0.180  0.870 -0.458  0.009 -0.008
      -0.012  0.008  0.001 -0.999 -0.032
      -0.717 -0.435 -0.544  0.004  0.003
     occupation matrix ns (before diag.):
       0.998  0.000  0.000  0.000 -0.000
       0.000  0.996 -0.000 -0.000 -0.000
       0.000 -0.000  0.996 -0.000 -0.000
       0.000 -0.000 -0.000  0.998 -0.000
      -0.000 -0.000 -0.000 -0.000  0.996
     ------------------------ ATOM   36 ------------------------
     Tr[ns( 36)] (up, down, total) =   4.98370  4.98370  9.96739
     Atomic magnetic moment for atom  36 =  -0.00000
     SPIN  1
     eigenvalues:
       0.996  0.996  0.996  0.998  0.998
     eigenvectors (columns):
      -0.010  0.003  0.002  0.849 -0.528
      -0.717 -0.435 -0.544 -0.004  0.003
       0.180 -0.870  0.458  0.009  0.008
       0.006 -0.012  0.000 -0.527 -0.849
      -0.673  0.230  0.703 -0.011 -0.001
     occupation matrix ns (before diag.):
       0.998 -0.000  0.000  0.000 -0.000
      -0.000  0.996  0.000 -0.000 -0.000
       0.000  0.000  0.996 -0.000  0.000
       0.000 -0.000 -0.000  0.998  0.000
      -0.000 -0.000  0.000  0.000  0.996
     SPIN  2
     eigenvalues:
       0.996  0.996  0.996  0.998  0.998
     eigenvectors (columns):
      -0.010  0.003  0.002  0.849 -0.528
      -0.717 -0.435 -0.544 -0.004  0.003
       0.180 -0.870  0.458  0.009  0.008
       0.006 -0.012  0.000 -0.528 -0.849
      -0.673  0.230  0.703 -0.011 -0.001
     occupation matrix ns (before diag.):
       0.998 -0.000  0.000  0.000 -0.000
      -0.000  0.996  0.000 -0.000 -0.000
       0.000  0.000  0.996 -0.000  0.000
       0.000 -0.000 -0.000  0.998  0.000
      -0.000 -0.000  0.000  0.000  0.996
     ------------------------ ATOM   41 ------------------------
     Tr[ns( 41)] (up, down, total) =   4.98386  4.98386  9.96771
     Atomic magnetic moment for atom  41 =   0.00000
     SPIN  1
     eigenvalues:
       0.996  0.996  0.996  0.998  0.998
     eigenvectors (columns):
       0.006 -0.001 -0.002  0.866 -0.500
      -0.000  0.447  0.894 -0.000 -0.005
       0.707  0.632 -0.316 -0.005  0.001
      -0.003 -0.001 -0.004 -0.500 -0.866
       0.707 -0.632  0.316 -0.005 -0.001
     occupation matrix ns (before diag.):
       0.998  0.000 -0.000  0.000 -0.000
       0.000  0.996 -0.000  0.000  0.000
      -0.000 -0.000  0.996  0.000 -0.000
       0.000  0.000  0.000  0.998  0.000
      -0.000  0.000 -0.000  0.000  0.996
     SPIN  2
     eigenvalues:
       0.996  0.996  0.996  0.998  0.998
     eigenvectors (columns):
       0.006 -0.001 -0.002  0.866 -0.500
       0.000  0.447  0.894 -0.000 -0.005
       0.707  0.632 -0.316 -0.005  0.001
      -0.003 -0.001 -0.004 -0.500 -0.866
       0.707 -0.632  0.316 -0.005 -0.001
     occupation matrix ns (before diag.):
       0.998  0.000 -0.000  0.000 -0.000
       0.000  0.996 -0.000  0.000  0.000
      -0.000 -0.000  0.996  0.000 -0.000
       0.000  0.000  0.000  0.998  0.000
      -0.000  0.000 -0.000  0.000  0.996
     ------------------------ ATOM   42 ------------------------
     Tr[ns( 42)] (up, down, total) =   4.98380  4.98380  9.96761
     Atomic magnetic moment for atom  42 =   0.00000
     SPIN  1
     eigenvalues:
       0.996  0.996  0.996  0.998  0.998
     eigenvectors (columns):
       0.006 -0.036  0.041 -0.876 -0.479
      -0.422 -0.698 -0.576  0.027 -0.052
       0.778  0.048 -0.624  0.001 -0.049
      -0.006 -0.016 -0.078 -0.481  0.873
      -0.465  0.713 -0.521 -0.029 -0.052
     occupation matrix ns (before diag.):
       0.998  0.000  0.000 -0.000  0.000
       0.000  0.996  0.000 -0.000  0.000
       0.000  0.000  0.996 -0.000  0.000
      -0.000 -0.000 -0.000  0.998 -0.000
       0.000  0.000  0.000 -0.000  0.996
     SPIN  2
     eigenvalues:
       0.996  0.996  0.996  0.998  0.998
     eigenvectors (columns):
       0.006 -0.036  0.041 -0.876 -0.479
      -0.422 -0.698 -0.576  0.027 -0.052
       0.778  0.048 -0.624  0.001 -0.049
      -0.006 -0.016 -0.078 -0.481  0.873
      -0.465  0.713 -0.521 -0.029 -0.052
     occupation matrix ns (before diag.):
       0.998  0.000  0.000 -0.000  0.000
       0.000  0.996  0.000 -0.000  0.000
       0.000  0.000  0.996 -0.000  0.000
      -0.000 -0.000 -0.000  0.998 -0.000
       0.000  0.000  0.000 -0.000  0.996
     ------------------------ ATOM   43 ------------------------
     Tr[ns( 43)] (up, down, total) =   4.98379  4.98379  9.96759
     Atomic magnetic moment for atom  43 =   0.00000
     SPIN  1
     eigenvalues:
       0.996  0.996  0.996  0.998  0.998
     eigenvectors (columns):
      -0.003  0.015  0.005 -0.866  0.500
       0.655 -0.000 -0.756  0.000  0.012
      -0.534 -0.707 -0.463 -0.012  0.001
      -0.006 -0.008  0.009  0.500  0.866
       0.534 -0.707  0.463 -0.012 -0.001
     occupation matrix ns (before diag.):
       0.998  0.000  0.000  0.000  0.000
       0.000  0.996  0.000  0.000 -0.000
       0.000  0.000  0.996 -0.000 -0.000
       0.000  0.000 -0.000  0.998 -0.000
       0.000 -0.000 -0.000 -0.000  0.996
     SPIN  2
     eigenvalues:
       0.996  0.996  0.996  0.998  0.998
     eigenvectors (columns):
      -0.003  0.015  0.005 -0.866  0.500
       0.655 -0.000 -0.756  0.000  0.012
      -0.534 -0.707 -0.463 -0.012  0.001
      -0.006 -0.008  0.009  0.500  0.866
       0.534 -0.707  0.463 -0.012 -0.001
     occupation matrix ns (before diag.):
       0.998  0.000  0.000  0.000  0.000
       0.000  0.996  0.000  0.000 -0.000
       0.000  0.000  0.996 -0.000 -0.000
       0.000  0.000 -0.000  0.998 -0.000
       0.000 -0.000 -0.000 -0.000  0.996
     ------------------------ ATOM   44 ------------------------
     Tr[ns( 44)] (up, down, total) =   4.98380  4.98380  9.96761
     Atomic magnetic moment for atom  44 =   0.00000
     SPIN  1
     eigenvalues:
       0.996  0.996  0.996  0.998  0.998
     eigenvectors (columns):
      -0.008 -0.004  0.088 -0.022  0.996
      -0.422  0.698  0.576 -0.027 -0.052
       0.465  0.713 -0.521 -0.029  0.052
       0.002  0.039  0.003  0.999  0.022
      -0.778  0.048 -0.624  0.001  0.049
     occupation matrix ns (before diag.):
       0.998 -0.000  0.000  0.000  0.000
      -0.000  0.996 -0.000 -0.000 -0.000
       0.000 -0.000  0.996 -0.000  0.000
       0.000 -0.000 -0.000  0.998  0.000
       0.000 -0.000  0.000  0.000  0.996
     SPIN  2
     eigenvalues:
       0.996  0.996  0.996  0.998  0.998
     eigenvectors (columns):
      -0.008 -0.004  0.088 -0.022  0.996
      -0.422  0.698  0.576 -0.027 -0.052
       0.465  0.713 -0.521 -0.029  0.052
       0.002  0.039  0.003  0.999  0.022
      -0.778  0.048 -0.624  0.001  0.049
     occupation matrix ns (before diag.):
       0.998 -0.000  0.000  0.000  0.000
      -0.000  0.996 -0.000 -0.000 -0.000
       0.000 -0.000  0.996 -0.000  0.000
       0.000 -0.000 -0.000  0.998  0.000
       0.000 -0.000  0.000  0.000  0.996
     ------------------------ ATOM   49 ------------------------
     Tr[ns( 49)] (up, down, total) =   4.98386  4.98386  9.96771
     Atomic magnetic moment for atom  49 =   0.00000
     SPIN  1
     eigenvalues:
       0.996  0.996  0.996  0.998  0.998
     eigenvectors (columns):
      -0.000  0.001 -0.005 -0.000  1.000
      -0.707  0.632  0.316 -0.005  0.001
       0.707  0.632  0.316  0.005  0.001
      -0.006 -0.000  0.000  1.000  0.000
      -0.000 -0.447  0.894 -0.000  0.005
     occupation matrix ns (before diag.):
       0.998  0.000  0.000  0.000  0.000
       0.000  0.996  0.000 -0.000  0.000
       0.000  0.000  0.996  0.000  0.000
       0.000 -0.000  0.000  0.998 -0.000
       0.000  0.000  0.000 -0.000  0.996
     SPIN  2
     eigenvalues:
       0.996  0.996  0.996  0.998  0.998
     eigenvectors (columns):
      -0.000  0.001 -0.005 -0.000  1.000
      -0.707  0.632  0.316 -0.005  0.001
       0.707  0.632  0.316  0.005  0.001
      -0.006 -0.000  0.000  1.000  0.000
      -0.000 -0.447  0.894 -0.000  0.005
     occupation matrix ns (before diag.):
       0.998  0.000  0.000  0.000  0.000
       0.000  0.996  0.000 -0.000  0.000
       0.000  0.000  0.996  0.000  0.000
       0.000 -0.000  0.000  0.998 -0.000
       0.000  0.000  0.000 -0.000  0.996
     ------------------------ ATOM   50 ------------------------
     Tr[ns( 50)] (up, down, total) =   4.98380  4.98380  9.96761
     Atomic magnetic moment for atom  50 =   0.00000
     SPIN  1
     eigenvalues:
       0.996  0.996  0.996  0.998  0.998
     eigenvectors (columns):
       0.002 -0.032 -0.047 -0.854 -0.517
       0.465  0.713 -0.521 -0.029  0.052
       0.778 -0.048  0.624 -0.001 -0.049
      -0.008 -0.023  0.075 -0.518  0.852
       0.422 -0.698 -0.576  0.027  0.052
     occupation matrix ns (before diag.):
       0.998 -0.000  0.000 -0.000 -0.000
      -0.000  0.996 -0.000  0.000  0.000
       0.000 -0.000  0.996 -0.000 -0.000
      -0.000  0.000 -0.000  0.998  0.000
      -0.000  0.000 -0.000  0.000  0.996
     SPIN  2
     eigenvalues:
       0.996  0.996  0.996  0.998  0.998
     eigenvectors (columns):
       0.002 -0.032 -0.047 -0.854 -0.517
       0.465  0.713 -0.521 -0.029  0.052
       0.778 -0.048  0.624 -0.001 -0.049
      -0.008 -0.023  0.075 -0.518  0.852
       0.422 -0.698 -0.576  0.027  0.052
     occupation matrix ns (before diag.):
       0.998 -0.000  0.000 -0.000 -0.000
      -0.000  0.996 -0.000  0.000  0.000
       0.000 -0.000  0.996 -0.000 -0.000
      -0.000  0.000 -0.000  0.998  0.000
      -0.000  0.000 -0.000  0.000  0.996
     ------------------------ ATOM   51 ------------------------
     Tr[ns( 51)] (up, down, total) =   4.98380  4.98380  9.96761
     Atomic magnetic moment for atom  51 =   0.00000
     SPIN  1
     eigenvalues:
       0.996  0.996  0.996  0.998  0.998
     eigenvectors (columns):
       0.002 -0.032 -0.047 -0.854 -0.517
       0.778 -0.048  0.624 -0.001 -0.049
       0.465  0.713 -0.521 -0.029  0.052
       0.008  0.023 -0.075  0.518 -0.852
       0.422 -0.698 -0.576  0.027  0.052
     occupation matrix ns (before diag.):
       0.998  0.000 -0.000  0.000 -0.000
       0.000  0.996 -0.000  0.000 -0.000
      -0.000 -0.000  0.996 -0.000  0.000
       0.000  0.000 -0.000  0.998 -0.000
      -0.000 -0.000  0.000 -0.000  0.996
     SPIN  2
     eigenvalues:
       0.996  0.996  0.996  0.998  0.998
     eigenvectors (columns):
       0.002 -0.032 -0.047 -0.854 -0.517
       0.778 -0.048  0.624 -0.001 -0.049
       0.465  0.713 -0.521 -0.029  0.052
       0.008  0.023 -0.075  0.518 -0.852
       0.422 -0.698 -0.576  0.027  0.052
     occupation matrix ns (before diag.):
       0.998  0.000 -0.000  0.000 -0.000
       0.000  0.996 -0.000  0.000 -0.000
      -0.000 -0.000  0.996 -0.000  0.000
       0.000  0.000 -0.000  0.998 -0.000
      -0.000 -0.000  0.000 -0.000  0.996
     ------------------------ ATOM   52 ------------------------
     Tr[ns( 52)] (up, down, total) =   4.98379  4.98379  9.96759
     Atomic magnetic moment for atom  52 =   0.00000
     SPIN  1
     eigenvalues:
       0.996  0.996  0.996  0.998  0.998
     eigenvectors (columns):
       0.007 -0.000 -0.010 -0.000 -1.000
      -0.534  0.707 -0.463 -0.012  0.001
      -0.534 -0.707 -0.463  0.012  0.001
      -0.000 -0.017  0.000 -1.000  0.000
      -0.655  0.000  0.756  0.000 -0.012
     occupation matrix ns (before diag.):
       0.998 -0.000 -0.000  0.000  0.000
      -0.000  0.996  0.000  0.000 -0.000
      -0.000  0.000  0.996 -0.000 -0.000
       0.000  0.000 -0.000  0.998 -0.000
       0.000 -0.000 -0.000 -0.000  0.996
     SPIN  2
     eigenvalues:
       0.996  0.996  0.996  0.998  0.998
     eigenvectors (columns):
       0.007 -0.000 -0.010  0.000 -1.000
      -0.534  0.707 -0.463 -0.012  0.001
      -0.534 -0.707 -0.463  0.012  0.001
      -0.000 -0.017  0.000 -1.000 -0.000
      -0.655  0.000  0.756  0.000 -0.012
     occupation matrix ns (before diag.):
       0.998 -0.000 -0.000  0.000  0.000
      -0.000  0.996  0.000  0.000 -0.000
      -0.000  0.000  0.996 -0.000 -0.000
       0.000  0.000 -0.000  0.998 -0.000
       0.000 -0.000 -0.000 -0.000  0.996
     ------------------------ ATOM   57 ------------------------
     Tr[ns( 57)] (up, down, total) =   4.94002  4.94002  9.88003
     Atomic magnetic moment for atom  57 =   0.00000
     SPIN  1
     eigenvalues:
       0.983  0.983  0.990  0.992  0.992
     eigenvectors (columns):
      -0.057 -0.027 -0.000 -0.312 -0.948
      -0.062 -0.812 -0.577 -0.034  0.039
      -0.672  0.460 -0.577  0.051  0.011
       0.027 -0.057  0.000  0.948 -0.312
      -0.735 -0.352  0.577  0.016  0.049
     occupation matrix ns (before diag.):
       0.992 -0.000 -0.000  0.000 -0.000
      -0.000  0.986  0.002 -0.000 -0.002
      -0.000  0.002  0.986  0.000 -0.002
       0.000 -0.000  0.000  0.992 -0.000
      -0.000 -0.002 -0.002 -0.000  0.986
     SPIN  2
     eigenvalues:
       0.983  0.983  0.990  0.992  0.992
     eigenvectors (columns):
      -0.058 -0.025 -0.000 -0.229 -0.971
      -0.099 -0.809 -0.577 -0.038  0.035
      -0.651  0.490 -0.577  0.050  0.015
       0.025 -0.058  0.000  0.971 -0.229
      -0.750 -0.318  0.577  0.012  0.050
     occupation matrix ns (before diag.):
       0.992 -0.000 -0.000  0.000 -0.000
      -0.000  0.986  0.002 -0.000 -0.002
      -0.000  0.002  0.986  0.000 -0.002
       0.000 -0.000  0.000  0.992 -0.000
      -0.000 -0.002 -0.002 -0.000  0.986
     ------------------------ ATOM   58 ------------------------
     Tr[ns( 58)] (up, down, total) =   4.98628  4.98628  9.97256
     Atomic magnetic moment for atom  58 =   0.00000
     SPIN  1
     eigenvalues:
       0.996  0.996  0.998  0.998  0.998
     eigenvectors (columns):
       0.092 -0.069  0.006 -0.861 -0.495
      -0.703 -0.399 -0.582 -0.075  0.049
       0.000 -0.814  0.568 -0.000  0.120
       0.053  0.119 -0.010 -0.497  0.858
      -0.703  0.399  0.582 -0.075 -0.049
     occupation matrix ns (before diag.):
       0.998  0.000 -0.000 -0.000  0.000
       0.000  0.997 -0.001  0.000 -0.001
      -0.000 -0.001  0.997  0.000  0.001
      -0.000  0.000  0.000  0.998 -0.000
       0.000 -0.001  0.001 -0.000  0.997
     SPIN  2
     eigenvalues:
       0.996  0.996  0.998  0.998  0.998
     eigenvectors (columns):
       0.092 -0.069  0.006 -0.861 -0.495
      -0.703 -0.399 -0.582 -0.075  0.049
       0.000 -0.814  0.568 -0.000  0.120
       0.053  0.119 -0.010 -0.497  0.858
      -0.703  0.399  0.582 -0.075 -0.049
     occupation matrix ns (before diag.):
       0.998  0.000 -0.000 -0.000  0.000
       0.000  0.997 -0.001  0.000 -0.001
      -0.000 -0.001  0.997  0.000  0.001
      -0.000  0.000  0.000  0.998 -0.000
       0.000 -0.001  0.001 -0.000  0.997
     ------------------------ ATOM   59 ------------------------
     Tr[ns( 59)] (up, down, total) =   4.98628  4.98628  9.97256
     Atomic magnetic moment for atom  59 =   0.00000
     SPIN  1
     eigenvalues:
       0.996  0.996  0.998  0.998  0.998
     eigenvectors (columns):
       0.092  0.069 -0.006  0.861  0.495
       0.000  0.814 -0.568  0.000 -0.120
      -0.703  0.399  0.582  0.075 -0.049
      -0.053  0.119 -0.010 -0.497  0.858
      -0.703 -0.399 -0.582  0.075  0.049
     occupation matrix ns (before diag.):
       0.998 -0.000  0.000  0.000  0.000
      -0.000  0.997 -0.001 -0.000  0.001
       0.000 -0.001  0.997 -0.000 -0.001
       0.000 -0.000 -0.000  0.998  0.000
       0.000  0.001 -0.001  0.000  0.997
     SPIN  2
     eigenvalues:
       0.996  0.996  0.998  0.998  0.998
     eigenvectors (columns):
       0.092  0.069 -0.006  0.861  0.495
       0.000  0.814 -0.568  0.000 -0.120
      -0.703  0.399  0.582  0.075 -0.049
      -0.053  0.119 -0.010 -0.497  0.858
      -0.703 -0.399 -0.582  0.075  0.049
     occupation matrix ns (before diag.):
       0.998 -0.000  0.000  0.000  0.000
      -0.000  0.997 -0.001 -0.000  0.001
       0.000 -0.001  0.997 -0.000 -0.001
       0.000 -0.000 -0.000  0.998  0.000
       0.000  0.001 -0.001  0.000  0.997
     ------------------------ ATOM   60 ------------------------
     Tr[ns( 60)] (up, down, total) =   4.98628  4.98628  9.97256
     Atomic magnetic moment for atom  60 =   0.00000
     SPIN  1
     eigenvalues:
       0.996  0.996  0.998  0.998  0.998
     eigenvectors (columns):
       0.000  0.138  0.011 -0.000 -0.990
       0.703 -0.399  0.582  0.075 -0.049
      -0.703 -0.399  0.582 -0.075 -0.049
      -0.106  0.000 -0.000  0.994 -0.000
       0.000  0.814  0.568  0.000  0.120
     occupation matrix ns (before diag.):
       0.998  0.000  0.000  0.000 -0.000
       0.000  0.997  0.001  0.000  0.001
       0.000  0.001  0.997 -0.000  0.001
       0.000  0.000 -0.000  0.998 -0.000
      -0.000  0.001  0.001 -0.000  0.997
     SPIN  2
     eigenvalues:
       0.996  0.996  0.998  0.998  0.998
     eigenvectors (columns):
       0.000  0.138  0.011 -0.000 -0.990
       0.703 -0.399  0.582  0.075 -0.049
      -0.703 -0.399  0.582 -0.075 -0.049
      -0.106  0.000 -0.000  0.994 -0.000
       0.000  0.814  0.568  0.000  0.120
     occupation matrix ns (before diag.):
       0.998  0.000  0.000  0.000 -0.000
       0.000  0.997  0.001  0.000  0.001
       0.000  0.001  0.997 -0.000  0.001
       0.000  0.000 -0.000  0.998 -0.000
      -0.000  0.001  0.001 -0.000  0.997

     Number of occupied Hubbard levels =  318.8882

     Atomic wfc used for Hubbard projectors are orthogonalized

     Starting wfcs are  413 randomized atomic wfcs
     Checking if some PAW data can be deallocated... 
       PAW data deallocated on  740 nodes for type:  1
       PAW data deallocated on  739 nodes for type:  2
       PAW data deallocated on 1433 nodes for type:  3

     Band Structure Calculation
     Davidson diagonalization with overlap

     Computing kpt #:     1  of     2 on this pool
     total cpu time spent up to now is      103.7 secs

     Computing kpt #:     2  of     2 on this pool
     c_bands:  1 eigenvalues not converged
     total cpu time spent up to now is      183.6 secs

     ethr =  1.73E-12,  avg # of iterations = 93.6

     total cpu time spent up to now is      183.8 secs

     End of band structure calculation

 ------ SPIN UP ------------


          k = 0.0000 0.0000 0.0000 (269825 PWs)   bands (ev):

  -103.8798 -61.3055 -61.2923 -61.2923  -7.6342  -7.2160  -7.2160  -7.2096
    -7.2096  -7.2042  -7.1702  -7.0173  -7.0173  -7.0171  -7.0039  -6.9807
    -6.9784  -6.9784  -6.9773  -6.9773  -6.9760  -6.9758  -6.9758  -6.8746
    -6.8746  -6.8566  -6.7959  -6.7936  -6.7936  -6.7574  -6.7556  -6.7556
    -6.4743  -6.3319  -6.3319  -3.8745  -3.8732  -3.8732  -3.8342  -3.8335
    -3.8335  -3.8317  -3.8317  -3.8158  -3.8158  -3.8102  -3.8078  -3.8078
    -3.8060  -3.7944  -3.7944  -3.7944  -3.7913  -3.7913  -3.7876  -3.7856
    -3.7856  -3.7784  -3.7767  -3.7767  -3.7740  -3.7695  -3.7673  -3.7673
    -3.7626  -3.7619  -3.7616  -3.7616  -3.7472  -3.7472  -3.7470  -3.7355
    -3.7333  -3.7333  -3.7266  -3.7266  -3.7233  -3.7233  -3.7211  -3.7172
    -3.7172  -3.7124  -3.7084  -3.7084  -3.7007  -3.6988  -3.6988  -3.6942
    -3.6893  -3.6857  -3.6857  -3.6803  -3.6803  -3.6791  -3.6758  -3.6702
    -3.6702  -3.6543  -3.6535  -3.6484  -3.6478  -3.6478  -3.6444  -3.6444
    -3.6374  -3.6374  -3.6351  -3.6313  -3.6313  -3.6282  -3.6282  -3.6276
    -3.6203  -3.6190  -3.6190  -3.6188  -3.6119  -3.6119  -3.6114  -3.6114
    -3.6108  -3.6108  -3.6091  -3.6043  -3.5884  -3.5842  -3.5842  -3.5799
    -3.5799  -3.5688  -3.5666  -3.5666  -3.5662  -3.5497  -3.5497  -3.5443
    -3.5337  -3.5337  -3.5330  -3.5311  -3.5220  -3.5220  -3.5070  -3.5070
    -3.5032  -3.4915  -3.4854  -3.4854  -3.4847  -3.4847  -3.4812  -3.4811
    -3.4811  -3.4655  -3.4632  -3.4632  -3.4591  -3.4437  -3.4437  -3.4207
    -3.4130  -3.4130  -3.4054  -3.3980  -3.3964  -3.3964  -3.2848  -3.2848
    -3.2423  -3.2398  -3.2398  -3.2241  -3.2188  -3.2188  -3.2120  -3.2012
    -3.1959  -3.1959  -3.1405  -3.1405  -3.0935  -3.0393  -3.0168  -3.0168
    -2.9668  -2.9023  -2.9023  -2.8743  -2.8743  -2.8682   0.2173   0.2376
     0.2625   0.2625   0.5905   0.6049   0.6049   0.8147   0.8147   0.8223
     0.8908   0.8908   0.9035   1.0859   1.2049   1.2049   1.2159   1.2159
     1.2572   1.2660   1.2660   1.2742   1.4813   1.4813   1.8914   2.3476
     2.4430   2.4430   2.4870   2.4946   2.4946   2.5102   2.5102   2.5200
     2.5576   2.5576   2.6603   2.6745   2.6778   2.6778   2.6795   2.6934
     2.6934   2.7422   2.7422   2.7778   2.7784   2.7784   2.7910   2.8588
     2.8588   2.9447   3.0015   3.0015   3.1019   3.1633   3.1732   3.1732
     3.4209   3.4209   3.4777   3.6985   3.6985   3.9986   4.0041   4.0041
     4.0112   4.0273   4.0359   4.0359   4.0604   4.0604   4.1252   4.1424
     4.1424   4.2583   4.2583   4.3013   4.3033   4.3062   4.3062   4.3080
     4.3080   4.3148   4.3165   4.3165   4.3185   4.3353   4.3353   4.5046
     4.6035   4.8291   4.8291   4.9987   4.9987   5.1485   5.6893   5.6893
     6.5479   7.7800   8.6073   8.6073   8.6929   8.7514   8.8124   8.8124
     8.9350   8.9350   9.0972   9.4771   9.4807   9.4807   9.5243   9.8329
     9.8329   9.9164   9.9399   9.9399   9.9619   9.9832   9.9832   9.9863
     9.9972   9.9972  10.1561  10.1561  10.1570  10.1785  10.1785  10.2081
    10.2081  10.2337  10.3142  10.6354  10.6354  10.6993  11.0171  11.1134
    11.1134  11.1483  11.1483  11.2786  11.3193  11.3193  11.3324  11.6505
    11.6505  11.6849  11.8159  11.8437  11.8454  11.8454  11.9914  11.9914
    12.0009  12.0060  12.0060

     occupation numbers 
     1.0000   1.0000   1.0000   1.0000   1.0000   1.0000   1.0000   1.0000
     1.0000   1.0000   1.0000   1.0000   1.0000   1.0000   1.0000   1.0000
     1.0000   1.0000   1.0000   1.0000   1.0000   1.0000   1.0000   1.0000
     1.0000   1.0000   1.0000   1.0000   1.0000   1.0000   1.0000   1.0000
     1.0000   1.0000   1.0000   1.0000   1.0000   1.0000   1.0000   1.0000
     1.0000   1.0000   1.0000   1.0000   1.0000   1.0000   1.0000   1.0000
     1.0000   1.0000   1.0000   1.0000   1.0000   1.0000   1.0000   1.0000
     1.0000   1.0000   1.0000   1.0000   1.0000   1.0000   1.0000   1.0000
     1.0000   1.0000   1.0000   1.0000   1.0000   1.0000   1.0000   1.0000
     1.0000   1.0000   1.0000   1.0000   1.0000   1.0000   1.0000   1.0000
     1.0000   1.0000   1.0000   1.0000   1.0000   1.0000   1.0000   1.0000
     1.0000   1.0000   1.0000   1.0000   1.0000   1.0000   1.0000   1.0000
     1.0000   1.0000   1.0000   1.0000   1.0000   1.0000   1.0000   1.0000
     1.0000   1.0000   1.0000   1.0000   1.0000   1.0000   1.0000   1.0000
     1.0000   1.0000   1.0000   1.0000   1.0000   1.0000   1.0000   1.0000
     1.0000   1.0000   1.0000   1.0000   1.0000   1.0000   1.0000   1.0000
     1.0000   1.0000   1.0000   1.0000   1.0000   1.0000   1.0000   1.0000
     1.0000   1.0000   1.0000   1.0000   1.0000   1.0000   1.0000   1.0000
     1.0000   1.0000   1.0000   1.0000   1.0000   1.0000   1.0000   1.0000
     1.0000   1.0000   1.0000   1.0000   1.0000   1.0000   1.0000   1.0000
     1.0000   1.0000   1.0000   1.0000   1.0000   1.0000   1.0000   1.0000
     1.0000   1.0000   1.0000   1.0000   1.0000   1.0000   1.0000   1.0000
     1.0000   1.0000   1.0000   1.0000   1.0000   1.0000   1.0000   1.0000
     1.0000   1.0000   1.0000   1.0000   1.0000   1.0000   1.0000   1.0000
     1.0000   1.0000   1.0000   1.0000   1.0000   1.0000   1.0000   1.0000
     1.0000   1.0000   1.0000   1.0000   1.0000   1.0000   1.0000   1.0000
     1.0000   1.0000   1.0000   1.0000   1.0000   1.0000   1.0000   1.0000
     1.0000   1.0000   1.0000   1.0000   1.0000   1.0000   1.0000   1.0000
     1.0000   1.0000   1.0000   1.0000   1.0000   1.0000   1.0000   1.0000
     1.0000   1.0000   1.0000   1.0000   1.0000   1.0000   1.0000   1.0000
     1.0000   1.0000   1.0000   1.0000   1.0000   1.0000   1.0000   1.0000
     1.0000   1.0000   1.0000   1.0000   1.0000   1.0000   1.0000   1.0000
     1.0000   1.0000   1.0000   1.0000   1.0000   1.0000   1.0000   1.0000
     1.0000   1.0000   1.0000   1.0000   1.0000   1.0000   1.0000   1.0000
     1.0000   1.0000   1.0000   1.0000   1.0000   1.0000   1.0000   1.0000
     1.0000   1.0000   1.0000   1.0000   1.0000   1.0000   1.0000   1.0000
     1.0000   0.0000   0.0000   0.0000   0.0000   0.0000   0.0000   0.0000
     0.0000   0.0000   0.0000   0.0000   0.0000   0.0000   0.0000   0.0000
     0.0000   0.0000   0.0000   0.0000   0.0000   0.0000   0.0000   0.0000
     0.0000   0.0000   0.0000   0.0000   0.0000   0.0000   0.0000   0.0000
     0.0000   0.0000   0.0000   0.0000   0.0000   0.0000   0.0000   0.0000
     0.0000   0.0000   0.0000   0.0000   0.0000   0.0000   0.0000   0.0000
     0.0000   0.0000   0.0000   0.0000   0.0000   0.0000   0.0000   0.0000
     0.0000   0.0000   0.0000

          k = 0.0000 0.0000 0.2500 (269876 PWs)   bands (ev):

  -103.8798 -61.3055 -61.2923 -61.2923  -7.6046  -7.3645  -7.1978  -7.1951
    -7.1933  -7.1762  -7.0674  -7.0612  -7.0563  -7.0506  -7.0387  -7.0033
    -6.9981  -6.9978  -6.9925  -6.9461  -6.9327  -6.9261  -6.8914  -6.8721
    -6.8615  -6.8528  -6.8217  -6.7941  -6.7939  -6.7722  -6.7649  -6.7646
    -6.4715  -6.3347  -6.3322  -3.8725  -3.8715  -3.8700  -3.8331  -3.8322
    -3.8317  -3.8308  -3.8286  -3.8174  -3.8172  -3.8120  -3.8107  -3.8094
    -3.8074  -3.8009  -3.8007  -3.7992  -3.7974  -3.7927  -3.7912  -3.7859
    -3.7845  -3.7796  -3.7786  -3.7750  -3.7741  -3.7689  -3.7683  -3.7651
    -3.7632  -3.7629  -3.7582  -3.7525  -3.7479  -3.7470  -3.7457  -3.7363
    -3.7334  -3.7310  -3.7299  -3.7279  -3.7257  -3.7237  -3.7228  -3.7151
    -3.7104  -3.7097  -3.7057  -3.7051  -3.7014  -3.6988  -3.6971  -3.6922
    -3.6914  -3.6880  -3.6876  -3.6826  -3.6820  -3.6809  -3.6762  -3.6724
    -3.6707  -3.6600  -3.6537  -3.6529  -3.6495  -3.6453  -3.6420  -3.6420
    -3.6408  -3.6373  -3.6322  -3.6298  -3.6285  -3.6265  -3.6231  -3.6208
    -3.6196  -3.6176  -3.6170  -3.6156  -3.6126  -3.6125  -3.6097  -3.6086
    -3.6059  -3.6056  -3.6028  -3.5979  -3.5893  -3.5882  -3.5836  -3.5810
    -3.5797  -3.5741  -3.5716  -3.5658  -3.5656  -3.5558  -3.5470  -3.5397
    -3.5333  -3.5315  -3.5239  -3.5192  -3.5180  -3.5156  -3.5068  -3.5006
    -3.4972  -3.4904  -3.4886  -3.4856  -3.4845  -3.4820  -3.4793  -3.4769
    -3.4699  -3.4684  -3.4619  -3.4600  -3.4599  -3.4452  -3.4445  -3.4198
    -3.4174  -3.4146  -3.4018  -3.3977  -3.3972  -3.3814  -3.3616  -3.3543
    -3.3323  -3.3005  -3.2392  -3.2197  -3.2179  -3.2036  -3.1623  -3.1590
    -3.1410  -3.1213  -3.1127  -3.0927  -3.0878  -3.0733  -3.0104  -2.9980
    -2.9798  -2.9234  -2.9233  -2.8988  -2.8965  -2.8902   0.3208   0.3369
     0.3579   0.3618   0.6123   0.6292   0.7241   0.7880   0.7967   0.8099
     0.8193   0.8538   0.8667   0.9774   1.0016   1.0086   1.0127   1.0316
     1.1651   1.1912   1.3713   1.5811   1.5825   1.6489   1.7574   2.0297
     2.2457   2.2962   2.3272   2.3448   2.3542   2.3830   2.3855   2.4558
     2.4762   2.5203   2.5436   2.6253   2.6983   2.7678   2.7735   2.7818
     2.9913   2.9973   3.0099   3.0119   3.0334   3.0463   3.0602   3.0824
     3.0956   3.0959   3.1248   3.1669   3.1688   3.1948   3.2368   3.2453
     3.3945   3.4612   3.5317   3.6576   3.7045   3.7448   3.8160   3.9153
     3.9175   3.9428   3.9537   4.0256   4.0302   4.0599   4.0601   4.0782
     4.1131   4.1305   4.1481   4.1740   4.2118   4.2480   4.2741   4.2986
     4.3039   4.3119   4.3242   4.3446   4.3837   4.3909   4.4262   4.4857
     4.5820   4.7269   4.8118   4.8274   4.9442   5.0283   5.6124   5.6694
     6.7650   7.9994   8.5924   8.6734   8.8744   8.9016   8.9319   8.9884
     9.0144   9.0971   9.2439   9.4119   9.4639   9.6199   9.6441   9.6696
     9.7181   9.8835   9.8846   9.9246   9.9258   9.9490  10.0387  10.0526
    10.0671  10.1219  10.1279  10.1808  10.1831  10.1972  10.2432  10.2598
    10.3088  10.3534  10.4825  10.5484  10.5490  10.6527  10.6760  10.7849
    10.8760  10.9187  10.9611  11.1227  11.2035  11.2489  11.4174  11.5471
    11.5805  11.6056  11.6475  11.6929  11.7081  11.7360  11.7724  11.8417
    11.8541  11.8762  11.8830

     occupation numbers 
     1.0000   1.0000   1.0000   1.0000   1.0000   1.0000   1.0000   1.0000
     1.0000   1.0000   1.0000   1.0000   1.0000   1.0000   1.0000   1.0000
     1.0000   1.0000   1.0000   1.0000   1.0000   1.0000   1.0000   1.0000
     1.0000   1.0000   1.0000   1.0000   1.0000   1.0000   1.0000   1.0000
     1.0000   1.0000   1.0000   1.0000   1.0000   1.0000   1.0000   1.0000
     1.0000   1.0000   1.0000   1.0000   1.0000   1.0000   1.0000   1.0000
     1.0000   1.0000   1.0000   1.0000   1.0000   1.0000   1.0000   1.0000
     1.0000   1.0000   1.0000   1.0000   1.0000   1.0000   1.0000   1.0000
     1.0000   1.0000   1.0000   1.0000   1.0000   1.0000   1.0000   1.0000
     1.0000   1.0000   1.0000   1.0000   1.0000   1.0000   1.0000   1.0000
     1.0000   1.0000   1.0000   1.0000   1.0000   1.0000   1.0000   1.0000
     1.0000   1.0000   1.0000   1.0000   1.0000   1.0000   1.0000   1.0000
     1.0000   1.0000   1.0000   1.0000   1.0000   1.0000   1.0000   1.0000
     1.0000   1.0000   1.0000   1.0000   1.0000   1.0000   1.0000   1.0000
     1.0000   1.0000   1.0000   1.0000   1.0000   1.0000   1.0000   1.0000
     1.0000   1.0000   1.0000   1.0000   1.0000   1.0000   1.0000   1.0000
     1.0000   1.0000   1.0000   1.0000   1.0000   1.0000   1.0000   1.0000
     1.0000   1.0000   1.0000   1.0000   1.0000   1.0000   1.0000   1.0000
     1.0000   1.0000   1.0000   1.0000   1.0000   1.0000   1.0000   1.0000
     1.0000   1.0000   1.0000   1.0000   1.0000   1.0000   1.0000   1.0000
     1.0000   1.0000   1.0000   1.0000   1.0000   1.0000   1.0000   1.0000
     1.0000   1.0000   1.0000   1.0000   1.0000   1.0000   1.0000   1.0000
     1.0000   1.0000   1.0000   1.0000   1.0000   1.0000   1.0000   1.0000
     1.0000   1.0000   1.0000   1.0000   1.0000   1.0000   1.0000   1.0000
     1.0000   1.0000   1.0000   1.0000   1.0000   1.0000   1.0000   1.0000
     1.0000   1.0000   1.0000   1.0000   1.0000   1.0000   1.0000   1.0000
     1.0000   1.0000   1.0000   1.0000   1.0000   1.0000   1.0000   1.0000
     1.0000   1.0000   1.0000   1.0000   1.0000   1.0000   1.0000   1.0000
     1.0000   1.0000   1.0000   1.0000   1.0000   1.0000   1.0000   1.0000
     1.0000   1.0000   1.0000   1.0000   1.0000   1.0000   1.0000   1.0000
     1.0000   1.0000   1.0000   1.0000   1.0000   1.0000   1.0000   1.0000
     1.0000   1.0000   1.0000   1.0000   1.0000   1.0000   1.0000   1.0000
     1.0000   1.0000   1.0000   1.0000   1.0000   1.0000   1.0000   1.0000
     1.0000   1.0000   1.0000   1.0000   1.0000   1.0000   1.0000   1.0000
     1.0000   1.0000   1.0000   1.0000   1.0000   1.0000   1.0000   1.0000
     1.0000   1.0000   1.0000   1.0000   1.0000   1.0000   1.0000   1.0000
     1.0000   0.0000   0.0000   0.0000   0.0000   0.0000   0.0000   0.0000
     0.0000   0.0000   0.0000   0.0000   0.0000   0.0000   0.0000   0.0000
     0.0000   0.0000   0.0000   0.0000   0.0000   0.0000   0.0000   0.0000
     0.0000   0.0000   0.0000   0.0000   0.0000   0.0000   0.0000   0.0000
     0.0000   0.0000   0.0000   0.0000   0.0000   0.0000   0.0000   0.0000
     0.0000   0.0000   0.0000   0.0000   0.0000   0.0000   0.0000   0.0000
     0.0000   0.0000   0.0000   0.0000   0.0000   0.0000   0.0000   0.0000
     0.0000   0.0000   0.0000

          k = 0.0000 0.0000-0.5000 (270152 PWs)   bands (ev):

  -103.8798 -61.3055 -61.2923 -61.2923  -7.5460  -7.4684  -7.1739  -7.1720
    -7.1667  -7.1533  -7.1365  -7.1039  -7.0932  -7.0598  -7.0095  -7.0033
    -6.9986  -6.9951  -6.9409  -6.9238  -6.9197  -6.9080  -6.8841  -6.8694
    -6.8434  -6.8417  -6.8265  -6.8124  -6.7949  -6.7880  -6.7805  -6.7763
    -6.4684  -6.3377  -6.3325  -3.8706  -3.8697  -3.8659  -3.8322  -3.8279
    -3.8276  -3.8245  -3.8233  -3.8228  -3.8222  -3.8189  -3.8144  -3.8125
    -3.8100  -3.8075  -3.8062  -3.8034  -3.8028  -3.7956  -3.7953  -3.7857
    -3.7841  -3.7826  -3.7813  -3.7785  -3.7728  -3.7683  -3.7619  -3.7607
    -3.7562  -3.7560  -3.7517  -3.7512  -3.7498  -3.7456  -3.7433  -3.7425
    -3.7376  -3.7337  -3.7325  -3.7287  -3.7264  -3.7240  -3.7180  -3.7149
    -3.7114  -3.7095  -3.7033  -3.7028  -3.7006  -3.7003  -3.6980  -3.6909
    -3.6900  -3.6862  -3.6854  -3.6823  -3.6809  -3.6788  -3.6772  -3.6742
    -3.6730  -3.6675  -3.6581  -3.6570  -3.6454  -3.6436  -3.6430  -3.6393
    -3.6385  -3.6356  -3.6273  -3.6273  -3.6244  -3.6241  -3.6222  -3.6204
    -3.6191  -3.6166  -3.6159  -3.6145  -3.6145  -3.6115  -3.6035  -3.6034
    -3.6013  -3.5989  -3.5982  -3.5937  -3.5924  -3.5904  -3.5860  -3.5839
    -3.5833  -3.5792  -3.5723  -3.5664  -3.5628  -3.5532  -3.5439  -3.5386
    -3.5312  -3.5287  -3.5159  -3.5139  -3.5124  -3.5068  -3.5013  -3.4986
    -3.4914  -3.4877  -3.4874  -3.4860  -3.4838  -3.4826  -3.4777  -3.4757
    -3.4696  -3.4672  -3.4645  -3.4605  -3.4603  -3.4581  -3.4455  -3.4322
    -3.4203  -3.4157  -3.4105  -3.4028  -3.4018  -3.3922  -3.3862  -3.3800
    -3.3417  -3.2756  -3.2289  -3.2225  -3.2052  -3.2052  -3.1925  -3.1772
    -3.1763  -3.1364  -3.0817  -3.0192  -3.0093  -2.9967  -2.9963  -2.9870
    -2.9764  -2.9610  -2.9562  -2.9457  -2.9371  -2.9364   0.5372   0.5619
     0.5710   0.5816   0.6329   0.6372   0.6527   0.6686   0.6795   0.7019
     0.7359   0.7820   0.8439   0.8506   0.8664   0.8781   0.9062   1.0332
     1.0938   1.1200   1.2329   1.5731   1.8255   1.9366   1.9586   1.9743
     1.9848   2.0538   2.0585   2.2831   2.2844   2.2875   2.2974   2.3494
     2.3795   2.4217   2.5277   2.6648   2.7870   2.8099   2.8502   2.8606
[...]
    10.0075  10.0410  10.0765  10.0946  10.1643  10.1795  10.2650  10.2900
    10.4180  10.5134  10.5469  10.5577  10.6043  10.7022  10.7191  10.7327
    10.7828  10.8656  10.8923  10.9706  11.1177  11.2056  11.2743  11.3342
    11.3975  11.4799  11.5481  11.6002  11.6483  11.6600  11.6749  11.7332
    11.7622  11.7832  11.8148

     occupation numbers 
     1.0000   1.0000   1.0000   1.0000   1.0000   1.0000   1.0000   1.0000
     1.0000   1.0000   1.0000   1.0000   1.0000   1.0000   1.0000   1.0000
     1.0000   1.0000   1.0000   1.0000   1.0000   1.0000   1.0000   1.0000
     1.0000   1.0000   1.0000   1.0000   1.0000   1.0000   1.0000   1.0000
     1.0000   1.0000   1.0000   1.0000   1.0000   1.0000   1.0000   1.0000
     1.0000   1.0000   1.0000   1.0000   1.0000   1.0000   1.0000   1.0000
     1.0000   1.0000   1.0000   1.0000   1.0000   1.0000   1.0000   1.0000
     1.0000   1.0000   1.0000   1.0000   1.0000   1.0000   1.0000   1.0000
     1.0000   1.0000   1.0000   1.0000   1.0000   1.0000   1.0000   1.0000
     1.0000   1.0000   1.0000   1.0000   1.0000   1.0000   1.0000   1.0000
     1.0000   1.0000   1.0000   1.0000   1.0000   1.0000   1.0000   1.0000
     1.0000   1.0000   1.0000   1.0000   1.0000   1.0000   1.0000   1.0000
     1.0000   1.0000   1.0000   1.0000   1.0000   1.0000   1.0000   1.0000
     1.0000   1.0000   1.0000   1.0000   1.0000   1.0000   1.0000   1.0000
     1.0000   1.0000   1.0000   1.0000   1.0000   1.0000   1.0000   1.0000
     1.0000   1.0000   1.0000   1.0000   1.0000   1.0000   1.0000   1.0000
     1.0000   1.0000   1.0000   1.0000   1.0000   1.0000   1.0000   1.0000
     1.0000   1.0000   1.0000   1.0000   1.0000   1.0000   1.0000   1.0000
     1.0000   1.0000   1.0000   1.0000   1.0000   1.0000   1.0000   1.0000
     1.0000   1.0000   1.0000   1.0000   1.0000   1.0000   1.0000   1.0000
     1.0000   1.0000   1.0000   1.0000   1.0000   1.0000   1.0000   1.0000
     1.0000   1.0000   1.0000   1.0000   1.0000   1.0000   1.0000   1.0000
     1.0000   1.0000   1.0000   1.0000   1.0000   1.0000   1.0000   1.0000
     1.0000   1.0000   1.0000   1.0000   1.0000   1.0000   1.0000   1.0000
     1.0000   1.0000   1.0000   1.0000   1.0000   1.0000   1.0000   1.0000
     1.0000   1.0000   1.0000   1.0000   1.0000   1.0000   1.0000   1.0000
     1.0000   1.0000   1.0000   1.0000   1.0000   1.0000   1.0000   1.0000
     1.0000   1.0000   1.0000   1.0000   1.0000   1.0000   1.0000   1.0000
     1.0000   1.0000   1.0000   1.0000   1.0000   1.0000   1.0000   1.0000
     1.0000   1.0000   1.0000   1.0000   1.0000   1.0000   1.0000   1.0000
     1.0000   1.0000   1.0000   1.0000   1.0000   1.0000   1.0000   1.0000
     1.0000   1.0000   1.0000   1.0000   1.0000   1.0000   1.0000   1.0000
     1.0000   1.0000   1.0000   1.0000   1.0000   1.0000   1.0000   1.0000
     1.0000   1.0000   1.0000   1.0000   1.0000   1.0000   1.0000   1.0000
     1.0000   1.0000   1.0000   1.0000   1.0000   1.0000   1.0000   1.0000
     1.0000   1.0000   1.0000   1.0000   1.0000   1.0000   1.0000   1.0000
     1.0000   0.0000   0.0000   0.0000   0.0000   0.0000   0.0000   0.0000
     0.0000   0.0000   0.0000   0.0000   0.0000   0.0000   0.0000   0.0000
     0.0000   0.0000   0.0000   0.0000   0.0000   0.0000   0.0000   0.0000
     0.0000   0.0000   0.0000   0.0000   0.0000   0.0000   0.0000   0.0000
     0.0000   0.0000   0.0000   0.0000   0.0000   0.0000   0.0000   0.0000
     0.0000   0.0000   0.0000   0.0000   0.0000   0.0000   0.0000   0.0000
     0.0000   0.0000   0.0000   0.0000   0.0000   0.0000   0.0000   0.0000
     0.0000   0.0000   0.0000

          k = 0.2500-0.2500 0.2500 (269935 PWs)   bands (ev):

  -103.8798 -61.3055 -61.2923 -61.2923  -7.5480  -7.3338  -7.3299  -7.3100
    -7.1679  -7.1620  -7.1362  -7.0384  -7.0302  -7.0289  -7.0065  -6.9766
    -6.9764  -6.9609  -6.9466  -6.9461  -6.9444  -6.8847  -6.8770  -6.8658
    -6.8493  -6.8483  -6.8185  -6.8180  -6.8175  -6.7897  -6.7884  -6.7882
    -6.4664  -6.3366  -6.3365  -3.8701  -3.8689  -3.8669  -3.8331  -3.8329
    -3.8301  -3.8297  -3.8234  -3.8218  -3.8193  -3.8167  -3.8129  -3.8122
    -3.8118  -3.8101  -3.8053  -3.8049  -3.7938  -3.7923  -3.7858  -3.7794
    -3.7786  -3.7750  -3.7737  -3.7725  -3.7685  -3.7683  -3.7651  -3.7637
    -3.7613  -3.7593  -3.7590  -3.7549  -3.7499  -3.7422  -3.7418  -3.7376
    -3.7361  -3.7351  -3.7313  -3.7307  -3.7257  -3.7244  -3.7188  -3.7115
    -3.7080  -3.7072  -3.7054  -3.7031  -3.7009  -3.6997  -3.6943  -3.6941
    -3.6913  -3.6890  -3.6853  -3.6852  -3.6815  -3.6812  -3.6763  -3.6728
    -3.6704  -3.6650  -3.6648  -3.6574  -3.6489  -3.6467  -3.6438  -3.6409
    -3.6393  -3.6370  -3.6363  -3.6303  -3.6286  -3.6257  -3.6256  -3.6237
    -3.6220  -3.6198  -3.6175  -3.6124  -3.6114  -3.6096  -3.6080  -3.6066
    -3.6039  -3.6039  -3.5957  -3.5927  -3.5908  -3.5898  -3.5878  -3.5852
    -3.5828  -3.5769  -3.5725  -3.5705  -3.5676  -3.5658  -3.5555  -3.5412
    -3.5382  -3.5356  -3.5177  -3.5159  -3.5141  -3.5116  -3.5066  -3.5050
    -3.4998  -3.4973  -3.4881  -3.4822  -3.4809  -3.4781  -3.4759  -3.4743
    -3.4730  -3.4689  -3.4650  -3.4609  -3.4554  -3.4527  -3.4291  -3.4206
    -3.4172  -3.4128  -3.3993  -3.3971  -3.3924  -3.3920  -3.3666  -3.3594
    -3.3219  -3.2897  -3.2316  -3.2087  -3.1980  -3.1887  -3.1804  -3.1708
    -3.1259  -3.0974  -3.0848  -3.0544  -3.0474  -3.0369  -3.0133  -3.0125
    -2.9957  -2.9658  -2.9475  -2.9400  -2.9373  -2.9293   0.4046   0.4234
     0.4404   0.6707   0.6860   0.6878   0.7205   0.7282   0.7293   0.7838
     0.7997   0.8018   0.8317   0.8692   0.8839   0.9574   1.0104   1.0515
     1.0549   1.1260   1.2470   1.3946   1.5767   1.6105   1.7150   1.8341
     1.8461   2.1501   2.4135   2.4326   2.4407   2.4571   2.4943   2.4962
     2.5674   2.5791   2.5868   2.6911   2.7536   2.8561   2.8625   2.9010
     2.9259   3.0063   3.0560   3.0617   3.0820   3.1192   3.1333   3.2249
     3.2321   3.2321   3.2631   3.2796   3.3118   3.3284   3.4012   3.4355
     3.4879   3.5423   3.5655   3.6438   3.7036   3.7398   3.7582   3.7754
     3.7770   3.7941   3.8616   3.8646   3.8687   3.9179   3.9344   3.9612
     3.9627   3.9896   4.0255   4.0338   4.0500   4.0563   4.2201   4.2762
     4.2902   4.3734   4.3781   4.3973   4.4263   4.4827   4.5089   4.5258
     4.6388   4.6612   4.8042   4.8702   4.9641   5.0396   5.5531   5.6554
     6.9033   8.1376   8.6630   8.6652   8.8332   9.1212   9.2004   9.2055
     9.2283   9.3390   9.3419   9.3935   9.4534   9.5192   9.5597   9.5648
     9.6496   9.7604   9.7791   9.8603   9.8984   9.9737   9.9777  10.0374
    10.0840  10.0865  10.1552  10.1639  10.1811  10.1971  10.2115  10.2256
    10.2363  10.2756  10.2765  10.3026  10.3816  10.5172  10.7400  10.8115
    10.9522  11.0162  11.0494  11.0970  11.2631  11.2735  11.2892  11.3100
    11.3306  11.3703  11.3945  11.5035  11.5080  11.5689  11.6899  11.7063
    11.7239  11.7747  11.8112

     occupation numbers 
     1.0000   1.0000   1.0000   1.0000   1.0000   1.0000   1.0000   1.0000
     1.0000   1.0000   1.0000   1.0000   1.0000   1.0000   1.0000   1.0000
     1.0000   1.0000   1.0000   1.0000   1.0000   1.0000   1.0000   1.0000
     1.0000   1.0000   1.0000   1.0000   1.0000   1.0000   1.0000   1.0000
     1.0000   1.0000   1.0000   1.0000   1.0000   1.0000   1.0000   1.0000
     1.0000   1.0000   1.0000   1.0000   1.0000   1.0000   1.0000   1.0000
     1.0000   1.0000   1.0000   1.0000   1.0000   1.0000   1.0000   1.0000
     1.0000   1.0000   1.0000   1.0000   1.0000   1.0000   1.0000   1.0000
     1.0000   1.0000   1.0000   1.0000   1.0000   1.0000   1.0000   1.0000
     1.0000   1.0000   1.0000   1.0000   1.0000   1.0000   1.0000   1.0000
     1.0000   1.0000   1.0000   1.0000   1.0000   1.0000   1.0000   1.0000
     1.0000   1.0000   1.0000   1.0000   1.0000   1.0000   1.0000   1.0000
     1.0000   1.0000   1.0000   1.0000   1.0000   1.0000   1.0000   1.0000
     1.0000   1.0000   1.0000   1.0000   1.0000   1.0000   1.0000   1.0000
     1.0000   1.0000   1.0000   1.0000   1.0000   1.0000   1.0000   1.0000
     1.0000   1.0000   1.0000   1.0000   1.0000   1.0000   1.0000   1.0000
     1.0000   1.0000   1.0000   1.0000   1.0000   1.0000   1.0000   1.0000
     1.0000   1.0000   1.0000   1.0000   1.0000   1.0000   1.0000   1.0000
     1.0000   1.0000   1.0000   1.0000   1.0000   1.0000   1.0000   1.0000
     1.0000   1.0000   1.0000   1.0000   1.0000   1.0000   1.0000   1.0000
     1.0000   1.0000   1.0000   1.0000   1.0000   1.0000   1.0000   1.0000
     1.0000   1.0000   1.0000   1.0000   1.0000   1.0000   1.0000   1.0000
     1.0000   1.0000   1.0000   1.0000   1.0000   1.0000   1.0000   1.0000
     1.0000   1.0000   1.0000   1.0000   1.0000   1.0000   1.0000   1.0000
     1.0000   1.0000   1.0000   1.0000   1.0000   1.0000   1.0000   1.0000
     1.0000   1.0000   1.0000   1.0000   1.0000   1.0000   1.0000   1.0000
     1.0000   1.0000   1.0000   1.0000   1.0000   1.0000   1.0000   1.0000
     1.0000   1.0000   1.0000   1.0000   1.0000   1.0000   1.0000   1.0000
     1.0000   1.0000   1.0000   1.0000   1.0000   1.0000   1.0000   1.0000
     1.0000   1.0000   1.0000   1.0000   1.0000   1.0000   1.0000   1.0000
     1.0000   1.0000   1.0000   1.0000   1.0000   1.0000   1.0000   1.0000
     1.0000   1.0000   1.0000   1.0000   1.0000   1.0000   1.0000   1.0000
     1.0000   1.0000   1.0000   1.0000   1.0000   1.0000   1.0000   1.0000
     1.0000   1.0000   1.0000   1.0000   1.0000   1.0000   1.0000   1.0000
     1.0000   1.0000   1.0000   1.0000   1.0000   1.0000   1.0000   1.0000
     1.0000   1.0000   1.0000   1.0000   1.0000   1.0000   1.0000   1.0000
     1.0000   0.0000   0.0000   0.0000   0.0000   0.0000   0.0000   0.0000
     0.0000   0.0000   0.0000   0.0000   0.0000   0.0000   0.0000   0.0000
     0.0000   0.0000   0.0000   0.0000   0.0000   0.0000   0.0000   0.0000
     0.0000   0.0000   0.0000   0.0000   0.0000   0.0000   0.0000   0.0000
     0.0000   0.0000   0.0000   0.0000   0.0000   0.0000   0.0000   0.0000
     0.0000   0.0000   0.0000   0.0000   0.0000   0.0000   0.0000   0.0000
     0.0000   0.0000   0.0000   0.0000   0.0000   0.0000   0.0000   0.0000
     0.0000   0.0000   0.0000

          k = 0.2500-0.2500-0.5000 (269988 PWs)   bands (ev):

  -103.8798 -61.3055 -61.2923 -61.2923  -7.4919  -7.4242  -7.2913  -7.2910
    -7.2326  -7.2025  -7.1442  -7.0414  -7.0189  -7.0171  -6.9795  -6.9752
    -6.9656  -6.9585  -6.9203  -6.9002  -6.8986  -6.8925  -6.8815  -6.8671
    -6.8595  -6.8459  -6.8338  -6.8284  -6.8147  -6.8059  -6.8027  -6.8015
    -6.4638  -6.3395  -6.3368  -3.8691  -3.8681  -3.8651  -3.8337  -3.8331
    -3.8301  -3.8288  -3.8276  -3.8250  -3.8201  -3.8161  -3.8137  -3.8121
    -3.8093  -3.8088  -3.8060  -3.7988  -3.7981  -3.7906  -3.7847  -3.7833
    -3.7782  -3.7768  -3.7743  -3.7703  -3.7684  -3.7655  -3.7645  -3.7618
    -3.7580  -3.7555  -3.7540  -3.7493  -3.7466  -3.7456  -3.7426  -3.7385
    -3.7383  -3.7372  -3.7350  -3.7338  -3.7269  -3.7195  -3.7168  -3.7116
    -3.7076  -3.7074  -3.7051  -3.7032  -3.7008  -3.6986  -3.6957  -3.6944
    -3.6934  -3.6886  -3.6860  -3.6836  -3.6821  -3.6806  -3.6766  -3.6719
    -3.6696  -3.6634  -3.6608  -3.6525  -3.6521  -3.6465  -3.6426  -3.6414
    -3.6382  -3.6374  -3.6369  -3.6350  -3.6304  -3.6286  -3.6267  -3.6246
    -3.6201  -3.6173  -3.6151  -3.6133  -3.6126  -3.6100  -3.6067  -3.6060
    -3.6043  -3.6020  -3.5997  -3.5975  -3.5924  -3.5889  -3.5881  -3.5868
    -3.5815  -3.5784  -3.5727  -3.5720  -3.5671  -3.5661  -3.5593  -3.5520
    -3.5405  -3.5371  -3.5322  -3.5164  -3.5146  -3.5119  -3.5106  -3.5063
    -3.5003  -3.4956  -3.4912  -3.4882  -3.4831  -3.4796  -3.4769  -3.4738
    -3.4723  -3.4689  -3.4657  -3.4608  -3.4564  -3.4494  -3.4388  -3.4232
    -3.4173  -3.4128  -3.4106  -3.3955  -3.3942  -3.3928  -3.3313  -3.3130
    -3.3045  -3.2868  -3.2406  -3.2215  -3.1992  -3.1805  -3.1614  -3.1350
    -3.1020  -3.0948  -3.0673  -3.0590  -3.0503  -3.0372  -3.0197  -3.0075
    -2.9975  -2.9849  -2.9777  -2.9685  -2.9571  -2.9452   0.4662   0.5312
     0.6034   0.6254   0.6721   0.6824   0.7019   0.7278   0.7299   0.7442
     0.7626   0.7808   0.8095   0.8359   0.8795   0.9000   0.9537   1.0627
     1.1616   1.2180   1.2521   1.2950   1.3215   1.4255   1.5930   1.8915
     2.2008   2.2615   2.2958   2.3620   2.3775   2.4191   2.4736   2.5605
     2.5691   2.6100   2.6507   2.6583   2.7182   2.7722   2.8297   2.8571
     3.0527   3.0862   3.1500   3.1935   3.2130   3.2649   3.2943   3.3005
     3.3109   3.3172   3.3407   3.3780   3.4113   3.4250   3.4359   3.4470
     3.4548   3.4843   3.4905   3.5083   3.5530   3.5698   3.5997   3.6342
     3.6439   3.7086   3.7228   3.7859   3.8082   3.8324   3.9013   3.9396
     3.9660   3.9802   3.9875   4.0759   4.1492   4.1551   4.1725   4.2134
     4.2694   4.2804   4.3780   4.4541   4.5138   4.5251   4.6009   4.6386
     4.6757   4.7307   4.8072   4.8693   4.9366   4.9385   5.5842   5.6326
     6.9292   8.3492   8.4466   8.8870   8.9448   9.0426   9.0922   9.2334
     9.2976   9.3285   9.3959   9.4862   9.5085   9.5396   9.5624   9.5800
     9.6384   9.6974   9.7131   9.7507   9.7878   9.8254   9.8420   9.8987
     9.9402   9.9642  10.0256  10.0490  10.0646  10.1380  10.1779  10.2784
    10.2953  10.3897  10.4253  10.5767  10.6632  10.7069  10.7251  10.7903
    10.8185  10.9141  11.0132  11.1016  11.1710  11.2202  11.3209  11.3848
    11.4196  11.4416  11.4533  11.4966  11.5299  11.5545  11.5812  11.5989
    11.6187  11.6222  11.6550

     occupation numbers 
     1.0000   1.0000   1.0000   1.0000   1.0000   1.0000   1.0000   1.0000
     1.0000   1.0000   1.0000   1.0000   1.0000   1.0000   1.0000   1.0000
     1.0000   1.0000   1.0000   1.0000   1.0000   1.0000   1.0000   1.0000
     1.0000   1.0000   1.0000   1.0000   1.0000   1.0000   1.0000   1.0000
     1.0000   1.0000   1.0000   1.0000   1.0000   1.0000   1.0000   1.0000
     1.0000   1.0000   1.0000   1.0000   1.0000   1.0000   1.0000   1.0000
     1.0000   1.0000   1.0000   1.0000   1.0000   1.0000   1.0000   1.0000
     1.0000   1.0000   1.0000   1.0000   1.0000   1.0000   1.0000   1.0000
     1.0000   1.0000   1.0000   1.0000   1.0000   1.0000   1.0000   1.0000
     1.0000   1.0000   1.0000   1.0000   1.0000   1.0000   1.0000   1.0000
     1.0000   1.0000   1.0000   1.0000   1.0000   1.0000   1.0000   1.0000
     1.0000   1.0000   1.0000   1.0000   1.0000   1.0000   1.0000   1.0000
     1.0000   1.0000   1.0000   1.0000   1.0000   1.0000   1.0000   1.0000
     1.0000   1.0000   1.0000   1.0000   1.0000   1.0000   1.0000   1.0000
     1.0000   1.0000   1.0000   1.0000   1.0000   1.0000   1.0000   1.0000
     1.0000   1.0000   1.0000   1.0000   1.0000   1.0000   1.0000   1.0000
     1.0000   1.0000   1.0000   1.0000   1.0000   1.0000   1.0000   1.0000
     1.0000   1.0000   1.0000   1.0000   1.0000   1.0000   1.0000   1.0000
     1.0000   1.0000   1.0000   1.0000   1.0000   1.0000   1.0000   1.0000
     1.0000   1.0000   1.0000   1.0000   1.0000   1.0000   1.0000   1.0000
     1.0000   1.0000   1.0000   1.0000   1.0000   1.0000   1.0000   1.0000
     1.0000   1.0000   1.0000   1.0000   1.0000   1.0000   1.0000   1.0000
     1.0000   1.0000   1.0000   1.0000   1.0000   1.0000   1.0000   1.0000
     1.0000   1.0000   1.0000   1.0000   1.0000   1.0000   1.0000   1.0000
     1.0000   1.0000   1.0000   1.0000   1.0000   1.0000   1.0000   1.0000
     1.0000   1.0000   1.0000   1.0000   1.0000   1.0000   1.0000   1.0000
     1.0000   1.0000   1.0000   1.0000   1.0000   1.0000   1.0000   1.0000
     1.0000   1.0000   1.0000   1.0000   1.0000   1.0000   1.0000   1.0000
     1.0000   1.0000   1.0000   1.0000   1.0000   1.0000   1.0000   1.0000
     1.0000   1.0000   1.0000   1.0000   1.0000   1.0000   1.0000   1.0000
     1.0000   1.0000   1.0000   1.0000   1.0000   1.0000   1.0000   1.0000
     1.0000   1.0000   1.0000   1.0000   1.0000   1.0000   1.0000   1.0000
     1.0000   1.0000   1.0000   1.0000   1.0000   1.0000   1.0000   1.0000
     1.0000   1.0000   1.0000   1.0000   1.0000   1.0000   1.0000   1.0000
     1.0000   1.0000   1.0000   1.0000   1.0000   1.0000   1.0000   1.0000
     1.0000   1.0000   1.0000   1.0000   1.0000   1.0000   1.0000   1.0000
     1.0000   0.0000   0.0000   0.0000   0.0000   0.0000   0.0000   0.0000
     0.0000   0.0000   0.0000   0.0000   0.0000   0.0000   0.0000   0.0000
     0.0000   0.0000   0.0000   0.0000   0.0000   0.0000   0.0000   0.0000
     0.0000   0.0000   0.0000   0.0000   0.0000   0.0000   0.0000   0.0000
     0.0000   0.0000   0.0000   0.0000   0.0000   0.0000   0.0000   0.0000
     0.0000   0.0000   0.0000   0.0000   0.0000   0.0000   0.0000   0.0000
     0.0000   0.0000   0.0000   0.0000   0.0000   0.0000   0.0000   0.0000
     0.0000   0.0000   0.0000

     the Fermi energy is     7.4792 ev
     (compare with:     7.6059 eV, computed in scf)

     Writing all to output data dir ./out/Cu_vac_qn1_U3_unrlxd.save/
 
     init_run     :      6.74s CPU      8.18s WALL (       1 calls)
     electrons    :    167.97s CPU    169.54s WALL (       1 calls)

     Called by init_run:
     wfcinit      :      2.07s CPU      3.03s WALL (       1 calls)
     wfcinit:atom :      0.03s CPU      0.03s WALL (       2 calls)
     wfcinit:wfcr :      3.10s CPU      3.19s WALL (       2 calls)
     potinit      :      1.53s CPU      1.77s WALL (       1 calls)
     hinit0       :      0.44s CPU      0.52s WALL (       1 calls)

     Called by electrons:
     c_bands      :    167.75s CPU    169.29s WALL (       1 calls)
     v_of_rho     :      0.28s CPU      0.33s WALL (       1 calls)
     v_h          :      0.01s CPU      0.01s WALL (       1 calls)
     v_xc         :      0.27s CPU      0.33s WALL (       1 calls)
     newd         :      0.07s CPU      0.07s WALL (       1 calls)
     PAW_pot      :      0.65s CPU      0.66s WALL (       1 calls)

     Called by c_bands:
     init_us_2    :      0.11s CPU      0.13s WALL (       4 calls)
     init_us_2:cp :      0.11s CPU      0.13s WALL (       4 calls)
     cegterg      :    142.81s CPU    144.17s WALL (      12 calls)

     Called by sum_band:

     Called by *egterg:
     cdiaghg      :     14.66s CPU     14.75s WALL (     239 calls)
     cegterg:over :     11.40s CPU     11.51s WALL (     237 calls)
     cegterg:upda :     10.89s CPU     10.95s WALL (     237 calls)
     cegterg:last :     19.69s CPU     19.81s WALL (      67 calls)
     cdiaghg:chol :      0.95s CPU      0.95s WALL (     239 calls)
     cdiaghg:inve :      1.38s CPU      1.39s WALL (     239 calls)
     cdiaghg:para :      2.24s CPU      2.25s WALL (     478 calls)
     h_psi        :     73.95s CPU     74.76s WALL (     251 calls)
     s_psi        :     12.99s CPU     13.08s WALL (     253 calls)
     g_psi        :      0.39s CPU      0.39s WALL (     237 calls)

     Called by h_psi:
     h_psi:calbec :     12.38s CPU     12.49s WALL (     251 calls)
     vloc_psi     :     29.90s CPU     30.22s WALL (     251 calls)
     add_vuspsi   :     13.19s CPU     13.30s WALL (     251 calls)
     vhpsi        :     17.91s CPU     18.04s WALL (     251 calls)

     General routines
     calbec       :     14.99s CPU     15.12s WALL (     504 calls)
     fft          :      0.46s CPU      0.59s WALL (      21 calls)
     fftw         :     27.71s CPU     28.01s WALL (   50818 calls)
     davcio       :      0.00s CPU      0.00s WALL (       2 calls)
 
     Parallel routines

     Hubbard U routines
     vhpsi        :     17.91s CPU     18.04s WALL (     251 calls)

     PAW routines
     PAW_pot      :      0.65s CPU      0.66s WALL (       1 calls)
 
     PWSCF        :   3m 8.11s CPU   3m27.29s WALL

 
   This run was terminated on:  17:22:29  18Jul2024            

=------------------------------------------------------------------------------=
   JOB DONE.
=------------------------------------------------------------------------------=
