
     Program PWSCF v.7.2 starts on 29Jun2024 at 19: 2:46 

     This program is part of the open-source Quantum ESPRESSO suite
     for quantum simulation of materials; please cite
         "P. Giannozzi et al., J. Phys.:Condens. Matter 21 395502 (2009);
         "P. Giannozzi et al., J. Phys.:Condens. Matter 29 465901 (2017);
         "P. Giannozzi et al., J. Chem. Phys. 152 154105 (2020);
          URL http://www.quantum-espresso.org", 
     in publications or presentations arising from this work. More details at
     http://www.quantum-espresso.org/quote

     Parallel version (MPI), running on   560 processors

     MPI processes distributed on     5 nodes
     221941 MiB available memory on the printing compute node when the environment starts
 
     Reading input from 2.Cu_vac_in_ZnS.scf.q0.in

     Current dimensions of program PWSCF are:
     Max number of different atomic species (ntypx) = 10
     Max number of k-points (npk) =  40000
     Max angular momentum in pseudopotentials (lmaxx) =  4
     file S.pbe-n-kjpaw_psl.1.0.0.UPF: wavefunction(s)  3S 3P renormalized
     file Zn.pbe-dnl-kjpaw_psl.1.0.0.UPF: wavefunction(s)  4S 3D renormalized
     file Cu.pbe-spn-kjpaw_psl.1.0.0.UPF: wavefunction(s)  4S 3P 3D renormalized
 
     K-points division:     npool     =       5
     R & G space division:  proc/nbgrp/npool/nimage =     112
     Subspace diagonalization in iterative solution of the eigenvalue problem:
     one sub-group per band group will be used
     scalapack distributed-memory algorithm (size of sub-group:  3*  3 procs)

 
     Parallelization info
     --------------------
     sticks:   dense  smooth     PW     G-vecs:    dense   smooth      PW
     Min         180     180     46                19282    19282    2562
     Max         181     181     47                19291    19291    2573
     Sum       20217   20217   5249              2160009  2160009  287777
 
     Using Slab Decomposition
 


     bravais-lattice index     =            1
     lattice parameter (alat)  =      20.5686  a.u.
     unit-cell volume          =    8701.8437 (a.u.)^3
     number of atoms/cell      =           63
     number of atomic types    =            3
     number of electrons       =       577.00
     number of Kohn-Sham states=          347
     kinetic-energy cutoff     =     150.0000  Ry
     charge density cutoff     =     600.0000  Ry
     scf convergence threshold =      1.0E-08
     mixing beta               =       0.7000
     number of iterations used =            8  plain     mixing
     Exchange-correlation= SLA  PW   PBX  PBC
                           (   1   4   3   4   0   0   0)

     celldm(1)=  20.568554  celldm(2)=   0.000000  celldm(3)=   0.000000
     celldm(4)=   0.000000  celldm(5)=   0.000000  celldm(6)=   0.000000

     crystal axes: (cart. coord. in units of alat)
               a(1) = (   1.000000   0.000000   0.000000 )  
               a(2) = (   0.000000   1.000000   0.000000 )  
               a(3) = (   0.000000   0.000000   1.000000 )  

     reciprocal axes: (cart. coord. in units 2 pi/alat)
               b(1) = (  1.000000  0.000000  0.000000 )  
               b(2) = (  0.000000  1.000000  0.000000 )  
               b(3) = (  0.000000  0.000000  1.000000 )  


     PseudoPot. # 1 for S  read from file:
     /arf/home/amuhaymin/pseudo/S.pbe-n-kjpaw_psl.1.0.0.UPF
     MD5 check sum: fb45dfebcf3e72a4e1bd4a866ec2e262
     Pseudo is Projector augmented-wave + core cor, Zval =  6.0
     Generated using &quot;atomic&quot; code by A. Dal Corso  v.6.3
     Shape of augmentation charge: PSQ
     Using radial grid of 1151 points,  6 beta functions with: 
                l(1) =   0
                l(2) =   0
                l(3) =   1
                l(4) =   1
                l(5) =   2
                l(6) =   2
     Q(r) pseudized with 0 coefficients 


     PseudoPot. # 2 for Zn read from file:
     /arf/home/amuhaymin/pseudo/Zn.pbe-dnl-kjpaw_psl.1.0.0.UPF
     MD5 check sum: c608214d9520ac179f507641260889e3
     Pseudo is Projector augmented-wave + core cor, Zval = 12.0
     Generated using &quot;atomic&quot; code by A. Dal Corso  v.6.2.2
     Shape of augmentation charge: PSQ
     Using radial grid of 1201 points,  6 beta functions with: 
                l(1) =   0
                l(2) =   0
                l(3) =   1
                l(4) =   1
                l(5) =   2
                l(6) =   2
     Q(r) pseudized with 0 coefficients 


     PseudoPot. # 3 for Cu read from file:
     /arf/home/amuhaymin/pseudo/Cu.pbe-spn-kjpaw_psl.1.0.0.UPF
     MD5 check sum: e7cbaad2f97193e5fe23251a619a52b0
     Pseudo is Projector augmented-wave + core cor, Zval = 19.0
     Generated using &quot;atomic&quot; code by A. Dal Corso  v.6.3
     Shape of augmentation charge: PSQ
     Using radial grid of 1199 points,  6 beta functions with: 
                l(1) =   0
                l(2) =   0
                l(3) =   1
                l(4) =   1
                l(5) =   2
                l(6) =   2
     Q(r) pseudized with 0 coefficients 


     atomic species   valence    mass     pseudopotential
        S              6.00    32.06500     S ( 1.00)
        Zn            12.00    65.38000     Zn( 1.00)
        Cu            19.00    63.54600     Cu( 1.00)

     Starting magnetic structure 
     atomic species   magnetization
        S            0.000
        Zn           0.000
        Cu           0.053

      6 Sym. Ops. (no inversion) found


                                    s                        frac. trans.

      isym =  1     identity                                     

 cryst.   s( 1) = (     1          0          0      )
                  (     0          1          0      )
                  (     0          0          1      )

 cart.    s( 1) = (  1.0000000  0.0000000  0.0000000 )
                  (  0.0000000  1.0000000  0.0000000 )
                  (  0.0000000  0.0000000  1.0000000 )


      isym =  2     120 deg rotation - cart. axis [-1,-1,-1]     

 cryst.   s( 2) = (     0          0          1      )
                  (     1          0          0      )
                  (     0          1          0      )

 cart.    s( 2) = (  0.0000000  1.0000000  0.0000000 )
                  (  0.0000000  0.0000000  1.0000000 )
                  (  1.0000000  0.0000000  0.0000000 )


      isym =  3     120 deg rotation - cart. axis [1,1,1]        

 cryst.   s( 3) = (     0          1          0      )
                  (     0          0          1      )
                  (     1          0          0      )

 cart.    s( 3) = (  0.0000000  0.0000000  1.0000000 )
                  (  1.0000000  0.0000000  0.0000000 )
                  (  0.0000000  1.0000000  0.0000000 )


      isym =  4     inv. 180 deg rotation - cart. axis [1,-1,0]  

 cryst.   s( 4) = (     0          1          0      )
                  (     1          0          0      )
                  (     0          0          1      )

 cart.    s( 4) = (  0.0000000  1.0000000  0.0000000 )
                  (  1.0000000  0.0000000  0.0000000 )
                  (  0.0000000  0.0000000  1.0000000 )


      isym =  5     inv. 180 deg rotation - cart. axis [-1,0,1]  

 cryst.   s( 5) = (     0          0          1      )
                  (     0          1          0      )
                  (     1          0          0      )

 cart.    s( 5) = (  0.0000000  0.0000000  1.0000000 )
                  (  0.0000000  1.0000000  0.0000000 )
                  (  1.0000000  0.0000000  0.0000000 )


      isym =  6     inv. 180 deg rotation - cart. axis [0,1,-1]  

 cryst.   s( 6) = (     1          0          0      )
                  (     0          0          1      )
                  (     0          1          0      )

 cart.    s( 6) = (  1.0000000  0.0000000  0.0000000 )
                  (  0.0000000  0.0000000  1.0000000 )
                  (  0.0000000  1.0000000  0.0000000 )


     point group C_3v (3m)  
     there are  3 classes
     the character table:

       E     2C3   3s_v 
A_1    1.00  1.00  1.00
A_2    1.00  1.00 -1.00
E      2.00 -1.00  0.00

     the symmetry operations in each class and the name of the first element:

     E        1
          identity                                               
     2C3      2    3
          120 deg rotation - cart. axis [-1,-1,-1]               
     3s_v     4    5    6
          inv. 180 deg rotation - cart. axis [1,-1,0]            

   Cartesian axes

     site n.     atom                  positions (alat units)
         1           Zn  tau(   1) = (   0.0004603   0.0004603   0.0004603  )
         2           Zn  tau(   2) = (   0.0002282   0.2503947   0.2503947  )
         3           Zn  tau(   3) = (   0.2503947   0.0002282   0.2503947  )
         4           Zn  tau(   4) = (   0.2503947   0.2503947   0.0002282  )
         5           S   tau(   5) = (   0.1252282   0.3751681   0.3751681  )
         6           S   tau(   6) = (   0.1252756   0.1252756   0.1252756  )
         7           S   tau(   7) = (   0.3751681   0.3751681   0.1252282  )
         8           S   tau(   8) = (   0.3751681   0.1252282   0.3751681  )
         9           Zn  tau(   9) = (   0.0007791   0.0007791   0.4997672  )
        10           Zn  tau(  10) = (   0.0003013   0.2508569   0.7500665  )
        11           Zn  tau(  11) = (   0.2508569   0.0003013   0.7500665  )
        12           Zn  tau(  12) = (   0.2517310   0.2517310   0.5020267  )
        13           S   tau(  13) = (   0.1249874   0.3755778   0.8752336  )
        14           S   tau(  14) = (   0.1250440   0.1250440   0.6253612  )
        15           S   tau(  15) = (   0.3760111   0.3760111   0.6255731  )
        16           S   tau(  16) = (   0.3755778   0.1249874   0.8752336  )
        17           Zn  tau(  17) = (   0.0007791   0.4997672   0.0007791  )
        18           Zn  tau(  18) = (   0.0003013   0.7500665   0.2508569  )
        19           Zn  tau(  19) = (   0.2517310   0.5020267   0.2517310  )
        20           Zn  tau(  20) = (   0.2508569   0.7500665   0.0003013  )
        21           S   tau(  21) = (   0.1249874   0.8752336   0.3755778  )
        22           S   tau(  22) = (   0.1250440   0.6253612   0.1250440  )
        23           S   tau(  23) = (   0.3755778   0.8752336   0.1249874  )
        24           S   tau(  24) = (   0.3760111   0.6255731   0.3760111  )
        25           Zn  tau(  25) = (   0.0012044   0.5001362   0.5001362  )
        26           Zn  tau(  26) = (   0.0022364   0.7499627   0.7499627  )
        27           Zn  tau(  27) = (   0.2508680   0.4980781   0.7477441  )
        28           Zn  tau(  28) = (   0.2508680   0.7477441   0.4980781  )
        29           S   tau(  29) = (   0.1258189   0.8752482   0.8752482  )
        30           S   tau(  30) = (   0.1253832   0.6250986   0.6250986  )
        31           S   tau(  31) = (   0.3763850   0.8735734   0.6241307  )
        32           S   tau(  32) = (   0.3763850   0.6241307   0.8735734  )
        33           Zn  tau(  33) = (   0.4997672   0.0007791   0.0007791  )
        34           Zn  tau(  34) = (   0.5020267   0.2517310   0.2517310  )
        35           Zn  tau(  35) = (   0.7500665   0.0003013   0.2508569  )
        36           Zn  tau(  36) = (   0.7500665   0.2508569   0.0003013  )
        37           S   tau(  37) = (   0.6255731   0.3760111   0.3760111  )
        38           S   tau(  38) = (   0.6253612   0.1250440   0.1250440  )
        39           S   tau(  39) = (   0.8752336   0.3755778   0.1249874  )
        40           S   tau(  40) = (   0.8752336   0.1249874   0.3755778  )
        41           Zn  tau(  41) = (   0.5001362   0.0012044   0.5001362  )
        42           Zn  tau(  42) = (   0.4980781   0.2508680   0.7477441  )
        43           Zn  tau(  43) = (   0.7499627   0.0022364   0.7499627  )
        44           Zn  tau(  44) = (   0.7477441   0.2508680   0.4980781  )
        45           S   tau(  45) = (   0.6241307   0.3763850   0.8735734  )
        46           S   tau(  46) = (   0.6250986   0.1253832   0.6250986  )
        47           S   tau(  47) = (   0.8735734   0.3763850   0.6241307  )
        48           S   tau(  48) = (   0.8752482   0.1258189   0.8752482  )
        49           Zn  tau(  49) = (   0.5001362   0.5001362   0.0012044  )
        50           Zn  tau(  50) = (   0.4980781   0.7477441   0.2508680  )
        51           Zn  tau(  51) = (   0.7477441   0.4980781   0.2508680  )
        52           Zn  tau(  52) = (   0.7499627   0.7499627   0.0022364  )
        53           S   tau(  53) = (   0.6241307   0.8735734   0.3763850  )
        54           S   tau(  54) = (   0.6250986   0.6250986   0.1253832  )
        55           S   tau(  55) = (   0.8752482   0.8752482   0.1258189  )
        56           S   tau(  56) = (   0.8735734   0.6241307   0.3763850  )
        57           Cu  tau(  57) = (   0.4745337   0.4745337   0.4745337  )
        58           Zn  tau(  58) = (   0.4974591   0.7556402   0.7556402  )
        59           Zn  tau(  59) = (   0.7556402   0.4974591   0.7556402  )
        60           Zn  tau(  60) = (   0.7556402   0.7556402   0.4974591  )
        61           S   tau(  61) = (   0.6272504   0.8755799   0.8755799  )
        62           S   tau(  62) = (   0.8755799   0.8755799   0.6272504  )
        63           S   tau(  63) = (   0.8755799   0.6272504   0.8755799  )

   Crystallographic axes

     site n.     atom                  positions (cryst. coord.)
         1           Zn  tau(   1) = (  0.0004603  0.0004603  0.0004603  )
         2           Zn  tau(   2) = (  0.0002282  0.2503947  0.2503947  )
         3           Zn  tau(   3) = (  0.2503947  0.0002282  0.2503947  )
         4           Zn  tau(   4) = (  0.2503947  0.2503947  0.0002282  )
         5           S   tau(   5) = (  0.1252282  0.3751681  0.3751681  )
         6           S   tau(   6) = (  0.1252756  0.1252756  0.1252756  )
         7           S   tau(   7) = (  0.3751681  0.3751681  0.1252282  )
         8           S   tau(   8) = (  0.3751681  0.1252282  0.3751681  )
         9           Zn  tau(   9) = (  0.0007791  0.0007791  0.4997672  )
        10           Zn  tau(  10) = (  0.0003013  0.2508569  0.7500665  )
        11           Zn  tau(  11) = (  0.2508569  0.0003013  0.7500665  )
        12           Zn  tau(  12) = (  0.2517310  0.2517310  0.5020267  )
        13           S   tau(  13) = (  0.1249874  0.3755778  0.8752336  )
        14           S   tau(  14) = (  0.1250440  0.1250440  0.6253612  )
        15           S   tau(  15) = (  0.3760111  0.3760111  0.6255731  )
        16           S   tau(  16) = (  0.3755778  0.1249874  0.8752336  )
        17           Zn  tau(  17) = (  0.0007791  0.4997672  0.0007791  )
        18           Zn  tau(  18) = (  0.0003013  0.7500665  0.2508569  )
        19           Zn  tau(  19) = (  0.2517310  0.5020267  0.2517310  )
        20           Zn  tau(  20) = (  0.2508569  0.7500665  0.0003013  )
        21           S   tau(  21) = (  0.1249874  0.8752336  0.3755778  )
        22           S   tau(  22) = (  0.1250440  0.6253612  0.1250440  )
        23           S   tau(  23) = (  0.3755778  0.8752336  0.1249874  )
        24           S   tau(  24) = (  0.3760111  0.6255731  0.3760111  )
        25           Zn  tau(  25) = (  0.0012044  0.5001362  0.5001362  )
        26           Zn  tau(  26) = (  0.0022364  0.7499627  0.7499627  )
        27           Zn  tau(  27) = (  0.2508680  0.4980781  0.7477441  )
        28           Zn  tau(  28) = (  0.2508680  0.7477441  0.4980781  )
        29           S   tau(  29) = (  0.1258189  0.8752482  0.8752482  )
        30           S   tau(  30) = (  0.1253832  0.6250986  0.6250986  )
        31           S   tau(  31) = (  0.3763850  0.8735734  0.6241307  )
        32           S   tau(  32) = (  0.3763850  0.6241307  0.8735734  )
        33           Zn  tau(  33) = (  0.4997672  0.0007791  0.0007791  )
        34           Zn  tau(  34) = (  0.5020267  0.2517310  0.2517310  )
        35           Zn  tau(  35) = (  0.7500665  0.0003013  0.2508569  )
        36           Zn  tau(  36) = (  0.7500665  0.2508569  0.0003013  )
        37           S   tau(  37) = (  0.6255731  0.3760111  0.3760111  )
        38           S   tau(  38) = (  0.6253612  0.1250440  0.1250440  )
        39           S   tau(  39) = (  0.8752336  0.3755778  0.1249874  )
        40           S   tau(  40) = (  0.8752336  0.1249874  0.3755778  )
        41           Zn  tau(  41) = (  0.5001362  0.0012044  0.5001362  )
        42           Zn  tau(  42) = (  0.4980781  0.2508680  0.7477441  )
        43           Zn  tau(  43) = (  0.7499627  0.0022364  0.7499627  )
        44           Zn  tau(  44) = (  0.7477441  0.2508680  0.4980781  )
        45           S   tau(  45) = (  0.6241307  0.3763850  0.8735734  )
        46           S   tau(  46) = (  0.6250986  0.1253832  0.6250986  )
        47           S   tau(  47) = (  0.8735734  0.3763850  0.6241307  )
        48           S   tau(  48) = (  0.8752482  0.1258189  0.8752482  )
        49           Zn  tau(  49) = (  0.5001362  0.5001362  0.0012044  )
        50           Zn  tau(  50) = (  0.4980781  0.7477441  0.2508680  )
        51           Zn  tau(  51) = (  0.7477441  0.4980781  0.2508680  )
        52           Zn  tau(  52) = (  0.7499627  0.7499627  0.0022364  )
        53           S   tau(  53) = (  0.6241307  0.8735734  0.3763850  )
        54           S   tau(  54) = (  0.6250986  0.6250986  0.1253832  )
        55           S   tau(  55) = (  0.8752482  0.8752482  0.1258189  )
        56           S   tau(  56) = (  0.8735734  0.6241307  0.3763850  )
        57           Cu  tau(  57) = (  0.4745337  0.4745337  0.4745337  )
        58           Zn  tau(  58) = (  0.4974591  0.7556402  0.7556402  )
        59           Zn  tau(  59) = (  0.7556402  0.4974591  0.7556402  )
        60           Zn  tau(  60) = (  0.7556402  0.7556402  0.4974591  )
        61           S   tau(  61) = (  0.6272504  0.8755799  0.8755799  )
        62           S   tau(  62) = (  0.8755799  0.8755799  0.6272504  )
        63           S   tau(  63) = (  0.8755799  0.6272504  0.8755799  )

     number of k points=    13  Gaussian smearing, width (Ry)=  0.0010
                       cart. coord. in units 2pi/alat
        k(    1) = (   0.0000000   0.0000000   0.0000000), wk =   0.0156250
        k(    2) = (   0.0000000   0.0000000   0.2500000), wk =   0.0937500
        k(    3) = (   0.0000000   0.0000000  -0.5000000), wk =   0.0468750
        k(    4) = (   0.0000000   0.2500000   0.2500000), wk =   0.0937500
        k(    5) = (   0.0000000   0.2500000  -0.5000000), wk =   0.1875000
        k(    6) = (   0.0000000  -0.5000000  -0.5000000), wk =   0.0468750
        k(    7) = (   0.2500000   0.2500000   0.2500000), wk =   0.0312500
        k(    8) = (   0.2500000   0.2500000  -0.5000000), wk =   0.0937500
        k(    9) = (   0.2500000  -0.5000000  -0.5000000), wk =   0.0937500
        k(   10) = (  -0.5000000  -0.5000000  -0.5000000), wk =   0.0156250
        k(   11) = (  -0.2500000   0.0000000   0.2500000), wk =   0.0937500
        k(   12) = (   0.2500000  -0.2500000   0.2500000), wk =   0.0937500
        k(   13) = (   0.2500000  -0.2500000  -0.5000000), wk =   0.0937500

                       cryst. coord.
        k(    1) = (   0.0000000   0.0000000   0.0000000), wk =   0.0156250
        k(    2) = (   0.0000000   0.0000000   0.2500000), wk =   0.0937500
        k(    3) = (   0.0000000   0.0000000  -0.5000000), wk =   0.0468750
        k(    4) = (   0.0000000   0.2500000   0.2500000), wk =   0.0937500
        k(    5) = (   0.0000000   0.2500000  -0.5000000), wk =   0.1875000
        k(    6) = (   0.0000000  -0.5000000  -0.5000000), wk =   0.0468750
        k(    7) = (   0.2500000   0.2500000   0.2500000), wk =   0.0312500
        k(    8) = (   0.2500000   0.2500000  -0.5000000), wk =   0.0937500
        k(    9) = (   0.2500000  -0.5000000  -0.5000000), wk =   0.0937500
        k(   10) = (  -0.5000000  -0.5000000  -0.5000000), wk =   0.0156250
        k(   11) = (  -0.2500000   0.0000000   0.2500000), wk =   0.0937500
        k(   12) = (   0.2500000  -0.2500000   0.2500000), wk =   0.0937500
        k(   13) = (   0.2500000  -0.2500000  -0.5000000), wk =   0.0937500

     Dense  grid:  2160009 G-vectors     FFT dimensions: ( 162, 162, 162)

     Dynamical RAM for                 wfc:      12.76 MB

     Dynamical RAM for     wfc (w. buffer):      89.32 MB

     Dynamical RAM for           str. fact:       0.88 MB

     Dynamical RAM for           local pot:       0.00 MB

     Dynamical RAM for          nlocal pot:      41.70 MB

     Dynamical RAM for                qrad:       5.90 MB

     Dynamical RAM for          rho,v,vnew:       4.17 MB

     Dynamical RAM for               rhoin:       1.39 MB

     Dynamical RAM for            rho*nmix:       9.42 MB

     Dynamical RAM for           G-vectors:       1.25 MB

     Dynamical RAM for          h,s,v(r/c):       2.44 MB

     Dynamical RAM for          <psi|beta>:       6.00 MB

     Dynamical RAM for                 psi:      25.52 MB

     Dynamical RAM for                hpsi:      25.52 MB

     Dynamical RAM for                spsi:      25.52 MB

     Dynamical RAM for      wfcinit/wfcrot:      34.28 MB

     Dynamical RAM for           addusdens:      13.30 MB

     Estimated static dynamical RAM per process >     148.19 MB

     Estimated max dynamical RAM per process >     242.62 MB

     Estimated total dynamical RAM >     128.56 GB
     Generating pointlists ...
     new r_m :   0.0848 (alat units)  1.7435 (a.u.) for type    1
     new r_m :   0.0880 (alat units)  1.8096 (a.u.) for type    2
     new r_m :   0.0848 (alat units)  1.7435 (a.u.) for type    3

     Initial potential from superposition of free atoms

     starting charge     576.8832, renormalised to     577.0000
     Starting wfcs are  413 randomized atomic wfcs
     Checking if some PAW data can be deallocated... 
       PAW data deallocated on  284 nodes for type:  1
       PAW data deallocated on  284 nodes for type:  2
       PAW data deallocated on  552 nodes for type:  3

     total cpu time spent up to now is       24.6 secs

     Self-consistent Calculation

     iteration #  1     ecut=   150.00 Ry     beta= 0.70
     Davidson diagonalization with overlap

---- Real-time Memory Report at c_bands before calling an iterative solver
          1355 MiB given to the printing process from OS
             0 MiB allocation reported by mallinfo(arena+hblkhd)
        191594 MiB available memory on the node where the printing process lives
------------------
     ethr =  1.00E-02,  avg # of iterations =  4.4

     Threshold (ethr) on eigenvalues was too large:
     Diagonalizing with lowered threshold

     Davidson diagonalization with overlap

---- Real-time Memory Report at c_bands before calling an iterative solver
          1464 MiB given to the printing process from OS
             0 MiB allocation reported by mallinfo(arena+hblkhd)
        188456 MiB available memory on the node where the printing process lives
------------------
     ethr =  4.20E-04,  avg # of iterations =  3.1

     total cpu time spent up to now is       80.4 secs

     total energy              =  -10099.86374131 Ry
     estimated scf accuracy    <       2.45881291 Ry

     total magnetization       =     0.34 Bohr mag/cell
     absolute magnetization    =     0.65 Bohr mag/cell

     iteration #  2     ecut=   150.00 Ry     beta= 0.70
     Davidson diagonalization with overlap

---- Real-time Memory Report at c_bands before calling an iterative solver
          1483 MiB given to the printing process from OS
             0 MiB allocation reported by mallinfo(arena+hblkhd)
        188347 MiB available memory on the node where the printing process lives
------------------
     ethr =  4.26E-04,  avg # of iterations =  4.2

     total cpu time spent up to now is      113.0 secs

     total energy              =  -10100.11492386 Ry
     estimated scf accuracy    <       3.95026424 Ry

     total magnetization       =     0.45 Bohr mag/cell
     absolute magnetization    =     0.47 Bohr mag/cell

     iteration #  3     ecut=   150.00 Ry     beta= 0.70
     Davidson diagonalization with overlap

---- Real-time Memory Report at c_bands before calling an iterative solver
          1516 MiB given to the printing process from OS
             0 MiB allocation reported by mallinfo(arena+hblkhd)
        187830 MiB available memory on the node where the printing process lives
------------------
     ethr =  4.26E-04,  avg # of iterations =  4.8

     total cpu time spent up to now is      138.9 secs

     total energy              =  -10100.42347564 Ry
     estimated scf accuracy    <       1.90511575 Ry

     total magnetization       =     1.00 Bohr mag/cell
     absolute magnetization    =     1.06 Bohr mag/cell

     iteration #  4     ecut=   150.00 Ry     beta= 0.70
     Davidson diagonalization with overlap

---- Real-time Memory Report at c_bands before calling an iterative solver
          1529 MiB given to the printing process from OS
             0 MiB allocation reported by mallinfo(arena+hblkhd)
        187597 MiB available memory on the node where the printing process lives
------------------
     ethr =  3.30E-04,  avg # of iterations =  3.0

     total cpu time spent up to now is      161.8 secs

     total energy              =  -10100.91439234 Ry
     estimated scf accuracy    <       0.45926615 Ry

     total magnetization       =     0.36 Bohr mag/cell
     absolute magnetization    =     0.42 Bohr mag/cell

     iteration #  5     ecut=   150.00 Ry     beta= 0.70
     Davidson diagonalization with overlap

---- Real-time Memory Report at c_bands before calling an iterative solver
          1538 MiB given to the printing process from OS
             0 MiB allocation reported by mallinfo(arena+hblkhd)
        187441 MiB available memory on the node where the printing process lives
------------------
     ethr =  7.96E-05,  avg # of iterations =  6.7

     total cpu time spent up to now is      190.8 secs

     total energy              =  -10100.90459768 Ry
     estimated scf accuracy    <       0.22037160 Ry

     total magnetization       =     0.73 Bohr mag/cell
     absolute magnetization    =     0.77 Bohr mag/cell

     iteration #  6     ecut=   150.00 Ry     beta= 0.70
     Davidson diagonalization with overlap

---- Real-time Memory Report at c_bands before calling an iterative solver
          1553 MiB given to the printing process from OS
             0 MiB allocation reported by mallinfo(arena+hblkhd)
        187222 MiB available memory on the node where the printing process lives
------------------
     c_bands:  1 eigenvalues not converged
     c_bands:  4 eigenvalues not converged
     ethr =  3.82E-05,  avg # of iterations = 12.1

     total cpu time spent up to now is      224.1 secs

     total energy              =  -10100.91293125 Ry
     estimated scf accuracy    <       0.05143519 Ry

     total magnetization       =     0.88 Bohr mag/cell
     absolute magnetization    =     0.91 Bohr mag/cell

     iteration #  7     ecut=   150.00 Ry     beta= 0.70
     Davidson diagonalization with overlap

---- Real-time Memory Report at c_bands before calling an iterative solver
          1570 MiB given to the printing process from OS
             0 MiB allocation reported by mallinfo(arena+hblkhd)
        187018 MiB available memory on the node where the printing process lives
------------------
     ethr =  8.91E-06,  avg # of iterations = 17.7

     total cpu time spent up to now is      260.8 secs

     total energy              =  -10100.91770989 Ry
     estimated scf accuracy    <       0.00807314 Ry

     total magnetization       =     0.97 Bohr mag/cell
     absolute magnetization    =     1.01 Bohr mag/cell

     iteration #  8     ecut=   150.00 Ry     beta= 0.70
     Davidson diagonalization with overlap

---- Real-time Memory Report at c_bands before calling an iterative solver
          1590 MiB given to the printing process from OS
             0 MiB allocation reported by mallinfo(arena+hblkhd)
        186767 MiB available memory on the node where the printing process lives
------------------
     ethr =  1.40E-06,  avg # of iterations =  8.9

     total cpu time spent up to now is      294.2 secs

     total energy              =  -10100.91865815 Ry
     estimated scf accuracy    <       0.00133288 Ry

     total magnetization       =     0.97 Bohr mag/cell
     absolute magnetization    =     1.02 Bohr mag/cell

     iteration #  9     ecut=   150.00 Ry     beta= 0.70
     Davidson diagonalization with overlap

---- Real-time Memory Report at c_bands before calling an iterative solver
          1602 MiB given to the printing process from OS
             0 MiB allocation reported by mallinfo(arena+hblkhd)
        186606 MiB available memory on the node where the printing process lives
------------------
     ethr =  2.31E-07,  avg # of iterations =  4.5

     total cpu time spent up to now is      320.7 secs

     total energy              =  -10100.91897679 Ry
     estimated scf accuracy    <       0.00018248 Ry

     total magnetization       =     1.00 Bohr mag/cell
     absolute magnetization    =     1.05 Bohr mag/cell

     iteration # 10     ecut=   150.00 Ry     beta= 0.70
     Davidson diagonalization with overlap

---- Real-time Memory Report at c_bands before calling an iterative solver
          1610 MiB given to the printing process from OS
             0 MiB allocation reported by mallinfo(arena+hblkhd)
        186366 MiB available memory on the node where the printing process lives
------------------
     ethr =  3.16E-08,  avg # of iterations =  4.5

     total cpu time spent up to now is      349.4 secs

     total energy              =  -10100.91902209 Ry
     estimated scf accuracy    <       0.00010468 Ry

     total magnetization       =     1.00 Bohr mag/cell
     absolute magnetization    =     1.06 Bohr mag/cell

     iteration # 11     ecut=   150.00 Ry     beta= 0.70
     Davidson diagonalization with overlap

---- Real-time Memory Report at c_bands before calling an iterative solver
          1617 MiB given to the printing process from OS
             0 MiB allocation reported by mallinfo(arena+hblkhd)
        186195 MiB available memory on the node where the printing process lives
------------------
     ethr =  1.81E-08,  avg # of iterations =  2.0

     total cpu time spent up to now is      371.7 secs

     total energy              =  -10100.91903199 Ry
     estimated scf accuracy    <       0.00002551 Ry

     total magnetization       =     1.00 Bohr mag/cell
     absolute magnetization    =     1.06 Bohr mag/cell

     iteration # 12     ecut=   150.00 Ry     beta= 0.70
     Davidson diagonalization with overlap

---- Real-time Memory Report at c_bands before calling an iterative solver
          1621 MiB given to the printing process from OS
             0 MiB allocation reported by mallinfo(arena+hblkhd)
        186202 MiB available memory on the node where the printing process lives
------------------
     ethr =  4.42E-09,  avg # of iterations =  3.6

     total cpu time spent up to now is      395.9 secs

     total energy              =  -10100.91903707 Ry
     estimated scf accuracy    <       0.00000198 Ry

     total magnetization       =     1.00 Bohr mag/cell
     absolute magnetization    =     1.06 Bohr mag/cell

     iteration # 13     ecut=   150.00 Ry     beta= 0.70
     Davidson diagonalization with overlap

---- Real-time Memory Report at c_bands before calling an iterative solver
          1626 MiB given to the printing process from OS
             0 MiB allocation reported by mallinfo(arena+hblkhd)
        186206 MiB available memory on the node where the printing process lives
------------------
     ethr =  3.43E-10,  avg # of iterations =  4.4

     total cpu time spent up to now is      427.6 secs

     total energy              =  -10100.91903778 Ry
     estimated scf accuracy    <       0.00000028 Ry

     total magnetization       =     1.00 Bohr mag/cell
     absolute magnetization    =     1.06 Bohr mag/cell

     iteration # 14     ecut=   150.00 Ry     beta= 0.70
     Davidson diagonalization with overlap

---- Real-time Memory Report at c_bands before calling an iterative solver
          1636 MiB given to the printing process from OS
             0 MiB allocation reported by mallinfo(arena+hblkhd)
        186199 MiB available memory on the node where the printing process lives
------------------
     ethr =  4.78E-11,  avg # of iterations =  4.0

     total cpu time spent up to now is      452.6 secs

     total energy              =  -10100.91903785 Ry
     estimated scf accuracy    <       0.00000004 Ry

     total magnetization       =     1.00 Bohr mag/cell
     absolute magnetization    =     1.06 Bohr mag/cell

     iteration # 15     ecut=   150.00 Ry     beta= 0.70
     Davidson diagonalization with overlap

---- Real-time Memory Report at c_bands before calling an iterative solver
          1641 MiB given to the printing process from OS
             0 MiB allocation reported by mallinfo(arena+hblkhd)
        186158 MiB available memory on the node where the printing process lives
------------------
     ethr =  7.31E-12,  avg # of iterations =  4.0

     total cpu time spent up to now is      479.9 secs

     total energy              =  -10100.91903787 Ry
     estimated scf accuracy    <       0.00000001 Ry

     total magnetization       =     1.00 Bohr mag/cell
     absolute magnetization    =     1.06 Bohr mag/cell

     iteration # 16     ecut=   150.00 Ry     beta= 0.70
     Davidson diagonalization with overlap

---- Real-time Memory Report at c_bands before calling an iterative solver
          1645 MiB given to the printing process from OS
             0 MiB allocation reported by mallinfo(arena+hblkhd)
        186118 MiB available memory on the node where the printing process lives
------------------
     ethr =  1.74E-12,  avg # of iterations =  3.9
 
     Magnetic moment per site  (integrated on atomic sphere of radius R)
     atom   1 (R=0.088)  charge= 10.0940  magn=  0.0003
     atom   2 (R=0.088)  charge= 10.0948  magn=  0.0002
     atom   3 (R=0.088)  charge= 10.0948  magn=  0.0002
     atom   4 (R=0.088)  charge= 10.0948  magn=  0.0002
     atom   5 (R=0.085)  charge=  3.6331  magn=  0.0006
     atom   6 (R=0.085)  charge=  3.6351  magn=  0.0004
     atom   7 (R=0.085)  charge=  3.6331  magn=  0.0006
     atom   8 (R=0.085)  charge=  3.6331  magn=  0.0006
     atom   9 (R=0.088)  charge= 10.0970  magn=  0.0028
     atom  10 (R=0.088)  charge= 10.0929  magn=  0.0023
     atom  11 (R=0.088)  charge= 10.0929  magn=  0.0023
     atom  12 (R=0.088)  charge= 10.0943  magn=  0.0010
     atom  13 (R=0.085)  charge=  3.6353  magn=  0.0007
     atom  14 (R=0.085)  charge=  3.6332  magn=  0.0070
     atom  15 (R=0.085)  charge=  3.6478  magn=  0.0030
     atom  16 (R=0.085)  charge=  3.6353  magn=  0.0007
     atom  17 (R=0.088)  charge= 10.0970  magn=  0.0028
     atom  18 (R=0.088)  charge= 10.0929  magn=  0.0023
     atom  19 (R=0.088)  charge= 10.0943  magn=  0.0010
     atom  20 (R=0.088)  charge= 10.0929  magn=  0.0023
     atom  21 (R=0.085)  charge=  3.6353  magn=  0.0007
     atom  22 (R=0.085)  charge=  3.6332  magn=  0.0070
     atom  23 (R=0.085)  charge=  3.6353  magn=  0.0007
     atom  24 (R=0.085)  charge=  3.6478  magn=  0.0030
     atom  25 (R=0.088)  charge= 10.0972  magn= -0.0001
     atom  26 (R=0.088)  charge= 10.0987  magn= -0.0001
     atom  27 (R=0.088)  charge= 10.0994  magn=  0.0000
     atom  28 (R=0.088)  charge= 10.0994  magn=  0.0000
     atom  29 (R=0.085)  charge=  3.6349  magn=  0.0010
     atom  30 (R=0.085)  charge=  3.6373  magn= -0.0000
     atom  31 (R=0.085)  charge=  3.6304  magn=  0.0112
     atom  32 (R=0.085)  charge=  3.6304  magn=  0.0112
     atom  33 (R=0.088)  charge= 10.0970  magn=  0.0028
     atom  34 (R=0.088)  charge= 10.0943  magn=  0.0010
     atom  35 (R=0.088)  charge= 10.0929  magn=  0.0023
     atom  36 (R=0.088)  charge= 10.0929  magn=  0.0023
     atom  37 (R=0.085)  charge=  3.6478  magn=  0.0030
     atom  38 (R=0.085)  charge=  3.6332  magn=  0.0070
     atom  39 (R=0.085)  charge=  3.6353  magn=  0.0007
     atom  40 (R=0.085)  charge=  3.6353  magn=  0.0007
     atom  41 (R=0.088)  charge= 10.0972  magn= -0.0001
     atom  42 (R=0.088)  charge= 10.0994  magn=  0.0000
     atom  43 (R=0.088)  charge= 10.0987  magn= -0.0001
     atom  44 (R=0.088)  charge= 10.0994  magn=  0.0000
     atom  45 (R=0.085)  charge=  3.6304  magn=  0.0112
     atom  46 (R=0.085)  charge=  3.6373  magn= -0.0000
     atom  47 (R=0.085)  charge=  3.6304  magn=  0.0112
     atom  48 (R=0.085)  charge=  3.6349  magn=  0.0010
     atom  49 (R=0.088)  charge= 10.0972  magn= -0.0001
     atom  50 (R=0.088)  charge= 10.0994  magn=  0.0000
     atom  51 (R=0.088)  charge= 10.0994  magn=  0.0000
     atom  52 (R=0.088)  charge= 10.0987  magn= -0.0001
     atom  53 (R=0.085)  charge=  3.6304  magn=  0.0112
     atom  54 (R=0.085)  charge=  3.6373  magn= -0.0000
     atom  55 (R=0.085)  charge=  3.6349  magn=  0.0010
     atom  56 (R=0.085)  charge=  3.6304  magn=  0.0112
     atom  57 (R=0.085)  charge= 17.1897  magn=  0.0112
     atom  58 (R=0.088)  charge= 10.0775  magn=  0.0329
     atom  59 (R=0.088)  charge= 10.0775  magn=  0.0329
     atom  60 (R=0.088)  charge= 10.0775  magn=  0.0329
     atom  61 (R=0.085)  charge=  3.6343  magn=  0.0170
     atom  62 (R=0.085)  charge=  3.6343  magn=  0.0170
     atom  63 (R=0.085)  charge=  3.6343  magn=  0.0170

     total cpu time spent up to now is      508.4 secs

     End of self-consistent calculation

 ------ SPIN UP ------------


          k = 0.0000 0.0000 0.0000 (269825 PWs)   bands (ev):

  -104.9136 -62.3445 -62.2999 -62.2999  -7.6076  -7.1115  -7.1115  -7.0873
    -7.0809  -7.0809  -7.0117  -6.8295  -6.8295  -6.8128  -6.7839  -6.7839
    -6.7803  -6.7572  -6.7572  -6.7437  -6.7437  -6.7343  -6.7313  -6.6842
    -6.6842  -6.6752  -6.5204  -6.4887  -6.4887  -6.4512  -6.4216  -6.4188
    -6.4188  -6.3495  -6.3495  -0.9208  -0.9208  -0.9208  -0.9010  -0.8833
    -0.8833  -0.8643  -0.8643  -0.8507  -0.8477  -0.8477  -0.8432  -0.8296
    -0.8114  -0.8114  -0.7791  -0.7791  -0.7675  -0.7633  -0.7523  -0.7523
    -0.7437  -0.7437  -0.7409  -0.7321  -0.7321  -0.7262  -0.7238  -0.7238
    -0.7201  -0.7201  -0.7180  -0.7180  -0.7168  -0.7066  -0.7066  -0.7061
    -0.7009  -0.7009  -0.6996  -0.6976  -0.6947  -0.6921  -0.6921  -0.6873
    -0.6801  -0.6773  -0.6768  -0.6768  -0.6720  -0.6720  -0.6657  -0.6657
    -0.6600  -0.6480  -0.6423  -0.6423  -0.6354  -0.6237  -0.6237  -0.5965
    -0.5965  -0.5936  -0.5919  -0.5699  -0.5699  -0.5665  -0.5611  -0.5611
    -0.5589  -0.5442  -0.5442  -0.5379  -0.5379  -0.5226  -0.5226  -0.5204
    -0.5125  -0.5125  -0.5109  -0.5027  -0.4923  -0.4923  -0.4809  -0.4809
    -0.4793  -0.4722  -0.4670  -0.4670  -0.4376  -0.4144  -0.4144  -0.4077
    -0.4077  -0.4056  -0.4024  -0.4014  -0.4014  -0.3987  -0.3987  -0.3915
    -0.3863  -0.3837  -0.3837  -0.3780  -0.3766  -0.3766  -0.3655  -0.3613
    -0.3613  -0.3582  -0.3474  -0.3474  -0.3433  -0.3424  -0.3424  -0.3384
    -0.3325  -0.3325  -0.3204  -0.3204  -0.3141  -0.3131  -0.3131  -0.3118
    -0.3118  -0.3101  -0.2909  -0.2909  -0.2828  -0.2805  -0.2800  -0.2800
    -0.2735  -0.2602  -0.2602  -0.2557  -0.2528  -0.2528  -0.2397  -0.2397
    -0.2336  -0.2331  -0.1666  -0.1666  -0.1560  -0.1560  -0.1530  -0.1289
    -0.0330  -0.0017  -0.0017   0.0180   0.0321   0.0321   0.1758   0.3020
     0.3092   0.3092   0.8711   0.8711   0.8939   0.9130   0.9298   0.9298
     0.9874   0.9874   1.0612   1.2633   1.4117   1.4117   1.4818   1.4818
     1.4945   1.5032   1.5240   1.5240   1.6629   1.6629   1.9285   2.6092
     2.6092   2.6534   2.6866   2.6866   2.7169   2.7252   2.7252   2.7262
     2.7433   2.7566   2.7566   2.7970   2.8113   2.8113   2.8795   2.8795
     2.8871   2.9052   2.9052   2.9220   2.9245   2.9245   2.9573   2.9850
     2.9855   2.9855   3.1088   3.1088   3.1584   3.2377   3.2556   3.2556
     3.5591   3.5591   3.6617   3.8211   3.8211   4.1612   4.1612   4.1713
     4.1734   4.1907   4.1907   4.1951   4.2629   4.2629   4.3164   4.3789
     4.3789   4.3869   4.3869   4.4623   4.4623   4.4652   4.4870   4.4976
     4.4976   4.5232   4.5232   4.5294   4.5332   4.5557   4.5557   4.5850
     5.0240   5.1666   5.1666   5.2527   5.2527   5.3179   5.9653   5.9653
     6.4381   7.7132   8.4866   8.4866   8.7101   8.7558   8.7935   8.7935
     8.9570   8.9570   9.0729   9.5081   9.5081   9.5130   9.7277   9.8534
     9.8534   9.9152   9.9181   9.9181   9.9731   9.9731   9.9854  10.0013
    10.0030  10.0030  10.1389  10.1389  10.1477  10.1529  10.1760  10.1760
    10.2127  10.2127  10.3471  10.6379  10.6463  10.6463  11.0538  11.1381
    11.1381  11.2233  11.2233  11.2996  11.3149  11.3149  11.3726  11.6835
    11.6835  11.7168  11.8256  11.8256  11.8394  11.8731  11.9885  12.0085
    12.0112  12.0137  12.0144

     occupation numbers 
     1.0000   1.0000   1.0000   1.0000   1.0000   1.0000   1.0000   1.0000
     1.0000   1.0000   1.0000   1.0000   1.0000   1.0000   1.0000   1.0000
     1.0000   1.0000   1.0000   1.0000   1.0000   1.0000   1.0000   1.0000
     1.0000   1.0000   1.0000   1.0000   1.0000   1.0000   1.0000   1.0000
     1.0000   1.0000   1.0000   1.0000   1.0000   1.0000   1.0000   1.0000
     1.0000   1.0000   1.0000   1.0000   1.0000   1.0000   1.0000   1.0000
     1.0000   1.0000   1.0000   1.0000   1.0000   1.0000   1.0000   1.0000
     1.0000   1.0000   1.0000   1.0000   1.0000   1.0000   1.0000   1.0000
     1.0000   1.0000   1.0000   1.0000   1.0000   1.0000   1.0000   1.0000
     1.0000   1.0000   1.0000   1.0000   1.0000   1.0000   1.0000   1.0000
     1.0000   1.0000   1.0000   1.0000   1.0000   1.0000   1.0000   1.0000
     1.0000   1.0000   1.0000   1.0000   1.0000   1.0000   1.0000   1.0000
     1.0000   1.0000   1.0000   1.0000   1.0000   1.0000   1.0000   1.0000
     1.0000   1.0000   1.0000   1.0000   1.0000   1.0000   1.0000   1.0000
     1.0000   1.0000   1.0000   1.0000   1.0000   1.0000   1.0000   1.0000
     1.0000   1.0000   1.0000   1.0000   1.0000   1.0000   1.0000   1.0000
     1.0000   1.0000   1.0000   1.0000   1.0000   1.0000   1.0000   1.0000
     1.0000   1.0000   1.0000   1.0000   1.0000   1.0000   1.0000   1.0000
     1.0000   1.0000   1.0000   1.0000   1.0000   1.0000   1.0000   1.0000
     1.0000   1.0000   1.0000   1.0000   1.0000   1.0000   1.0000   1.0000
     1.0000   1.0000   1.0000   1.0000   1.0000   1.0000   1.0000   1.0000
     1.0000   1.0000   1.0000   1.0000   1.0000   1.0000   1.0000   1.0000
     1.0000   1.0000   1.0000   1.0000   1.0000   1.0000   1.0000   1.0000
     1.0000   1.0000   1.0000   1.0000   1.0000   1.0000   1.0000   1.0000
     1.0000   1.0000   1.0000   1.0000   1.0000   1.0000   1.0000   1.0000
     1.0000   1.0000   1.0000   1.0000   1.0000   1.0000   1.0000   1.0000
     1.0000   1.0000   1.0000   1.0000   1.0000   1.0000   1.0000   1.0000
     1.0000   1.0000   1.0000   1.0000   1.0000   1.0000   1.0000   1.0000
     1.0000   1.0000   1.0000   1.0000   1.0000   1.0000   1.0000   1.0000
     1.0000   1.0000   1.0000   1.0000   1.0000   1.0000   1.0000   1.0000
     1.0000   1.0000   1.0000   1.0000   1.0000   1.0000   1.0000   1.0000
     1.0000   1.0000   1.0000   1.0000   1.0000   1.0000   1.0000   1.0000
     1.0000   1.0000   1.0000   1.0000   1.0000   1.0000   1.0000   1.0000
     1.0000   1.0000   1.0000   1.0000   1.0000   1.0000   1.0000   1.0000
     1.0000   1.0000   1.0000   1.0000   1.0000   1.0000   1.0000   1.0000
     1.0000   1.0000   1.0000   1.0000   1.0000   1.0000   1.0000   1.0000
     1.0000   0.0000   0.0000   0.0000   0.0000   0.0000   0.0000   0.0000
     0.0000   0.0000   0.0000   0.0000   0.0000   0.0000   0.0000   0.0000
     0.0000   0.0000   0.0000   0.0000   0.0000   0.0000   0.0000   0.0000
     0.0000   0.0000   0.0000   0.0000   0.0000   0.0000   0.0000   0.0000
     0.0000   0.0000   0.0000   0.0000   0.0000   0.0000   0.0000   0.0000
     0.0000   0.0000   0.0000   0.0000   0.0000   0.0000   0.0000   0.0000
     0.0000   0.0000   0.0000   0.0000   0.0000   0.0000   0.0000   0.0000
     0.0000   0.0000   0.0000

          k = 0.0000 0.0000 0.2500 (269876 PWs)   bands (ev):

  -104.9136 -62.3445 -62.2999 -62.2999  -7.5711  -7.2924  -7.0888  -7.0680
    -7.0584  -7.0224  -6.9127  -6.9052  -6.8784  -6.8775  -6.8308  -6.7957
    -6.7951  -6.7612  -6.7418  -6.7289  -6.7160  -6.7124  -6.6581  -6.6525
    -6.6244  -6.6125  -6.5287  -6.5034  -6.4956  -6.4657  -6.4492  -6.4384
    -6.4198  -6.3717  -6.3534  -0.9187  -0.9085  -0.9077  -0.8926  -0.8794
    -0.8739  -0.8639  -0.8504  -0.8497  -0.8388  -0.8386  -0.8340  -0.8333
    -0.8116  -0.8094  -0.7873  -0.7845  -0.7702  -0.7661  -0.7633  -0.7548
    -0.7519  -0.7495  -0.7427  -0.7396  -0.7389  -0.7329  -0.7325  -0.7302
    -0.7289  -0.7234  -0.7221  -0.7187  -0.7171  -0.7159  -0.7120  -0.7112
    -0.7096  -0.7084  -0.7019  -0.6992  -0.6986  -0.6939  -0.6924  -0.6890
    -0.6884  -0.6838  -0.6772  -0.6760  -0.6694  -0.6668  -0.6641  -0.6622
    -0.6539  -0.6498  -0.6491  -0.6421  -0.6399  -0.6308  -0.6270  -0.6191
    -0.6188  -0.6093  -0.5916  -0.5827  -0.5813  -0.5783  -0.5729  -0.5675
    -0.5650  -0.5406  -0.5387  -0.5321  -0.5287  -0.5208  -0.5144  -0.5118
    -0.5071  -0.5028  -0.5012  -0.4956  -0.4837  -0.4803  -0.4752  -0.4712
    -0.4593  -0.4529  -0.4448  -0.4354  -0.4344  -0.4224  -0.4161  -0.4135
    -0.4054  -0.4001  -0.3973  -0.3970  -0.3941  -0.3895  -0.3868  -0.3835
    -0.3814  -0.3798  -0.3774  -0.3744  -0.3698  -0.3667  -0.3653  -0.3620
    -0.3613  -0.3575  -0.3533  -0.3486  -0.3477  -0.3462  -0.3382  -0.3366
    -0.3326  -0.3299  -0.3249  -0.3209  -0.3165  -0.3158  -0.3116  -0.3071
    -0.3061  -0.2937  -0.2927  -0.2868  -0.2849  -0.2814  -0.2790  -0.2711
    -0.2711  -0.2683  -0.2652  -0.2552  -0.2537  -0.2453  -0.2446  -0.2359
    -0.2356  -0.2312  -0.2157  -0.2096  -0.2044  -0.2007  -0.1493  -0.1336
    -0.0578  -0.0325  -0.0296  -0.0131  -0.0004   0.0024   0.3743   0.4725
     0.4756   0.4792   0.8764   0.8814   0.8928   0.9169   0.9190   0.9332
     0.9795   1.0200   1.0788   1.1847   1.1883   1.2077   1.2118   1.2476
     1.3203   1.3672   1.5180   1.8459   1.8529   1.8951   1.9639   2.2094
     2.4632   2.4861   2.4924   2.5190   2.5581   2.5836   2.6342   2.6448
     2.6518   2.6557   2.7363   2.7739   2.8151   2.8688   2.8689   2.9153
     3.0775   3.1230   3.1354   3.1442   3.1637   3.1752   3.2027   3.2070
     3.2140   3.2346   3.2533   3.2886   3.3056   3.3201   3.3325   3.4265
     3.5417   3.6086   3.7023   3.8026   3.8548   3.8741   3.9294   4.0664
     4.0938   4.1326   4.1413   4.1867   4.2035   4.2439   4.2505   4.2724
     4.3042   4.3063   4.3320   4.3330   4.3681   4.4461   4.4743   4.4790
     4.4996   4.5245   4.5428   4.5503   4.5652   4.5926   4.6040   4.6182
     4.8848   5.0404   5.0940   5.1774   5.2478   5.2506   5.8869   5.9449
     6.6326   7.9495   8.4394   8.4977   8.8910   8.9206   8.9499   8.9779
     9.0719   9.1637   9.2314   9.4480   9.5088   9.6212   9.6919   9.6948
     9.8097   9.8874   9.9016   9.9256   9.9308   9.9645  10.0345  10.0481
    10.0764  10.1317  10.1320  10.1685  10.1851  10.2014  10.2264  10.2461
    10.3009  10.3222  10.4291  10.5424  10.5849  10.6817  10.6842  10.8286
    10.8808  10.9454  11.0083  11.1886  11.2011  11.2704  11.4282  11.5613
    11.5912  11.5988  11.6592  11.6990  11.7441  11.7462  11.7769  11.8379
    11.8562  11.8932  11.8935

     occupation numbers 
     1.0000   1.0000   1.0000   1.0000   1.0000   1.0000   1.0000   1.0000
     1.0000   1.0000   1.0000   1.0000   1.0000   1.0000   1.0000   1.0000
     1.0000   1.0000   1.0000   1.0000   1.0000   1.0000   1.0000   1.0000
     1.0000   1.0000   1.0000   1.0000   1.0000   1.0000   1.0000   1.0000
     1.0000   1.0000   1.0000   1.0000   1.0000   1.0000   1.0000   1.0000
     1.0000   1.0000   1.0000   1.0000   1.0000   1.0000   1.0000   1.0000
     1.0000   1.0000   1.0000   1.0000   1.0000   1.0000   1.0000   1.0000
     1.0000   1.0000   1.0000   1.0000   1.0000   1.0000   1.0000   1.0000
     1.0000   1.0000   1.0000   1.0000   1.0000   1.0000   1.0000   1.0000
     1.0000   1.0000   1.0000   1.0000   1.0000   1.0000   1.0000   1.0000
     1.0000   1.0000   1.0000   1.0000   1.0000   1.0000   1.0000   1.0000
     1.0000   1.0000   1.0000   1.0000   1.0000   1.0000   1.0000   1.0000
     1.0000   1.0000   1.0000   1.0000   1.0000   1.0000   1.0000   1.0000
     1.0000   1.0000   1.0000   1.0000   1.0000   1.0000   1.0000   1.0000
     1.0000   1.0000   1.0000   1.0000   1.0000   1.0000   1.0000   1.0000
     1.0000   1.0000   1.0000   1.0000   1.0000   1.0000   1.0000   1.0000
     1.0000   1.0000   1.0000   1.0000   1.0000   1.0000   1.0000   1.0000
     1.0000   1.0000   1.0000   1.0000   1.0000   1.0000   1.0000   1.0000
     1.0000   1.0000   1.0000   1.0000   1.0000   1.0000   1.0000   1.0000
     1.0000   1.0000   1.0000   1.0000   1.0000   1.0000   1.0000   1.0000
     1.0000   1.0000   1.0000   1.0000   1.0000   1.0000   1.0000   1.0000
     1.0000   1.0000   1.0000   1.0000   1.0000   1.0000   1.0000   1.0000
     1.0000   1.0000   1.0000   1.0000   1.0000   1.0000   1.0000   1.0000
     1.0000   1.0000   1.0000   1.0000   1.0000   1.0000   1.0000   1.0000
     1.0000   1.0000   1.0000   1.0000   1.0000   1.0000   1.0000   1.0000
     1.0000   1.0000   1.0000   1.0000   1.0000   1.0000   1.0000   1.0000
     1.0000   1.0000   1.0000   1.0000   1.0000   1.0000   1.0000   1.0000
     1.0000   1.0000   1.0000   1.0000   1.0000   1.0000   1.0000   1.0000
     1.0000   1.0000   1.0000   1.0000   1.0000   1.0000   1.0000   1.0000
     1.0000   1.0000   1.0000   1.0000   1.0000   1.0000   1.0000   1.0000
     1.0000   1.0000   1.0000   1.0000   1.0000   1.0000   1.0000   1.0000
     1.0000   1.0000   1.0000   1.0000   1.0000   1.0000   1.0000   1.0000
     1.0000   1.0000   1.0000   1.0000   1.0000   1.0000   1.0000   1.0000
     1.0000   1.0000   1.0000   1.0000   1.0000   1.0000   1.0000   1.0000
     1.0000   1.0000   1.0000   1.0000   1.0000   1.0000   1.0000   1.0000
     1.0000   1.0000   1.0000   1.0000   1.0000   1.0000   1.0000   1.0000
     1.0000   0.0000   0.0000   0.0000   0.0000   0.0000   0.0000   0.0000
     0.0000   0.0000   0.0000   0.0000   0.0000   0.0000   0.0000   0.0000
     0.0000   0.0000   0.0000   0.0000   0.0000   0.0000   0.0000   0.0000
     0.0000   0.0000   0.0000   0.0000   0.0000   0.0000   0.0000   0.0000
     0.0000   0.0000   0.0000   0.0000   0.0000   0.0000   0.0000   0.0000
     0.0000   0.0000   0.0000   0.0000   0.0000   0.0000   0.0000   0.0000
     0.0000   0.0000   0.0000   0.0000   0.0000   0.0000   0.0000   0.0000
     0.0000   0.0000   0.0000

          k = 0.0000 0.0000-0.5000 (270152 PWs)   bands (ev):

  -104.9136 -62.3445 -62.2999 -62.2999  -7.4851  -7.4370  -7.0421  -7.0207
    -7.0119  -7.0026  -6.9937  -6.9701  -6.9566  -6.9076  -6.7949  -6.7938
    -6.7646  -6.7409  -6.7303  -6.7222  -6.7129  -6.6890  -6.6286  -6.6113
    -6.5709  -6.5556  -6.5312  -6.5285  -6.5121  -6.4876  -6.4868  -6.4659
    -6.4187  -6.4005  -6.3567  -0.9163  -0.8909  -0.8852  -0.8834  -0.8717
    -0.8669  -0.8629  -0.8526  -0.8505  -0.8291  -0.8275  -0.8153  -0.8098
    -0.8090  -0.8049  -0.8029  -0.7999  -0.7814  -0.7810  -0.7745  -0.7732
    -0.7681  -0.7577  -0.7561  -0.7508  -0.7457  -0.7454  -0.7426  -0.7359
    -0.7312  -0.7241  -0.7236  -0.7232  -0.7214  -0.7193  -0.7164  -0.7156
    -0.7128  -0.7119  -0.7031  -0.7018  -0.7004  -0.6971  -0.6939  -0.6875
    -0.6866  -0.6845  -0.6829  -0.6756  -0.6751  -0.6653  -0.6650  -0.6642
    -0.6600  -0.6530  -0.6513  -0.6417  -0.6348  -0.6277  -0.6246  -0.6238
    -0.6052  -0.6043  -0.6012  -0.5899  -0.5841  -0.5781  -0.5765  -0.5692
    -0.5605  -0.5575  -0.5408  -0.5270  -0.5210  -0.5201  -0.5147  -0.5086
    -0.5039  -0.4951  -0.4929  -0.4843  -0.4716  -0.4676  -0.4601  -0.4571
    -0.4528  -0.4477  -0.4449  -0.4317  -0.4240  -0.4191  -0.4157  -0.4119
    -0.4093  -0.4012  -0.4007  -0.3939  -0.3911  -0.3897  -0.3853  -0.3843
    -0.3819  -0.3797  -0.3760  -0.3727  -0.3726  -0.3685  -0.3649  -0.3639
    -0.3635  -0.3607  -0.3562  -0.3520  -0.3490  -0.3488  -0.3430  -0.3402
    -0.3353  -0.3320  -0.3247  -0.3227  -0.3207  -0.3145  -0.3117  -0.3034
    -0.3034  -0.3027  -0.2965  -0.2946  -0.2896  -0.2844  -0.2832  -0.2769
    -0.2749  -0.2732  -0.2649  -0.2630  -0.2580  -0.2543  -0.2521  -0.2404
    -0.2355  -0.2322  -0.2186  -0.1458  -0.1366  -0.1311  -0.1207  -0.1157
    -0.1048  -0.0901  -0.0853  -0.0779  -0.0512  -0.0441   0.6718   0.7672
     0.7845   0.7913   0.7995   0.8365   0.8515   0.8694   0.8920   0.9247
     0.9284   0.9311   0.9658   0.9822   0.9864   0.9996   1.0208   1.2034
     1.2035   1.3772   1.5150   1.7146   2.0750   2.1459   2.2282   2.2744
     2.2947   2.3005   2.3054   2.4405   2.4539   2.4726   2.4731   2.4769
     2.4828   2.5548   2.6847   2.7250   2.9357   2.9651   2.9659   2.9762
     3.0329   3.0630   3.1011   3.1324   3.3009   3.3472   3.4939   3.5179
     3.5349   3.5898   3.6009   3.6713   3.6827   3.6878   3.6946   3.7035
     3.7078   3.7086   3.7228   3.7229   3.7444   3.7490   3.7605   3.7792
     3.7960   3.7990   3.8205   3.8415   3.8701   4.0330   4.1500   4.1532
     4.2042   4.2800   4.3288   4.3713   4.3847   4.4475   4.4711   4.4785
     4.4970   4.5035   4.5072   4.5251   4.5283   4.5531   4.5572   4.8019
     4.8556   4.9588   4.9648   5.0727   5.2238   5.2472   5.8315   5.9241
     6.7960   8.0833   8.4927   8.7325   8.8496   9.1321   9.1793   9.2853
     9.3788   9.4173   9.4258   9.4679   9.4963   9.5419   9.5992   9.6415
     9.6862   9.7142   9.7987   9.8348   9.8973  10.0262  10.0326  10.0404
    10.0422  10.0704  10.1463  10.1606  10.2066  10.2395  10.3558  10.3644
    10.4014  10.5032  10.5442  10.5699  10.6038  10.6141  10.7139  10.7261
    10.7434  10.7872  10.8579  10.8846  11.0030  11.0144  11.0996  11.2321
    11.2614  11.3212  11.3433  11.5806  11.6325  11.6539  11.6733  11.6788
    11.8189  11.8249  11.8837

     occupation numbers 
     1.0000   1.0000   1.0000   1.0000   1.0000   1.0000   1.0000   1.0000
     1.0000   1.0000   1.0000   1.0000   1.0000   1.0000   1.0000   1.0000
     1.0000   1.0000   1.0000   1.0000   1.0000   1.0000   1.0000   1.0000
     1.0000   1.0000   1.0000   1.0000   1.0000   1.0000   1.0000   1.0000
     1.0000   1.0000   1.0000   1.0000   1.0000   1.0000   1.0000   1.0000
     1.0000   1.0000   1.0000   1.0000   1.0000   1.0000   1.0000   1.0000
     1.0000   1.0000   1.0000   1.0000   1.0000   1.0000   1.0000   1.0000
     1.0000   1.0000   1.0000   1.0000   1.0000   1.0000   1.0000   1.0000
     1.0000   1.0000   1.0000   1.0000   1.0000   1.0000   1.0000   1.0000
     1.0000   1.0000   1.0000   1.0000   1.0000   1.0000   1.0000   1.0000
     1.0000   1.0000   1.0000   1.0000   1.0000   1.0000   1.0000   1.0000
     1.0000   1.0000   1.0000   1.0000   1.0000   1.0000   1.0000   1.0000
     1.0000   1.0000   1.0000   1.0000   1.0000   1.0000   1.0000   1.0000
     1.0000   1.0000   1.0000   1.0000   1.0000   1.0000   1.0000   1.0000
     1.0000   1.0000   1.0000   1.0000   1.0000   1.0000   1.0000   1.0000
     1.0000   1.0000   1.0000   1.0000   1.0000   1.0000   1.0000   1.0000
     1.0000   1.0000   1.0000   1.0000   1.0000   1.0000   1.0000   1.0000
     1.0000   1.0000   1.0000   1.0000   1.0000   1.0000   1.0000   1.0000
     1.0000   1.0000   1.0000   1.0000   1.0000   1.0000   1.0000   1.0000
     1.0000   1.0000   1.0000   1.0000   1.0000   1.0000   1.0000   1.0000
     1.0000   1.0000   1.0000   1.0000   1.0000   1.0000   1.0000   1.0000
     1.0000   1.0000   1.0000   1.0000   1.0000   1.0000   1.0000   1.0000
     1.0000   1.0000   1.0000   1.0000   1.0000   1.0000   1.0000   1.0000
     1.0000   1.0000   1.0000   1.0000   1.0000   1.0000   1.0000   1.0000
     1.0000   1.0000   1.0000   1.0000   1.0000   1.0000   1.0000   1.0000
     1.0000   1.0000   1.0000   1.0000   1.0000   1.0000   1.0000   1.0000
     1.0000   1.0000   1.0000   1.0000   1.0000   1.0000   1.0000   1.0000
     1.0000   1.0000   1.0000   1.0000   1.0000   1.0000   1.0000   1.0000
     1.0000   1.0000   1.0000   1.0000   1.0000   1.0000   1.0000   1.0000
     1.0000   1.0000   1.0000   1.0000   1.0000   1.0000   1.0000   1.0000
     1.0000   1.0000   1.0000   1.0000   1.0000   1.0000   1.0000   1.0000
     1.0000   1.0000   1.0000   1.0000   1.0000   1.0000   1.0000   1.0000
     1.0000   1.0000   1.0000   1.0000   1.0000   1.0000   1.0000   1.0000
     1.0000   1.0000   1.0000   1.0000   1.0000   1.0000   1.0000   1.0000
     1.0000   1.0000   1.0000   1.0000   1.0000   1.0000   1.0000   1.0000
     1.0000   1.0000   1.0000   1.0000   1.0000   1.0000   1.0000   1.0000
     1.0000   0.0000   0.0000   0.0000   0.0000   0.0000   0.0000   0.0000
     0.0000   0.0000   0.0000   0.0000   0.0000   0.0000   0.0000   0.0000
     0.0000   0.0000   0.0000   0.0000   0.0000   0.0000   0.0000   0.0000
     0.0000   0.0000   0.0000   0.0000   0.0000   0.0000   0.0000   0.0000
     0.0000   0.0000   0.0000   0.0000   0.0000   0.0000   0.0000   0.0000
     0.0000   0.0000   0.0000   0.0000   0.0000   0.0000   0.0000   0.0000
     0.0000   0.0000   0.0000   0.0000   0.0000   0.0000   0.0000   0.0000
     0.0000   0.0000   0.0000

          k = 0.0000 0.2500 0.2500 (269929 PWs)   bands (ev):

  -104.9136 -62.3445 -62.2999 -62.2999  -7.5352  -7.2814  -7.2448  -7.0605
    -7.0396  -7.0194  -6.8920  -6.8866  -6.8830  -6.8692  -6.8487  -6.8162
    -6.7757  -6.7651  -6.7506  -6.6980  -6.6852  -6.6629  -6.6518  -6.6318
    -6.6253  -6.5714  -6.5306  -6.5204  -6.4954  -6.4841  -6.4678  -6.4468
    -6.4394  -6.3852  -6.3663  -0.9074  -0.9049  -0.8973  -0.8844  -0.8736
    -0.8699  -0.8534  -0.8474  -0.8412  -0.8376  -0.8354  -0.8293  -0.8242
    -0.8111  -0.8104  -0.7896  -0.7838  -0.7782  -0.7719  -0.7660  -0.7643
    -0.7550  -0.7515  -0.7498  -0.7446  -0.7428  -0.7404  -0.7376  -0.7350
    -0.7333  -0.7310  -0.7257  -0.7252  -0.7218  -0.7200  -0.7171  -0.7142
    -0.7122  -0.7097  -0.7060  -0.7042  -0.7017  -0.6992  -0.6958  -0.6923
    -0.6879  -0.6874  -0.6817  -0.6746  -0.6740  -0.6601  -0.6588  -0.6573
    -0.6552  -0.6479  -0.6470  -0.6418  -0.6386  -0.6326  -0.6148  -0.6133
    -0.6095  -0.6001  -0.5980  -0.5901  -0.5888  -0.5829  -0.5767  -0.5720
    -0.5614  -0.5613  -0.5492  -0.5485  -0.5310  -0.5299  -0.5172  -0.5128
    -0.5107  -0.5070  -0.5048  -0.4983  -0.4889  -0.4837  -0.4783  -0.4715
    -0.4536  -0.4471  -0.4365  -0.4328  -0.4270  -0.4232  -0.4209  -0.4165
    -0.4120  -0.4053  -0.3980  -0.3952  -0.3911  -0.3883  -0.3842  -0.3835
    -0.3765  -0.3753  -0.3745  -0.3704  -0.3703  -0.3673  -0.3628  -0.3618
    -0.3572  -0.3556  -0.3515  -0.3508  -0.3459  -0.3438  -0.3422  -0.3418
    -0.3375  -0.3335  -0.3294  -0.3272  -0.3164  -0.3142  -0.3094  -0.3076
    -0.3002  -0.2969  -0.2893  -0.2888  -0.2844  -0.2838  -0.2772  -0.2729
    -0.2694  -0.2667  -0.2593  -0.2572  -0.2532  -0.2468  -0.2386  -0.2322
    -0.2171  -0.2169  -0.1999  -0.1896  -0.1624  -0.1533  -0.1439  -0.1048
    -0.0687  -0.0633  -0.0495  -0.0408  -0.0094  -0.0090   0.3521   0.4139
     0.7140   0.7462   0.8268   0.8687   0.8752   0.9182   0.9251   0.9475
     0.9632   0.9831   0.9852   0.9974   1.0390   1.1286   1.1460   1.3283
     1.4935   1.5063   1.5664   1.5804   1.7606   1.8008   2.0379   2.0436
     2.3306   2.3769   2.4331   2.4643   2.4940   2.5102   2.5703   2.6847
     2.7102   2.7435   2.8046   2.8721   2.9204   2.9778   2.9914   3.0216
     3.0282   3.1156   3.1239   3.1902   3.1970   3.2202   3.2635   3.2699
     3.2881   3.3127   3.3485   3.3498   3.4352   3.4992   3.5655   3.5692
     3.6147   3.6493   3.6910   3.7429   3.8664   3.9117   3.9174   3.9493
     3.9643   4.0045   4.0645   4.0731   4.1401   4.1516   4.1692   4.1736
     4.2020   4.2230   4.3030   4.3296   4.3526   4.3704   4.4465   4.4489
     4.4748   4.4849   4.5422   4.5460   4.5780   4.5792   4.6960   4.7093
     4.8009   4.9930   5.0893   5.1378   5.2339   5.2341   5.8939   5.9561
     6.7006   8.1281   8.4766   8.4902   8.9258   8.9863   9.1603   9.2041
     9.2183   9.2539   9.2687   9.5028   9.5491   9.6573   9.7218   9.7339
     9.7727   9.7796   9.7859   9.8112   9.8224   9.9000   9.9238   9.9873
    10.0021  10.0500  10.0507  10.1222  10.1476  10.1803  10.2418  10.3520
    10.4174  10.5331  10.5424  10.5807  10.5847  10.6286  10.7150  10.7507
    10.8222  10.9022  10.9516  11.0418  11.0658  11.2173  11.2868  11.3664
    11.3838  11.4695  11.5705  11.6002  11.6427  11.6448  11.6846  11.7477
    11.7884  11.8010  11.8280

     occupation numbers 
     1.0000   1.0000   1.0000   1.0000   1.0000   1.0000   1.0000   1.0000
     1.0000   1.0000   1.0000   1.0000   1.0000   1.0000   1.0000   1.0000
     1.0000   1.0000   1.0000   1.0000   1.0000   1.0000   1.0000   1.0000
     1.0000   1.0000   1.0000   1.0000   1.0000   1.0000   1.0000   1.0000
     1.0000   1.0000   1.0000   1.0000   1.0000   1.0000   1.0000   1.0000
     1.0000   1.0000   1.0000   1.0000   1.0000   1.0000   1.0000   1.0000
     1.0000   1.0000   1.0000   1.0000   1.0000   1.0000   1.0000   1.0000
     1.0000   1.0000   1.0000   1.0000   1.0000   1.0000   1.0000   1.0000
     1.0000   1.0000   1.0000   1.0000   1.0000   1.0000   1.0000   1.0000
     1.0000   1.0000   1.0000   1.0000   1.0000   1.0000   1.0000   1.0000
     1.0000   1.0000   1.0000   1.0000   1.0000   1.0000   1.0000   1.0000
     1.0000   1.0000   1.0000   1.0000   1.0000   1.0000   1.0000   1.0000
     1.0000   1.0000   1.0000   1.0000   1.0000   1.0000   1.0000   1.0000
     1.0000   1.0000   1.0000   1.0000   1.0000   1.0000   1.0000   1.0000
     1.0000   1.0000   1.0000   1.0000   1.0000   1.0000   1.0000   1.0000
     1.0000   1.0000   1.0000   1.0000   1.0000   1.0000   1.0000   1.0000
     1.0000   1.0000   1.0000   1.0000   1.0000   1.0000   1.0000   1.0000
     1.0000   1.0000   1.0000   1.0000   1.0000   1.0000   1.0000   1.0000
     1.0000   1.0000   1.0000   1.0000   1.0000   1.0000   1.0000   1.0000
     1.0000   1.0000   1.0000   1.0000   1.0000   1.0000   1.0000   1.0000
     1.0000   1.0000   1.0000   1.0000   1.0000   1.0000   1.0000   1.0000
     1.0000   1.0000   1.0000   1.0000   1.0000   1.0000   1.0000   1.0000
     1.0000   1.0000   1.0000   1.0000   1.0000   1.0000   1.0000   1.0000
     1.0000   1.0000   1.0000   1.0000   1.0000   1.0000   1.0000   1.0000
     1.0000   1.0000   1.0000   1.0000   1.0000   1.0000   1.0000   1.0000
     1.0000   1.0000   1.0000   1.0000   1.0000   1.0000   1.0000   1.0000
     1.0000   1.0000   1.0000   1.0000   1.0000   1.0000   1.0000   1.0000
     1.0000   1.0000   1.0000   1.0000   1.0000   1.0000   1.0000   1.0000
     1.0000   1.0000   1.0000   1.0000   1.0000   1.0000   1.0000   1.0000
     1.0000   1.0000   1.0000   1.0000   1.0000   1.0000   1.0000   1.0000
     1.0000   1.0000   1.0000   1.0000   1.0000   1.0000   1.0000   1.0000
     1.0000   1.0000   1.0000   1.0000   1.0000   1.0000   1.0000   1.0000
     1.0000   1.0000   1.0000   1.0000   1.0000   1.0000   1.0000   1.0000
     1.0000   1.0000   1.0000   1.0000   1.0000   1.0000   1.0000   1.0000
     1.0000   1.0000   1.0000   1.0000   1.0000   1.0000   1.0000   1.0000
     1.0000   1.0000   1.0000   1.0000   1.0000   1.0000   1.0000   1.0000
     1.0000   0.0000   0.0000   0.0000   0.0000   0.0000   0.0000   0.0000
     0.0000   0.0000   0.0000   0.0000   0.0000   0.0000   0.0000   0.0000
     0.0000   0.0000   0.0000   0.0000   0.0000   0.0000   0.0000   0.0000
     0.0000   0.0000   0.0000   0.0000   0.0000   0.0000   0.0000   0.0000
     0.0000   0.0000   0.0000   0.0000   0.0000   0.0000   0.0000   0.0000
     0.0000   0.0000   0.0000   0.0000   0.0000   0.0000   0.0000   0.0000
     0.0000   0.0000   0.0000   0.0000   0.0000   0.0000   0.0000   0.0000
     0.0000   0.0000   0.0000

          k = 0.0000 0.2500-0.5000 (269962 PWs)   bands (ev):

  -104.9136 -62.3445 -62.2999 -62.2999  -7.4514  -7.4058  -7.1976  -7.1528
    -7.0126  -6.9842  -6.9566  -6.9349  -6.8663  -6.8611  -6.8243  -6.8079
    -6.7821  -6.7610  -6.6852  -6.6729  -6.6606  -6.6477  -6.6230  -6.5999
    -6.5912  -6.5641  -6.5474  -6.5321  -6.5211  -6.5033  -6.4899  -6.4711
    -6.4402  -6.4103  -6.3720  -0.9047  -0.8892  -0.8814  -0.8758  -0.8684
    -0.8635  -0.8540  -0.8488  -0.8399  -0.8287  -0.8222  -0.8124  -0.8075
    -0.8060  -0.8018  -0.8006  -0.7964  -0.7852  -0.7797  -0.7751  -0.7735
    -0.7695  -0.7661  -0.7562  -0.7546  -0.7520  -0.7480  -0.7462  -0.7430
    -0.7388  -0.7363  -0.7309  -0.7284  -0.7249  -0.7239  -0.7189  -0.7159
    -0.7135  -0.7098  -0.7078  -0.7066  -0.7037  -0.7005  -0.6974  -0.6917
    -0.6864  -0.6832  -0.6791  -0.6735  -0.6691  -0.6634  -0.6594  -0.6576
    -0.6541  -0.6497  -0.6411  -0.6374  -0.6326  -0.6210  -0.6195  -0.6125
    -0.6085  -0.6012  -0.5976  -0.5934  -0.5862  -0.5794  -0.5749  -0.5713
    -0.5663  -0.5640  -0.5565  -0.5474  -0.5424  -0.5391  -0.5324  -0.5281
    -0.5181  -0.5131  -0.5077  -0.4973  -0.4913  -0.4858  -0.4838  -0.4770
    -0.4685  -0.4623  -0.4475  -0.4450  -0.4301  -0.4221  -0.4156  -0.4132
    -0.4039  -0.4020  -0.3974  -0.3921  -0.3894  -0.3869  -0.3836  -0.3817
    -0.3779  -0.3720  -0.3709  -0.3682  -0.3657  -0.3637  -0.3611  -0.3592
    -0.3559  -0.3520  -0.3508  -0.3488  -0.3464  -0.3440  -0.3411  -0.3386
    -0.3335  -0.3286  -0.3272  -0.3226  -0.3159  -0.3136  -0.3064  -0.3043
    -0.3006  -0.2936  -0.2871  -0.2852  -0.2835  -0.2789  -0.2754  -0.2712
    -0.2687  -0.2637  -0.2614  -0.2585  -0.2484  -0.2465  -0.2408  -0.2039
    -0.1910  -0.1843  -0.1741  -0.1679  -0.1499  -0.1388  -0.1214  -0.1136
    -0.0966  -0.0874  -0.0781  -0.0508  -0.0475  -0.0307   0.5516   0.6134
     0.6241   0.6459   0.7843   0.8251   0.8552   0.8665   0.8871   0.9134
     0.9487   1.0091   1.0567   1.0806   1.1494   1.1622   1.1808   1.2296
     1.2778   1.3817   1.4884   1.6352   1.8089   1.8624   1.9630   2.0387
     2.0829   2.1989   2.3548   2.4006   2.5935   2.6246   2.6580   2.6790
     2.7223   2.7324   2.7589   2.8093   2.8555   2.9123   2.9569   3.0520
     3.1661   3.1750   3.2712   3.2867   3.3476   3.3646   3.3766   3.4058
     3.4508   3.4613   3.4864   3.5416   3.5587   3.5672   3.5970   3.6076
     3.6611   3.7061   3.7173   3.7757   3.7994   3.8369   3.8650   3.9087
     3.9231   3.9474   3.9773   3.9839   4.0104   4.0571   4.0779   4.0979
     4.1130   4.1536   4.1810   4.2474   4.2630   4.3205   4.3321   4.3633
     4.4051   4.4431   4.4768   4.5187   4.5384   4.7174   4.7932   4.8235
     4.8560   4.9625   5.0389   5.0888   5.2239   5.2737   5.8645   5.9121
     6.7944   8.1810   8.3957   8.8105   8.9182   9.2209   9.2931   9.3347
     9.3454   9.3851   9.4486   9.5232   9.5364   9.5672   9.6264   9.6608
     9.7169   9.7337   9.7613   9.7762   9.8017   9.8378   9.8565   9.8871
     9.9066   9.9740  10.0569  10.1444  10.2359  10.2586  10.3105  10.3636
    10.3995  10.4346  10.4893  10.5231  10.6126  10.6493  10.7146  10.7984
    10.8485  10.9117  10.9271  11.0254  11.0895  11.1897  11.2162  11.2543
    11.2846  11.3159  11.3467  11.3606  11.4643  11.4741  11.5343  11.5669
    11.6279  11.6831  11.7532

     occupation numbers 
     1.0000   1.0000   1.0000   1.0000   1.0000   1.0000   1.0000   1.0000
     1.0000   1.0000   1.0000   1.0000   1.0000   1.0000   1.0000   1.0000
     1.0000   1.0000   1.0000   1.0000   1.0000   1.0000   1.0000   1.0000
     1.0000   1.0000   1.0000   1.0000   1.0000   1.0000   1.0000   1.0000
     1.0000   1.0000   1.0000   1.0000   1.0000   1.0000   1.0000   1.0000
     1.0000   1.0000   1.0000   1.0000   1.0000   1.0000   1.0000   1.0000
     1.0000   1.0000   1.0000   1.0000   1.0000   1.0000   1.0000   1.0000
     1.0000   1.0000   1.0000   1.0000   1.0000   1.0000   1.0000   1.0000
     1.0000   1.0000   1.0000   1.0000   1.0000   1.0000   1.0000   1.0000
     1.0000   1.0000   1.0000   1.0000   1.0000   1.0000   1.0000   1.0000
     1.0000   1.0000   1.0000   1.0000   1.0000   1.0000   1.0000   1.0000
     1.0000   1.0000   1.0000   1.0000   1.0000   1.0000   1.0000   1.0000
     1.0000   1.0000   1.0000   1.0000   1.0000   1.0000   1.0000   1.0000
     1.0000   1.0000   1.0000   1.0000   1.0000   1.0000   1.0000   1.0000
     1.0000   1.0000   1.0000   1.0000   1.0000   1.0000   1.0000   1.0000
     1.0000   1.0000   1.0000   1.0000   1.0000   1.0000   1.0000   1.0000
     1.0000   1.0000   1.0000   1.0000   1.0000   1.0000   1.0000   1.0000
     1.0000   1.0000   1.0000   1.0000   1.0000   1.0000   1.0000   1.0000
     1.0000   1.0000   1.0000   1.0000   1.0000   1.0000   1.0000   1.0000
     1.0000   1.0000   1.0000   1.0000   1.0000   1.0000   1.0000   1.0000
     1.0000   1.0000   1.0000   1.0000   1.0000   1.0000   1.0000   1.0000
     1.0000   1.0000   1.0000   1.0000   1.0000   1.0000   1.0000   1.0000
     1.0000   1.0000   1.0000   1.0000   1.0000   1.0000   1.0000   1.0000
     1.0000   1.0000   1.0000   1.0000   1.0000   1.0000   1.0000   1.0000
     1.0000   1.0000   1.0000   1.0000   1.0000   1.0000   1.0000   1.0000
     1.0000   1.0000   1.0000   1.0000   1.0000   1.0000   1.0000   1.0000
     1.0000   1.0000   1.0000   1.0000   1.0000   1.0000   1.0000   1.0000
     1.0000   1.0000   1.0000   1.0000   1.0000   1.0000   1.0000   1.0000
     1.0000   1.0000   1.0000   1.0000   1.0000   1.0000   1.0000   1.0000
     1.0000   1.0000   1.0000   1.0000   1.0000   1.0000   1.0000   1.0000
     1.0000   1.0000   1.0000   1.0000   1.0000   1.0000   1.0000   1.0000
     1.0000   1.0000   1.0000   1.0000   1.0000   1.0000   1.0000   1.0000
     1.0000   1.0000   1.0000   1.0000   1.0000   1.0000   1.0000   1.0000
     1.0000   1.0000   1.0000   1.0000   1.0000   1.0000   1.0000   1.0000
     1.0000   1.0000   1.0000   1.0000   1.0000   1.0000   1.0000   1.0000
     1.0000   1.0000   1.0000   1.0000   1.0000   1.0000   1.0000   1.0000
     1.0000   0.0000   0.0000   0.0000   0.0000   0.0000   0.0000   0.0000
     0.0000   0.0000   0.0000   0.0000   0.0000   0.0000   0.0000   0.0000
     0.0000   0.0000   0.0000   0.0000   0.0000   0.0000   0.0000   0.0000
     0.0000   0.0000   0.0000   0.0000   0.0000   0.0000   0.0000   0.0000
     0.0000   0.0000   0.0000   0.0000   0.0000   0.0000   0.0000   0.0000
     0.0000   0.0000   0.0000   0.0000   0.0000   0.0000   0.0000   0.0000
     0.0000   0.0000   0.0000   0.0000   0.0000   0.0000   0.0000   0.0000
     0.0000   0.0000   0.0000

          k = 0.0000-0.5000-0.5000 (269920 PWs)   bands (ev):

  -104.9136 -62.3445 -62.2999 -62.2999  -7.3693  -7.3493  -7.3240  -7.2676
    -6.9864  -6.9492  -6.9326  -6.9265  -6.9059  -6.9011  -6.8762  -6.8160
    -6.6932  -6.6493  -6.6444  -6.6440  -6.6307  -6.6246  -6.6026  -6.5990
    -6.5858  -6.5837  -6.5830  -6.5640  -6.5574  -6.5207  -6.4981  -6.4916
    -6.4478  -6.4241  -6.3825  -0.8925  -0.8844  -0.8764  -0.8682  -0.8668
    -0.8610  -0.8535  -0.8344  -0.8300  -0.8199  -0.8121  -0.8096  -0.8026
    -0.8011  -0.7988  -0.7961  -0.7901  -0.7848  -0.7842  -0.7832  -0.7777
    -0.7738  -0.7710  -0.7667  -0.7648  -0.7558  -0.7506  -0.7490  -0.7482
    -0.7444  -0.7418  -0.7382  -0.7362  -0.7310  -0.7287  -0.7240  -0.7206
    -0.7204  -0.7124  -0.7081  -0.7076  -0.7027  -0.6995  -0.6931  -0.6878
    -0.6838  -0.6786  -0.6748  -0.6718  -0.6690  -0.6606  -0.6580  -0.6528
    -0.6488  -0.6408  -0.6363  -0.6349  -0.6296  -0.6251  -0.6219  -0.6175
    -0.6110  -0.6091  -0.6047  -0.6001  -0.5968  -0.5890  -0.5873  -0.5816
    -0.5751  -0.5627  -0.5612  -0.5556  -0.5527  -0.5430  -0.5350  -0.5346
    -0.5296  -0.5268  -0.5192  -0.5117  -0.4900  -0.4881  -0.4870  -0.4785
    -0.4744  -0.4635  -0.4627  -0.4501  -0.4377  -0.4311  -0.4223  -0.4115
    -0.4028  -0.4002  -0.3983  -0.3914  -0.3876  -0.3871  -0.3820  -0.3811
    -0.3714  -0.3696  -0.3686  -0.3631  -0.3624  -0.3614  -0.3572  -0.3535
    -0.3521  -0.3507  -0.3499  -0.3469  -0.3443  -0.3408  -0.3370  -0.3356
    -0.3311  -0.3294  -0.3159  -0.3148  -0.3128  -0.3095  -0.3042  -0.3008
    -0.2919  -0.2888  -0.2854  -0.2786  -0.2770  -0.2749  -0.2672  -0.2649
    -0.2628  -0.2590  -0.2512  -0.2500  -0.2465  -0.2422  -0.2411  -0.2318
    -0.2281  -0.2230  -0.1697  -0.1309  -0.1153  -0.1128  -0.1014  -0.0869
    -0.0745  -0.0728  -0.0541  -0.0296  -0.0276  -0.0099   0.5464   0.5779
     0.6109   0.6139   0.6454   0.6729   0.7318   0.7332   0.8635   0.9149
     0.9222   1.0242   1.1909   1.3262   1.3502   1.3563   1.3805   1.3848
     1.4592   1.4820   1.5280   1.5568   1.5899   1.6033   1.6225   1.7450
     1.7706   2.0446   2.3783   2.4094   2.4467   2.4538   2.8885   2.9040
     3.0149   3.0310   3.0601   3.0699   3.0813   3.0835   3.0889   3.1177
     3.1185   3.1277   3.1690   3.2024   3.2133   3.2992   3.3027   3.3290
     3.4326   3.4585   3.4605   3.5038   3.5148   3.5245   3.5323   3.5462
     3.5820   3.6187   3.6273   3.6557   3.7015   3.8261   3.8803   3.9123
     3.9488   3.9519   3.9920   3.9949   4.0659   4.0996   4.1204   4.1464
     4.2153   4.2541   4.2739   4.2858   4.2920   4.3019   4.3258   4.3428
     4.3556   4.3594   4.3950   4.4302   4.5097   4.5433   4.5681   4.9076
     4.9639   5.0185   5.0964   5.0973   5.2078   5.3334   5.8493   5.9442
     6.7946   8.2702   8.3473   8.9822   9.0035   9.1485   9.2616   9.3666
     9.3898   9.4114   9.4289   9.4584   9.4726   9.4991   9.5226   9.5261
     9.5538   9.7508   9.8610   9.9567   9.9727   9.9981  10.0330  10.0531
    10.0740  10.0976  10.1227  10.1439  10.1661  10.1881  10.1991  10.2157
    10.2748  10.2875  10.2915  10.3049  10.3307  10.3693  10.4125  10.6691
    10.7746  10.9647  11.0431  11.2766  11.3267  11.3291  11.3450  11.3558
    11.3561  11.3754  11.3855  11.4453  11.4839  11.4934  11.5377  11.5541
    11.5788  11.6092  11.6344

     occupation numbers 
     1.0000   1.0000   1.0000   1.0000   1.0000   1.0000   1.0000   1.0000
     1.0000   1.0000   1.0000   1.0000   1.0000   1.0000   1.0000   1.0000
     1.0000   1.0000   1.0000   1.0000   1.0000   1.0000   1.0000   1.0000
     1.0000   1.0000   1.0000   1.0000   1.0000   1.0000   1.0000   1.0000
     1.0000   1.0000   1.0000   1.0000   1.0000   1.0000   1.0000   1.0000
     1.0000   1.0000   1.0000   1.0000   1.0000   1.0000   1.0000   1.0000
     1.0000   1.0000   1.0000   1.0000   1.0000   1.0000   1.0000   1.0000
     1.0000   1.0000   1.0000   1.0000   1.0000   1.0000   1.0000   1.0000
     1.0000   1.0000   1.0000   1.0000   1.0000   1.0000   1.0000   1.0000
     1.0000   1.0000   1.0000   1.0000   1.0000   1.0000   1.0000   1.0000
     1.0000   1.0000   1.0000   1.0000   1.0000   1.0000   1.0000   1.0000
     1.0000   1.0000   1.0000   1.0000   1.0000   1.0000   1.0000   1.0000
     1.0000   1.0000   1.0000   1.0000   1.0000   1.0000   1.0000   1.0000
     1.0000   1.0000   1.0000   1.0000   1.0000   1.0000   1.0000   1.0000
     1.0000   1.0000   1.0000   1.0000   1.0000   1.0000   1.0000   1.0000
     1.0000   1.0000   1.0000   1.0000   1.0000   1.0000   1.0000   1.0000
     1.0000   1.0000   1.0000   1.0000   1.0000   1.0000   1.0000   1.0000
     1.0000   1.0000   1.0000   1.0000   1.0000   1.0000   1.0000   1.0000
     1.0000   1.0000   1.0000   1.0000   1.0000   1.0000   1.0000   1.0000
     1.0000   1.0000   1.0000   1.0000   1.0000   1.0000   1.0000   1.0000
     1.0000   1.0000   1.0000   1.0000   1.0000   1.0000   1.0000   1.0000
     1.0000   1.0000   1.0000   1.0000   1.0000   1.0000   1.0000   1.0000
     1.0000   1.0000   1.0000   1.0000   1.0000   1.0000   1.0000   1.0000
     1.0000   1.0000   1.0000   1.0000   1.0000   1.0000   1.0000   1.0000
     1.0000   1.0000   1.0000   1.0000   1.0000   1.0000   1.0000   1.0000
     1.0000   1.0000   1.0000   1.0000   1.0000   1.0000   1.0000   1.0000
     1.0000   1.0000   1.0000   1.0000   1.0000   1.0000   1.0000   1.0000
     1.0000   1.0000   1.0000   1.0000   1.0000   1.0000   1.0000   1.0000
     1.0000   1.0000   1.0000   1.0000   1.0000   1.0000   1.0000   1.0000
     1.0000   1.0000   1.0000   1.0000   1.0000   1.0000   1.0000   1.0000
     1.0000   1.0000   1.0000   1.0000   1.0000   1.0000   1.0000   1.0000
     1.0000   1.0000   1.0000   1.0000   1.0000   1.0000   1.0000   1.0000
     1.0000   1.0000   1.0000   1.0000   1.0000   1.0000   1.0000   1.0000
     1.0000   1.0000   1.0000   1.0000   1.0000   1.0000   1.0000   1.0000
     1.0000   1.0000   1.0000   1.0000   1.0000   1.0000   1.0000   1.0000
     1.0000   1.0000   1.0000   1.0000   1.0000   1.0000   1.0000   1.0000
     1.0000   0.0000   0.0000   0.0000   0.0000   0.0000   0.0000   0.0000
     0.0000   0.0000   0.0000   0.0000   0.0000   0.0000   0.0000   0.0000
     0.0000   0.0000   0.0000   0.0000   0.0000   0.0000   0.0000   0.0000
     0.0000   0.0000   0.0000   0.0000   0.0000   0.0000   0.0000   0.0000
     0.0000   0.0000   0.0000   0.0000   0.0000   0.0000   0.0000   0.0000
     0.0000   0.0000   0.0000   0.0000   0.0000   0.0000   0.0000   0.0000
     0.0000   0.0000   0.0000   0.0000   0.0000   0.0000   0.0000   0.0000
     0.0000   0.0000   0.0000

          k = 0.2500 0.2500 0.2500 (269935 PWs)   bands (ev):

  -104.9136 -62.3445 -62.2999 -62.2999  -7.5000  -7.2533  -7.2533  -7.1989
    -7.0375  -7.0375  -6.9920  -6.8693  -6.8414  -6.8414  -6.8027  -6.7644
    -6.7644  -6.7355  -6.7070  -6.7070  -6.6914  -6.6618  -6.6618  -6.6027
    -6.5844  -6.5844  -6.5284  -6.5284  -6.5011  -6.4974  -6.4686  -6.4664
    -6.4664  -6.3907  -6.3907  -0.8994  -0.8942  -0.8942  -0.8784  -0.8682
    -0.8682  -0.8413  -0.8413  -0.8407  -0.8307  -0.8246  -0.8246  -0.8217
    -0.8107  -0.8107  -0.7840  -0.7840  -0.7837  -0.7739  -0.7728  -0.7728
    -0.7571  -0.7571  -0.7527  -0.7517  -0.7470  -0.7455  -0.7455  -0.7414
    -0.7414  -0.7344  -0.7344  -0.7268  -0.7268  -0.7248  -0.7182  -0.7174
    -0.7174  -0.7151  -0.7097  -0.7097  -0.7058  -0.7013  -0.7013  -0.6951
    -0.6872  -0.6866  -0.6866  -0.6738  -0.6738  -0.6631  -0.6560  -0.6560
    -0.6476  -0.6411  -0.6386  -0.6386  -0.6264  -0.6264  -0.6130  -0.6113
    -0.6113  -0.6082  -0.5892  -0.5861  -0.5851  -0.5851  -0.5740  -0.5740
    -0.5553  -0.5553  -0.5536  -0.5505  -0.5400  -0.5400  -0.5202  -0.5179
    -0.5142  -0.5142  -0.5024  -0.5024  -0.4961  -0.4961  -0.4914  -0.4719
    -0.4661  -0.4661  -0.4564  -0.4505  -0.4505  -0.4211  -0.4211  -0.4181
    -0.4114  -0.4027  -0.4020  -0.4020  -0.3890  -0.3890  -0.3775  -0.3775
    -0.3767  -0.3729  -0.3662  -0.3662  -0.3611  -0.3611  -0.3610  -0.3572
    -0.3541  -0.3541  -0.3483  -0.3451  -0.3451  -0.3404  -0.3378  -0.3367
    -0.3367  -0.3294  -0.3294  -0.3219  -0.3219  -0.3015  -0.3015  -0.2984
    -0.2969  -0.2964  -0.2964  -0.2858  -0.2771  -0.2771  -0.2712  -0.2712
    -0.2711  -0.2572  -0.2572  -0.2571  -0.2447  -0.2425  -0.2425  -0.2341
    -0.1889  -0.1889  -0.1745  -0.1727  -0.1727  -0.1359  -0.1327  -0.1327
    -0.0724  -0.0724  -0.0704  -0.0611  -0.0405  -0.0405   0.4836   0.5642
     0.5642   0.7579   0.7880   0.7880   0.8840   0.8840   0.9202   0.9753
     0.9753   0.9788   1.0729   1.1007   1.1007   1.1025   1.2650   1.2650
     1.2771   1.4220   1.4220   1.5132   1.8497   1.8873   1.8873   2.0792
     2.0792   2.2821   2.5600   2.5600   2.5827   2.6147   2.6147   2.6367
     2.7060   2.7060   2.7225   2.9461   2.9461   2.9819   3.0473   3.0473
     3.0943   3.2103   3.2103   3.2293   3.2432   3.2432   3.2485   3.3503
[...]
     1.0000   1.0000   1.0000   1.0000   1.0000   1.0000   1.0000   1.0000
     1.0000   1.0000   1.0000   1.0000   1.0000   1.0000   1.0000   1.0000
     1.0000   1.0000   1.0000   1.0000   1.0000   1.0000   1.0000   1.0000
     1.0000   1.0000   1.0000   1.0000   1.0000   1.0000   1.0000   1.0000
     1.0000   1.0000   1.0000   1.0000   1.0000   1.0000   1.0000   1.0000
     1.0000   1.0000   1.0000   1.0000   1.0000   1.0000   1.0000   1.0000
     1.0000   1.0000   1.0000   1.0000   1.0000   1.0000   1.0000   1.0000
     1.0000   1.0000   1.0000   1.0000   1.0000   1.0000   1.0000   1.0000
     1.0000   1.0000   1.0000   1.0000   1.0000   1.0000   1.0000   1.0000
     1.0000   1.0000   1.0000   1.0000   1.0000   1.0000   1.0000   1.0000
     1.0000   1.0000   1.0000   1.0000   1.0000   1.0000   1.0000   1.0000
     1.0000   1.0000   1.0000   1.0000   1.0000   1.0000   1.0000   1.0000
     1.0000   1.0000   1.0000   1.0000   1.0000   1.0000   1.0000   1.0000
     1.0000   1.0000   1.0000   1.0000   1.0000   1.0000   1.0000   1.0000
     1.0000   1.0000   1.0000   1.0000   1.0000   1.0000   1.0000   1.0000
     1.0000   1.0000   1.0000   1.0000   1.0000   1.0000   1.0000   1.0000
     1.0000   1.0000   1.0000   1.0000   1.0000   1.0000   1.0000   1.0000
     0.0000   0.0000   0.0000   0.0000   0.0000   0.0000   0.0000   0.0000
     0.0000   0.0000   0.0000   0.0000   0.0000   0.0000   0.0000   0.0000
     0.0000   0.0000   0.0000   0.0000   0.0000   0.0000   0.0000   0.0000
     0.0000   0.0000   0.0000   0.0000   0.0000   0.0000   0.0000   0.0000
     0.0000   0.0000   0.0000   0.0000   0.0000   0.0000   0.0000   0.0000
     0.0000   0.0000   0.0000   0.0000   0.0000   0.0000   0.0000   0.0000
     0.0000   0.0000   0.0000   0.0000   0.0000   0.0000   0.0000   0.0000
     0.0000   0.0000   0.0000

          k = 0.2500-0.2500 0.2500 (269935 PWs)   bands (ev):

  -104.9005 -62.3235 -62.2913 -62.2913  -7.4926  -7.2442  -7.2376  -7.1938
    -7.0299  -7.0284  -6.9845  -6.8716  -6.8313  -6.8305  -6.7879  -6.7533
    -6.7442  -6.7260  -6.6996  -6.6942  -6.6859  -6.6587  -6.6542  -6.6113
    -6.5749  -6.5689  -6.5222  -6.5204  -6.5006  -6.4905  -6.4662  -6.4630
    -6.4605  -6.3858  -6.3849  -0.8912  -0.8877  -0.8865  -0.8668  -0.8619
    -0.8595  -0.8402  -0.8377  -0.8272  -0.8261  -0.8217  -0.8215  -0.8118
    -0.8015  -0.8007  -0.7904  -0.7884  -0.7752  -0.7684  -0.7630  -0.7579
    -0.7574  -0.7553  -0.7502  -0.7479  -0.7468  -0.7404  -0.7399  -0.7374
    -0.7346  -0.7330  -0.7308  -0.7246  -0.7228  -0.7205  -0.7181  -0.7154
    -0.7128  -0.7114  -0.7073  -0.7057  -0.7007  -0.7000  -0.6947  -0.6924
    -0.6826  -0.6822  -0.6803  -0.6676  -0.6650  -0.6619  -0.6552  -0.6551
    -0.6502  -0.6444  -0.6419  -0.6326  -0.6284  -0.6242  -0.6194  -0.6124
    -0.6026  -0.5968  -0.5906  -0.5854  -0.5819  -0.5774  -0.5741  -0.5699
    -0.5542  -0.5514  -0.5446  -0.5419  -0.5317  -0.5307  -0.5291  -0.5258
    -0.5130  -0.5054  -0.5013  -0.4981  -0.4862  -0.4820  -0.4753  -0.4732
    -0.4594  -0.4568  -0.4463  -0.4357  -0.4341  -0.4285  -0.4226  -0.4210
    -0.4092  -0.4048  -0.3981  -0.3946  -0.3873  -0.3832  -0.3822  -0.3796
    -0.3726  -0.3685  -0.3662  -0.3651  -0.3605  -0.3600  -0.3573  -0.3560
    -0.3534  -0.3518  -0.3514  -0.3505  -0.3447  -0.3418  -0.3400  -0.3328
    -0.3318  -0.3258  -0.3161  -0.3142  -0.3141  -0.3074  -0.3052  -0.3020
    -0.2967  -0.2894  -0.2889  -0.2862  -0.2785  -0.2763  -0.2739  -0.2661
    -0.2641  -0.2637  -0.2582  -0.2500  -0.2493  -0.2386  -0.2378  -0.2311
    -0.1927  -0.1915  -0.1821  -0.1730  -0.1690  -0.1365  -0.1287  -0.1265
    -0.0763  -0.0713  -0.0524  -0.0522  -0.0463  -0.0431   0.4789   0.5623
     0.5681   0.7894   0.8003   0.8016   0.8965   0.9008   0.9185   0.9818
     0.9945   1.0029   1.0577   1.1016   1.1122   1.1584   1.2329   1.2804
     1.2808   1.3322   1.4625   1.6022   1.8858   1.9220   1.9412   2.0858
     2.0866   2.2228   2.5495   2.5859   2.5965   2.6345   2.6477   2.6497
     2.7335   2.7738   2.7756   2.8884   2.9317   2.9847   2.9869   3.0499
     3.1208   3.1868   3.1987   3.2266   3.2282   3.2615   3.2988   3.3463
     3.3538   3.3841   3.3844   3.3953   3.4212   3.4486   3.5248   3.5533
     3.6355   3.7170   3.7236   3.7855   3.8285   3.9042   3.9358   3.9771
     3.9827   3.9923   4.0044   4.0410   4.0630   4.1061   4.1095   4.1232
     4.1335   4.1595   4.2181   4.2231   4.2411   4.2579   4.4170   4.4416
     4.5194   4.5669   4.5998   4.6199   4.6331   4.6835   4.7531   4.7737
     4.8284   5.0647   5.1058   5.1516   5.2588   5.3035   5.8436   5.9409
     7.2921   8.1806   8.6889   8.7175   8.8562   9.1772   9.2621   9.2769
     9.2933   9.3616   9.3622   9.4068   9.4640   9.5317   9.5937   9.6043
     9.7115   9.7678   9.8057   9.8462   9.9371  10.0068  10.0074  10.0534
    10.1142  10.1163  10.1841  10.1978  10.1994  10.2191  10.2302  10.2546
    10.2637  10.2891  10.3169  10.3244  10.4022  10.6219  10.7732  10.8509
    10.9366  11.0257  11.0803  11.1218  11.2861  11.2864  11.3090  11.3604
    11.3703  11.4061  11.4198  11.5164  11.5277  11.5798  11.6954  11.7249
    11.7532  11.7780  11.8454

     occupation numbers 
     1.0000   1.0000   1.0000   1.0000   1.0000   1.0000   1.0000   1.0000
     1.0000   1.0000   1.0000   1.0000   1.0000   1.0000   1.0000   1.0000
     1.0000   1.0000   1.0000   1.0000   1.0000   1.0000   1.0000   1.0000
     1.0000   1.0000   1.0000   1.0000   1.0000   1.0000   1.0000   1.0000
     1.0000   1.0000   1.0000   1.0000   1.0000   1.0000   1.0000   1.0000
     1.0000   1.0000   1.0000   1.0000   1.0000   1.0000   1.0000   1.0000
     1.0000   1.0000   1.0000   1.0000   1.0000   1.0000   1.0000   1.0000
     1.0000   1.0000   1.0000   1.0000   1.0000   1.0000   1.0000   1.0000
     1.0000   1.0000   1.0000   1.0000   1.0000   1.0000   1.0000   1.0000
     1.0000   1.0000   1.0000   1.0000   1.0000   1.0000   1.0000   1.0000
     1.0000   1.0000   1.0000   1.0000   1.0000   1.0000   1.0000   1.0000
     1.0000   1.0000   1.0000   1.0000   1.0000   1.0000   1.0000   1.0000
     1.0000   1.0000   1.0000   1.0000   1.0000   1.0000   1.0000   1.0000
     1.0000   1.0000   1.0000   1.0000   1.0000   1.0000   1.0000   1.0000
     1.0000   1.0000   1.0000   1.0000   1.0000   1.0000   1.0000   1.0000
     1.0000   1.0000   1.0000   1.0000   1.0000   1.0000   1.0000   1.0000
     1.0000   1.0000   1.0000   1.0000   1.0000   1.0000   1.0000   1.0000
     1.0000   1.0000   1.0000   1.0000   1.0000   1.0000   1.0000   1.0000
     1.0000   1.0000   1.0000   1.0000   1.0000   1.0000   1.0000   1.0000
     1.0000   1.0000   1.0000   1.0000   1.0000   1.0000   1.0000   1.0000
     1.0000   1.0000   1.0000   1.0000   1.0000   1.0000   1.0000   1.0000
     1.0000   1.0000   1.0000   1.0000   1.0000   1.0000   1.0000   1.0000
     1.0000   1.0000   1.0000   1.0000   1.0000   1.0000   1.0000   1.0000
     1.0000   1.0000   1.0000   1.0000   1.0000   1.0000   1.0000   1.0000
     1.0000   1.0000   1.0000   1.0000   1.0000   1.0000   1.0000   1.0000
     1.0000   1.0000   1.0000   1.0000   1.0000   1.0000   1.0000   1.0000
     1.0000   1.0000   1.0000   1.0000   1.0000   1.0000   1.0000   1.0000
     1.0000   1.0000   1.0000   1.0000   1.0000   1.0000   1.0000   1.0000
     1.0000   1.0000   1.0000   1.0000   1.0000   1.0000   1.0000   1.0000
     1.0000   1.0000   1.0000   1.0000   1.0000   1.0000   1.0000   1.0000
     1.0000   1.0000   1.0000   1.0000   1.0000   1.0000   1.0000   1.0000
     1.0000   1.0000   1.0000   1.0000   1.0000   1.0000   1.0000   1.0000
     1.0000   1.0000   1.0000   1.0000   1.0000   1.0000   1.0000   1.0000
     1.0000   1.0000   1.0000   1.0000   1.0000   1.0000   1.0000   1.0000
     1.0000   1.0000   1.0000   1.0000   1.0000   1.0000   1.0000   1.0000
     1.0000   1.0000   1.0000   1.0000   1.0000   1.0000   1.0000   1.0000
     0.0000   0.0000   0.0000   0.0000   0.0000   0.0000   0.0000   0.0000
     0.0000   0.0000   0.0000   0.0000   0.0000   0.0000   0.0000   0.0000
     0.0000   0.0000   0.0000   0.0000   0.0000   0.0000   0.0000   0.0000
     0.0000   0.0000   0.0000   0.0000   0.0000   0.0000   0.0000   0.0000
     0.0000   0.0000   0.0000   0.0000   0.0000   0.0000   0.0000   0.0000
     0.0000   0.0000   0.0000   0.0000   0.0000   0.0000   0.0000   0.0000
     0.0000   0.0000   0.0000   0.0000   0.0000   0.0000   0.0000   0.0000
     0.0000   0.0000   0.0000

          k = 0.2500-0.2500-0.5000 (269988 PWs)   bands (ev):

  -104.9005 -62.3235 -62.2913 -62.2913  -7.4100  -7.3676  -7.1715  -7.1596
    -7.1355  -7.0935  -6.9789  -6.9241  -6.8074  -6.7831  -6.7730  -6.7437
    -6.7330  -6.6887  -6.6860  -6.6650  -6.6434  -6.6206  -6.6151  -6.5956
    -6.5825  -6.5650  -6.5516  -6.5313  -6.5203  -6.5057  -6.5002  -6.4819
    -6.4607  -6.4142  -6.3889  -0.8881  -0.8762  -0.8708  -0.8612  -0.8560
    -0.8523  -0.8461  -0.8286  -0.8275  -0.8179  -0.8124  -0.8037  -0.7996
    -0.7982  -0.7944  -0.7924  -0.7908  -0.7830  -0.7761  -0.7732  -0.7690
    -0.7664  -0.7643  -0.7577  -0.7548  -0.7533  -0.7497  -0.7470  -0.7441
    -0.7429  -0.7385  -0.7368  -0.7357  -0.7310  -0.7240  -0.7202  -0.7178
    -0.7164  -0.7094  -0.7078  -0.7070  -0.7030  -0.6960  -0.6939  -0.6883
    -0.6834  -0.6799  -0.6768  -0.6696  -0.6617  -0.6592  -0.6581  -0.6473
    -0.6440  -0.6394  -0.6360  -0.6287  -0.6270  -0.6231  -0.6168  -0.6082
    -0.6009  -0.5990  -0.5937  -0.5914  -0.5845  -0.5807  -0.5765  -0.5715
    -0.5696  -0.5568  -0.5525  -0.5496  -0.5357  -0.5337  -0.5242  -0.5166
    -0.5146  -0.5082  -0.5031  -0.4976  -0.4909  -0.4857  -0.4837  -0.4706
    -0.4635  -0.4556  -0.4499  -0.4460  -0.4380  -0.4365  -0.4250  -0.4220
    -0.4191  -0.4168  -0.4072  -0.3950  -0.3885  -0.3833  -0.3812  -0.3739
    -0.3714  -0.3684  -0.3641  -0.3594  -0.3580  -0.3552  -0.3538  -0.3515
    -0.3500  -0.3482  -0.3448  -0.3419  -0.3414  -0.3380  -0.3357  -0.3314
    -0.3274  -0.3183  -0.3161  -0.3120  -0.3089  -0.3049  -0.3035  -0.2997
    -0.2960  -0.2919  -0.2864  -0.2800  -0.2781  -0.2744  -0.2688  -0.2632
    -0.2594  -0.2557  -0.2542  -0.2494  -0.2447  -0.2403  -0.2336  -0.2259
    -0.2215  -0.1781  -0.1730  -0.1686  -0.1469  -0.1354  -0.1170  -0.1015
    -0.1005  -0.0938  -0.0819  -0.0614  -0.0536  -0.0414   0.5457   0.5892
     0.7474   0.7794   0.8250   0.8318   0.8635   0.8743   0.9230   0.9448
     0.9837   0.9887   1.0100   1.0222   1.0349   1.0647   1.1609   1.3639
     1.4025   1.4927   1.5368   1.5796   1.6302   1.6726   1.7932   1.8953
     2.4450   2.5126   2.5517   2.5548   2.5683   2.5909   2.6351   2.6812
     2.7297   2.7747   2.7816   2.8031   2.8479   2.9163   2.9686   3.0329
     3.1564   3.1945   3.2871   3.3337   3.3624   3.3910   3.4373   3.4510
     3.4782   3.4806   3.4853   3.5137   3.5521   3.5694   3.6001   3.6289
     3.6364   3.6459   3.6837   3.6886   3.6991   3.7312   3.7545   3.7673
     3.7792   3.8876   3.9100   3.9593   3.9679   4.0079   4.0631   4.0803
     4.1607   4.1667   4.1871   4.2590   4.2919   4.3531   4.3617   4.3810
     4.4350   4.5109   4.6633   4.7225   4.7411   4.7704   4.8497   4.8816
     4.9399   4.9776   5.0114   5.1236   5.2666   5.2774   5.8789   5.9150
     7.3287   8.3891   8.4964   8.9327   8.9544   9.0678   9.1164   9.2850
     9.3366   9.3608   9.4261   9.4696   9.5680   9.5873   9.6071   9.6320
     9.6824   9.7261   9.7494   9.7667   9.7905   9.8466   9.8725   9.9205
     9.9389   9.9715  10.0531  10.0663  10.0922  10.1770  10.2177  10.3199
    10.3467  10.4221  10.4852  10.6236  10.6622  10.7450  10.7989  10.8206
    10.8719  10.9419  10.9950  11.1005  11.2195  11.2687  11.3261  11.3966
    11.4472  11.4714  11.4870  11.5027  11.5598  11.5684  11.6050  11.6109
    11.6217  11.6390  11.6693

     occupation numbers 
     1.0000   1.0000   1.0000   1.0000   1.0000   1.0000   1.0000   1.0000
     1.0000   1.0000   1.0000   1.0000   1.0000   1.0000   1.0000   1.0000
     1.0000   1.0000   1.0000   1.0000   1.0000   1.0000   1.0000   1.0000
     1.0000   1.0000   1.0000   1.0000   1.0000   1.0000   1.0000   1.0000
     1.0000   1.0000   1.0000   1.0000   1.0000   1.0000   1.0000   1.0000
     1.0000   1.0000   1.0000   1.0000   1.0000   1.0000   1.0000   1.0000
     1.0000   1.0000   1.0000   1.0000   1.0000   1.0000   1.0000   1.0000
     1.0000   1.0000   1.0000   1.0000   1.0000   1.0000   1.0000   1.0000
     1.0000   1.0000   1.0000   1.0000   1.0000   1.0000   1.0000   1.0000
     1.0000   1.0000   1.0000   1.0000   1.0000   1.0000   1.0000   1.0000
     1.0000   1.0000   1.0000   1.0000   1.0000   1.0000   1.0000   1.0000
     1.0000   1.0000   1.0000   1.0000   1.0000   1.0000   1.0000   1.0000
     1.0000   1.0000   1.0000   1.0000   1.0000   1.0000   1.0000   1.0000
     1.0000   1.0000   1.0000   1.0000   1.0000   1.0000   1.0000   1.0000
     1.0000   1.0000   1.0000   1.0000   1.0000   1.0000   1.0000   1.0000
     1.0000   1.0000   1.0000   1.0000   1.0000   1.0000   1.0000   1.0000
     1.0000   1.0000   1.0000   1.0000   1.0000   1.0000   1.0000   1.0000
     1.0000   1.0000   1.0000   1.0000   1.0000   1.0000   1.0000   1.0000
     1.0000   1.0000   1.0000   1.0000   1.0000   1.0000   1.0000   1.0000
     1.0000   1.0000   1.0000   1.0000   1.0000   1.0000   1.0000   1.0000
     1.0000   1.0000   1.0000   1.0000   1.0000   1.0000   1.0000   1.0000
     1.0000   1.0000   1.0000   1.0000   1.0000   1.0000   1.0000   1.0000
     1.0000   1.0000   1.0000   1.0000   1.0000   1.0000   1.0000   1.0000
     1.0000   1.0000   1.0000   1.0000   1.0000   1.0000   1.0000   1.0000
     1.0000   1.0000   1.0000   1.0000   1.0000   1.0000   1.0000   1.0000
     1.0000   1.0000   1.0000   1.0000   1.0000   1.0000   1.0000   1.0000
     1.0000   1.0000   1.0000   1.0000   1.0000   1.0000   1.0000   1.0000
     1.0000   1.0000   1.0000   1.0000   1.0000   1.0000   1.0000   1.0000
     1.0000   1.0000   1.0000   1.0000   1.0000   1.0000   1.0000   1.0000
     1.0000   1.0000   1.0000   1.0000   1.0000   1.0000   1.0000   1.0000
     1.0000   1.0000   1.0000   1.0000   1.0000   1.0000   1.0000   1.0000
     1.0000   1.0000   1.0000   1.0000   1.0000   1.0000   1.0000   1.0000
     1.0000   1.0000   1.0000   1.0000   1.0000   1.0000   1.0000   1.0000
     1.0000   1.0000   1.0000   1.0000   1.0000   1.0000   1.0000   1.0000
     1.0000   1.0000   1.0000   1.0000   1.0000   1.0000   1.0000   1.0000
     1.0000   1.0000   1.0000   1.0000   1.0000   1.0000   1.0000   1.0000
     0.0000   0.0000   0.0000   0.0000   0.0000   0.0000   0.0000   0.0000
     0.0000   0.0000   0.0000   0.0000   0.0000   0.0000   0.0000   0.0000
     0.0000   0.0000   0.0000   0.0000   0.0000   0.0000   0.0000   0.0000
     0.0000   0.0000   0.0000   0.0000   0.0000   0.0000   0.0000   0.0000
     0.0000   0.0000   0.0000   0.0000   0.0000   0.0000   0.0000   0.0000
     0.0000   0.0000   0.0000   0.0000   0.0000   0.0000   0.0000   0.0000
     0.0000   0.0000   0.0000   0.0000   0.0000   0.0000   0.0000   0.0000
     0.0000   0.0000   0.0000

     the Fermi energy is     6.8337 ev

!    total energy              =  -10100.91903786 Ry
     total all-electron energy =   -139419.448086 Ry
     estimated scf accuracy    <          7.4E-09 Ry
     smearing contrib. (-TS)   =      -0.00000004 Ry
     internal energy E=F+TS    =  -10100.91903782 Ry

     The total energy is F=E-TS. E is the sum of the following terms:
     one-electron contribution =   -3115.25816847 Ry
     hartree contribution      =    2130.01679600 Ry
     xc contribution           =   -1660.52786019 Ry
     ewald contribution        =   -2968.17474516 Ry
     one-center paw contrib.   =   -4486.97506000 Ry
      -> PAW hartree energy AE =     123.18488193 Ry
      -> PAW hartree energy PS =    -122.54273042 Ry
      -> PAW xc energy AE      =    -143.20300019 Ry
      -> PAW xc energy PS      =      47.14165954 Ry
      -> total E_H with PAW    =    2130.65894751 Ry
      -> total E_XC with PAW   =   -1756.58920083 Ry

     total magnetization       =     1.00 Bohr mag/cell
     absolute magnetization    =     1.06 Bohr mag/cell

     convergence has been achieved in  16 iterations

     Writing all to output data dir ./out/Cu_vac_q0.save/
 
     init_run     :     15.28s CPU     16.52s WALL (       1 calls)
     electrons    :    474.03s CPU    484.09s WALL (       1 calls)

     Called by init_run:
     wfcinit      :     12.93s CPU     13.82s WALL (       1 calls)
     wfcinit:atom :      0.06s CPU      0.09s WALL (       6 calls)
     wfcinit:wfcr :     12.55s CPU     12.79s WALL (       6 calls)
     potinit      :      0.66s CPU      0.77s WALL (       1 calls)
     hinit0       :      0.44s CPU      0.52s WALL (       1 calls)

     Called by electrons:
     c_bands      :    426.19s CPU    432.66s WALL (      17 calls)
     sum_band     :     42.06s CPU     42.54s WALL (      17 calls)
     v_of_rho     :      1.29s CPU      1.35s WALL (      17 calls)
     v_h          :      0.06s CPU      0.06s WALL (      17 calls)
     v_xc         :      1.23s CPU      1.29s WALL (      17 calls)
     newd         :      0.79s CPU      0.85s WALL (      17 calls)
     PAW_pot      :      1.54s CPU      1.58s WALL (      17 calls)
     mix_rho      :      0.42s CPU      0.46s WALL (      17 calls)

     Called by c_bands:
     init_us_2    :      5.66s CPU      5.78s WALL (     210 calls)
     init_us_2:cp :      5.66s CPU      5.77s WALL (     210 calls)
     cegterg      :    388.28s CPU    393.89s WALL (     102 calls)

     Called by sum_band:
     sum_band:wei :      0.07s CPU      0.07s WALL (      17 calls)
     sum_band:loo :     40.21s CPU     40.65s WALL (      17 calls)
     sum_band:buf :      0.86s CPU      1.00s WALL (     102 calls)
     sum_band:ini :      2.78s CPU      2.80s WALL (     102 calls)
     sum_band:cal :     14.58s CPU     14.68s WALL (     102 calls)
     sum_band:bec :      0.30s CPU      0.31s WALL (     102 calls)
     addusdens    :      1.33s CPU      1.35s WALL (      17 calls)
                                        0.00s GPU  (      17 calls)
     addusd:skk   :      0.02s CPU      0.02s WALL (      51 calls)
                                        0.00s GPU  (      51 calls)

     Called by *egterg:
     cdiaghg      :     41.74s CPU     42.13s WALL (     695 calls)
     cegterg:over :     29.72s CPU     30.11s WALL (     599 calls)
     cegterg:upda :     29.00s CPU     29.29s WALL (     599 calls)
     cegterg:last :     45.59s CPU     46.00s WALL (     211 calls)
     cdiaghg:chol :      2.61s CPU      2.62s WALL (     695 calls)
     cdiaghg:inve :      3.81s CPU      3.86s WALL (     695 calls)
     cdiaghg:para :      6.11s CPU      6.19s WALL (    1390 calls)
     h_psi        :    197.66s CPU    200.83s WALL (     707 calls)
     s_psi        :     43.18s CPU     43.83s WALL (     707 calls)
     g_psi        :      0.99s CPU      1.00s WALL (     599 calls)

     Called by h_psi:
     h_psi:calbec :     41.86s CPU     42.41s WALL (     707 calls)
     vloc_psi     :    109.15s CPU    110.77s WALL (     707 calls)
     add_vuspsi   :     44.56s CPU     45.44s WALL (     707 calls)

     General routines
     calbec       :     56.44s CPU     57.08s WALL (     809 calls)
     fft          :      0.96s CPU      1.11s WALL (     357 calls)
     ffts         :      0.06s CPU      0.06s WALL (      34 calls)
     fftw         :    121.51s CPU    123.16s WALL (  214008 calls)
 
     Parallel routines

     PAW routines
     PAW_pot      :      1.54s CPU      1.58s WALL (      17 calls)
     PAW_symme    :      0.14s CPU      0.14s WALL (      34 calls)
 
     PWSCF        :   8m21.64s CPU   8m55.55s WALL

 
   This run was terminated on:  19:11:41  29Jun2024            

=------------------------------------------------------------------------------=
   JOB DONE.
=------------------------------------------------------------------------------=
