
     Program PWSCF v.7.2 starts on  3Jul2024 at  2:41:58 

     This program is part of the open-source Quantum ESPRESSO suite
     for quantum simulation of materials; please cite
         "P. Giannozzi et al., J. Phys.:Condens. Matter 21 395502 (2009);
         "P. Giannozzi et al., J. Phys.:Condens. Matter 29 465901 (2017);
         "P. Giannozzi et al., J. Chem. Phys. 152 154105 (2020);
          URL http://www.quantum-espresso.org", 
     in publications or presentations arising from this work. More details at
     http://www.quantum-espresso.org/quote

     Parallel version (MPI), running on  1456 processors

     MPI processes distributed on    13 nodes
     234845 MiB available memory on the printing compute node when the environment starts
 
     Reading input from 3.Cu_vac_in_ZnS.nscf.q0.in

     Current dimensions of program PWSCF are:
     Max number of different atomic species (ntypx) = 10
     Max number of k-points (npk) =  40000
     Max angular momentum in pseudopotentials (lmaxx) =  4

     Atomic positions and unit cell read from directory:
     ./out/Cu_vac_q0.save/
 
     file S.pbe-n-kjpaw_psl.1.0.0.UPF: wavefunction(s)  3S 3P renormalized
     file Zn.pbe-dnl-kjpaw_psl.1.0.0.UPF: wavefunction(s)  4S 3D renormalized
     file Cu.pbe-spn-kjpaw_psl.1.0.0.UPF: wavefunction(s)  4S 3P 3D renormalized
     [opt_tetra]  Optimized tetrahedron method is used.
 
     K-points division:     npool     =      13
     R & G space division:  proc/nbgrp/npool/nimage =     112
     Subspace diagonalization in iterative solution of the eigenvalue problem:
     one sub-group per band group will be used
     scalapack distributed-memory algorithm (size of sub-group:  3*  3 procs)

 
     Parallelization info
     --------------------
     sticks:   dense  smooth     PW     G-vecs:    dense   smooth      PW
     Min         180     180     46                19282    19282    2562
     Max         181     181     47                19291    19291    2573
     Sum       20217   20217   5249              2160009  2160009  287777
 
     Using Slab Decomposition
 


     bravais-lattice index     =            1
     lattice parameter (alat)  =      20.5686  a.u.
     unit-cell volume          =    8701.8437 (a.u.)^3
     number of atoms/cell      =           63
     number of atomic types    =            3
     number of electrons       =       577.00
     number of Kohn-Sham states=          347
     kinetic-energy cutoff     =     150.0000  Ry
     charge density cutoff     =     600.0000  Ry
     Exchange-correlation= SLA  PW   PBX  PBC
                           (   1   4   3   4   0   0   0)

     celldm(1)=  20.568554  celldm(2)=   0.000000  celldm(3)=   0.000000
     celldm(4)=   0.000000  celldm(5)=   0.000000  celldm(6)=   0.000000

     crystal axes: (cart. coord. in units of alat)
               a(1) = (   1.000000   0.000000   0.000000 )  
               a(2) = (   0.000000   1.000000   0.000000 )  
               a(3) = (   0.000000   0.000000   1.000000 )  

     reciprocal axes: (cart. coord. in units 2 pi/alat)
               b(1) = (  1.000000  0.000000  0.000000 )  
               b(2) = (  0.000000  1.000000  0.000000 )  
               b(3) = (  0.000000  0.000000  1.000000 )  


     PseudoPot. # 1 for S  read from file:
     /arf/home/amuhaymin/pseudo/S.pbe-n-kjpaw_psl.1.0.0.UPF
     MD5 check sum: fb45dfebcf3e72a4e1bd4a866ec2e262
     Pseudo is Projector augmented-wave + core cor, Zval =  6.0
     Generated using &quot;atomic&quot; code by A. Dal Corso  v.6.3
     Shape of augmentation charge: PSQ
     Using radial grid of 1151 points,  6 beta functions with: 
                l(1) =   0
                l(2) =   0
                l(3) =   1
                l(4) =   1
                l(5) =   2
                l(6) =   2
     Q(r) pseudized with 0 coefficients 


     PseudoPot. # 2 for Zn read from file:
     /arf/home/amuhaymin/pseudo/Zn.pbe-dnl-kjpaw_psl.1.0.0.UPF
     MD5 check sum: c608214d9520ac179f507641260889e3
     Pseudo is Projector augmented-wave + core cor, Zval = 12.0
     Generated using &quot;atomic&quot; code by A. Dal Corso  v.6.2.2
     Shape of augmentation charge: PSQ
     Using radial grid of 1201 points,  6 beta functions with: 
                l(1) =   0
                l(2) =   0
                l(3) =   1
                l(4) =   1
                l(5) =   2
                l(6) =   2
     Q(r) pseudized with 0 coefficients 


     PseudoPot. # 3 for Cu read from file:
     /arf/home/amuhaymin/pseudo/Cu.pbe-spn-kjpaw_psl.1.0.0.UPF
     MD5 check sum: e7cbaad2f97193e5fe23251a619a52b0
     Pseudo is Projector augmented-wave + core cor, Zval = 19.0
     Generated using &quot;atomic&quot; code by A. Dal Corso  v.6.3
     Shape of augmentation charge: PSQ
     Using radial grid of 1199 points,  6 beta functions with: 
                l(1) =   0
                l(2) =   0
                l(3) =   1
                l(4) =   1
                l(5) =   2
                l(6) =   2
     Q(r) pseudized with 0 coefficients 


     atomic species   valence    mass     pseudopotential
        S              6.00    32.06500     S ( 1.00)
        Zn            12.00    65.38000     Zn( 1.00)
        Cu            19.00    63.54600     Cu( 1.00)

     Starting magnetic structure 
     atomic species   magnetization
        S            0.000
        Zn           0.000
        Cu           0.053

      6 Sym. Ops. (no inversion) found


                                    s                        frac. trans.

      isym =  1     identity                                     

 cryst.   s( 1) = (     1          0          0      )
                  (     0          1          0      )
                  (     0          0          1      )

 cart.    s( 1) = (  1.0000000  0.0000000  0.0000000 )
                  (  0.0000000  1.0000000  0.0000000 )
                  (  0.0000000  0.0000000  1.0000000 )


      isym =  2     120 deg rotation - cart. axis [-1,-1,-1]     

 cryst.   s( 2) = (     0          0          1      )
                  (     1          0          0      )
                  (     0          1          0      )

 cart.    s( 2) = (  0.0000000  1.0000000  0.0000000 )
                  (  0.0000000  0.0000000  1.0000000 )
                  (  1.0000000  0.0000000  0.0000000 )


      isym =  3     120 deg rotation - cart. axis [1,1,1]        

 cryst.   s( 3) = (     0          1          0      )
                  (     0          0          1      )
                  (     1          0          0      )

 cart.    s( 3) = (  0.0000000  0.0000000  1.0000000 )
                  (  1.0000000  0.0000000  0.0000000 )
                  (  0.0000000  1.0000000  0.0000000 )


      isym =  4     inv. 180 deg rotation - cart. axis [1,-1,0]  

 cryst.   s( 4) = (     0          1          0      )
                  (     1          0          0      )
                  (     0          0          1      )

 cart.    s( 4) = (  0.0000000  1.0000000  0.0000000 )
                  (  1.0000000  0.0000000  0.0000000 )
                  (  0.0000000  0.0000000  1.0000000 )


      isym =  5     inv. 180 deg rotation - cart. axis [-1,0,1]  

 cryst.   s( 5) = (     0          0          1      )
                  (     0          1          0      )
                  (     1          0          0      )

 cart.    s( 5) = (  0.0000000  0.0000000  1.0000000 )
                  (  0.0000000  1.0000000  0.0000000 )
                  (  1.0000000  0.0000000  0.0000000 )


      isym =  6     inv. 180 deg rotation - cart. axis [0,1,-1]  

 cryst.   s( 6) = (     1          0          0      )
                  (     0          0          1      )
                  (     0          1          0      )

 cart.    s( 6) = (  1.0000000  0.0000000  0.0000000 )
                  (  0.0000000  0.0000000  1.0000000 )
                  (  0.0000000  1.0000000  0.0000000 )


     point group C_3v (3m)  
     there are  3 classes
     the character table:

       E     2C3   3s_v 
A_1    1.00  1.00  1.00
A_2    1.00  1.00 -1.00
E      2.00 -1.00  0.00

     the symmetry operations in each class and the name of the first element:

     E        1
          identity                                               
     2C3      2    3
          120 deg rotation - cart. axis [-1,-1,-1]               
     3s_v     4    5    6
          inv. 180 deg rotation - cart. axis [1,-1,0]            

   Cartesian axes

     site n.     atom                  positions (alat units)
         1           Zn  tau(   1) = (   0.0004603   0.0004603   0.0004603  )
         2           Zn  tau(   2) = (   0.0002282   0.2503947   0.2503947  )
         3           Zn  tau(   3) = (   0.2503947   0.0002282   0.2503947  )
         4           Zn  tau(   4) = (   0.2503947   0.2503947   0.0002282  )
         5           S   tau(   5) = (   0.1252282   0.3751681   0.3751681  )
         6           S   tau(   6) = (   0.1252756   0.1252756   0.1252756  )
         7           S   tau(   7) = (   0.3751681   0.3751681   0.1252282  )
         8           S   tau(   8) = (   0.3751681   0.1252282   0.3751681  )
         9           Zn  tau(   9) = (   0.0007791   0.0007791   0.4997672  )
        10           Zn  tau(  10) = (   0.0003013   0.2508569   0.7500665  )
        11           Zn  tau(  11) = (   0.2508569   0.0003013   0.7500665  )
        12           Zn  tau(  12) = (   0.2517310   0.2517310   0.5020267  )
        13           S   tau(  13) = (   0.1249874   0.3755778   0.8752336  )
        14           S   tau(  14) = (   0.1250440   0.1250440   0.6253612  )
        15           S   tau(  15) = (   0.3760111   0.3760111   0.6255731  )
        16           S   tau(  16) = (   0.3755778   0.1249874   0.8752336  )
        17           Zn  tau(  17) = (   0.0007791   0.4997672   0.0007791  )
        18           Zn  tau(  18) = (   0.0003013   0.7500665   0.2508569  )
        19           Zn  tau(  19) = (   0.2517310   0.5020267   0.2517310  )
        20           Zn  tau(  20) = (   0.2508569   0.7500665   0.0003013  )
        21           S   tau(  21) = (   0.1249874   0.8752336   0.3755778  )
        22           S   tau(  22) = (   0.1250440   0.6253612   0.1250440  )
        23           S   tau(  23) = (   0.3755778   0.8752336   0.1249874  )
        24           S   tau(  24) = (   0.3760111   0.6255731   0.3760111  )
        25           Zn  tau(  25) = (   0.0012044   0.5001362   0.5001362  )
        26           Zn  tau(  26) = (   0.0022364   0.7499627   0.7499627  )
        27           Zn  tau(  27) = (   0.2508680   0.4980781   0.7477441  )
        28           Zn  tau(  28) = (   0.2508680   0.7477441   0.4980781  )
        29           S   tau(  29) = (   0.1258189   0.8752482   0.8752482  )
        30           S   tau(  30) = (   0.1253832   0.6250986   0.6250986  )
        31           S   tau(  31) = (   0.3763850   0.8735734   0.6241307  )
        32           S   tau(  32) = (   0.3763850   0.6241307   0.8735734  )
        33           Zn  tau(  33) = (   0.4997672   0.0007791   0.0007791  )
        34           Zn  tau(  34) = (   0.5020267   0.2517310   0.2517310  )
        35           Zn  tau(  35) = (   0.7500665   0.0003013   0.2508569  )
        36           Zn  tau(  36) = (   0.7500665   0.2508569   0.0003013  )
        37           S   tau(  37) = (   0.6255731   0.3760111   0.3760111  )
        38           S   tau(  38) = (   0.6253612   0.1250440   0.1250440  )
        39           S   tau(  39) = (   0.8752336   0.3755778   0.1249874  )
        40           S   tau(  40) = (   0.8752336   0.1249874   0.3755778  )
        41           Zn  tau(  41) = (   0.5001362   0.0012044   0.5001362  )
        42           Zn  tau(  42) = (   0.4980781   0.2508680   0.7477441  )
        43           Zn  tau(  43) = (   0.7499627   0.0022364   0.7499627  )
        44           Zn  tau(  44) = (   0.7477441   0.2508680   0.4980781  )
        45           S   tau(  45) = (   0.6241307   0.3763850   0.8735734  )
        46           S   tau(  46) = (   0.6250986   0.1253832   0.6250986  )
        47           S   tau(  47) = (   0.8735734   0.3763850   0.6241307  )
        48           S   tau(  48) = (   0.8752482   0.1258189   0.8752482  )
        49           Zn  tau(  49) = (   0.5001362   0.5001362   0.0012044  )
        50           Zn  tau(  50) = (   0.4980781   0.7477441   0.2508680  )
        51           Zn  tau(  51) = (   0.7477441   0.4980781   0.2508680  )
        52           Zn  tau(  52) = (   0.7499627   0.7499627   0.0022364  )
        53           S   tau(  53) = (   0.6241307   0.8735734   0.3763850  )
        54           S   tau(  54) = (   0.6250986   0.6250986   0.1253832  )
        55           S   tau(  55) = (   0.8752482   0.8752482   0.1258189  )
        56           S   tau(  56) = (   0.8735734   0.6241307   0.3763850  )
        57           Cu  tau(  57) = (   0.4745337   0.4745337   0.4745337  )
        58           Zn  tau(  58) = (   0.4974591   0.7556402   0.7556402  )
        59           Zn  tau(  59) = (   0.7556402   0.4974591   0.7556402  )
        60           Zn  tau(  60) = (   0.7556402   0.7556402   0.4974591  )
        61           S   tau(  61) = (   0.6272504   0.8755799   0.8755799  )
        62           S   tau(  62) = (   0.8755799   0.8755799   0.6272504  )
        63           S   tau(  63) = (   0.8755799   0.6272504   0.8755799  )

   Crystallographic axes

     site n.     atom                  positions (cryst. coord.)
         1           Zn  tau(   1) = (  0.0004603  0.0004603  0.0004603  )
         2           Zn  tau(   2) = (  0.0002282  0.2503947  0.2503947  )
         3           Zn  tau(   3) = (  0.2503947  0.0002282  0.2503947  )
         4           Zn  tau(   4) = (  0.2503947  0.2503947  0.0002282  )
         5           S   tau(   5) = (  0.1252282  0.3751681  0.3751681  )
         6           S   tau(   6) = (  0.1252756  0.1252756  0.1252756  )
         7           S   tau(   7) = (  0.3751681  0.3751681  0.1252282  )
         8           S   tau(   8) = (  0.3751681  0.1252282  0.3751681  )
         9           Zn  tau(   9) = (  0.0007791  0.0007791  0.4997672  )
        10           Zn  tau(  10) = (  0.0003013  0.2508569  0.7500665  )
        11           Zn  tau(  11) = (  0.2508569  0.0003013  0.7500665  )
        12           Zn  tau(  12) = (  0.2517310  0.2517310  0.5020267  )
        13           S   tau(  13) = (  0.1249874  0.3755778  0.8752336  )
        14           S   tau(  14) = (  0.1250440  0.1250440  0.6253612  )
        15           S   tau(  15) = (  0.3760111  0.3760111  0.6255731  )
        16           S   tau(  16) = (  0.3755778  0.1249874  0.8752336  )
        17           Zn  tau(  17) = (  0.0007791  0.4997672  0.0007791  )
        18           Zn  tau(  18) = (  0.0003013  0.7500665  0.2508569  )
        19           Zn  tau(  19) = (  0.2517310  0.5020267  0.2517310  )
        20           Zn  tau(  20) = (  0.2508569  0.7500665  0.0003013  )
        21           S   tau(  21) = (  0.1249874  0.8752336  0.3755778  )
        22           S   tau(  22) = (  0.1250440  0.6253612  0.1250440  )
        23           S   tau(  23) = (  0.3755778  0.8752336  0.1249874  )
        24           S   tau(  24) = (  0.3760111  0.6255731  0.3760111  )
        25           Zn  tau(  25) = (  0.0012044  0.5001362  0.5001362  )
        26           Zn  tau(  26) = (  0.0022364  0.7499627  0.7499627  )
        27           Zn  tau(  27) = (  0.2508680  0.4980781  0.7477441  )
        28           Zn  tau(  28) = (  0.2508680  0.7477441  0.4980781  )
        29           S   tau(  29) = (  0.1258189  0.8752482  0.8752482  )
        30           S   tau(  30) = (  0.1253832  0.6250986  0.6250986  )
        31           S   tau(  31) = (  0.3763850  0.8735734  0.6241307  )
        32           S   tau(  32) = (  0.3763850  0.6241307  0.8735734  )
        33           Zn  tau(  33) = (  0.4997672  0.0007791  0.0007791  )
        34           Zn  tau(  34) = (  0.5020267  0.2517310  0.2517310  )
        35           Zn  tau(  35) = (  0.7500665  0.0003013  0.2508569  )
        36           Zn  tau(  36) = (  0.7500665  0.2508569  0.0003013  )
        37           S   tau(  37) = (  0.6255731  0.3760111  0.3760111  )
        38           S   tau(  38) = (  0.6253612  0.1250440  0.1250440  )
        39           S   tau(  39) = (  0.8752336  0.3755778  0.1249874  )
        40           S   tau(  40) = (  0.8752336  0.1249874  0.3755778  )
        41           Zn  tau(  41) = (  0.5001362  0.0012044  0.5001362  )
        42           Zn  tau(  42) = (  0.4980781  0.2508680  0.7477441  )
        43           Zn  tau(  43) = (  0.7499627  0.0022364  0.7499627  )
        44           Zn  tau(  44) = (  0.7477441  0.2508680  0.4980781  )
        45           S   tau(  45) = (  0.6241307  0.3763850  0.8735734  )
        46           S   tau(  46) = (  0.6250986  0.1253832  0.6250986  )
        47           S   tau(  47) = (  0.8735734  0.3763850  0.6241307  )
        48           S   tau(  48) = (  0.8752482  0.1258189  0.8752482  )
        49           Zn  tau(  49) = (  0.5001362  0.5001362  0.0012044  )
        50           Zn  tau(  50) = (  0.4980781  0.7477441  0.2508680  )
        51           Zn  tau(  51) = (  0.7477441  0.4980781  0.2508680  )
        52           Zn  tau(  52) = (  0.7499627  0.7499627  0.0022364  )
        53           S   tau(  53) = (  0.6241307  0.8735734  0.3763850  )
        54           S   tau(  54) = (  0.6250986  0.6250986  0.1253832  )
        55           S   tau(  55) = (  0.8752482  0.8752482  0.1258189  )
        56           S   tau(  56) = (  0.8735734  0.6241307  0.3763850  )
        57           Cu  tau(  57) = (  0.4745337  0.4745337  0.4745337  )
        58           Zn  tau(  58) = (  0.4974591  0.7556402  0.7556402  )
        59           Zn  tau(  59) = (  0.7556402  0.4974591  0.7556402  )
        60           Zn  tau(  60) = (  0.7556402  0.7556402  0.4974591  )
        61           S   tau(  61) = (  0.6272504  0.8755799  0.8755799  )
        62           S   tau(  62) = (  0.8755799  0.8755799  0.6272504  )
        63           S   tau(  63) = (  0.8755799  0.6272504  0.8755799  )

     number of k points=    65 (tetrahedron method)
                       cart. coord. in units 2pi/alat
        k(    1) = (   0.0000000   0.0000000   0.0000000), wk =   0.0019531
        k(    2) = (   0.0000000   0.0000000   0.1250000), wk =   0.0117188
        k(    3) = (   0.0000000   0.0000000   0.2500000), wk =   0.0117188
        k(    4) = (   0.0000000   0.0000000   0.3750000), wk =   0.0117188
        k(    5) = (   0.0000000   0.0000000  -0.5000000), wk =   0.0058594
        k(    6) = (   0.0000000   0.1250000   0.1250000), wk =   0.0117188
        k(    7) = (   0.0000000   0.1250000   0.2500000), wk =   0.0234375
        k(    8) = (   0.0000000   0.1250000   0.3750000), wk =   0.0234375
        k(    9) = (   0.0000000   0.1250000  -0.5000000), wk =   0.0234375
        k(   10) = (   0.0000000   0.2500000   0.2500000), wk =   0.0117188
        k(   11) = (   0.0000000   0.2500000   0.3750000), wk =   0.0234375
        k(   12) = (   0.0000000   0.2500000  -0.5000000), wk =   0.0234375
        k(   13) = (   0.0000000   0.3750000   0.3750000), wk =   0.0117188
        k(   14) = (   0.0000000   0.3750000  -0.5000000), wk =   0.0234375
        k(   15) = (   0.0000000  -0.5000000  -0.5000000), wk =   0.0058594
        k(   16) = (   0.1250000   0.1250000   0.1250000), wk =   0.0039062
        k(   17) = (   0.1250000   0.1250000   0.2500000), wk =   0.0117188
        k(   18) = (   0.1250000   0.1250000   0.3750000), wk =   0.0117188
        k(   19) = (   0.1250000   0.1250000  -0.5000000), wk =   0.0117188
        k(   20) = (   0.1250000   0.2500000   0.2500000), wk =   0.0117188
        k(   21) = (   0.1250000   0.2500000   0.3750000), wk =   0.0234375
        k(   22) = (   0.1250000   0.2500000  -0.5000000), wk =   0.0234375
        k(   23) = (   0.1250000   0.3750000   0.3750000), wk =   0.0117188
        k(   24) = (   0.1250000   0.3750000  -0.5000000), wk =   0.0234375
        k(   25) = (   0.1250000  -0.5000000  -0.5000000), wk =   0.0117188
        k(   26) = (   0.2500000   0.2500000   0.2500000), wk =   0.0039062
        k(   27) = (   0.2500000   0.2500000   0.3750000), wk =   0.0117188
        k(   28) = (   0.2500000   0.2500000  -0.5000000), wk =   0.0117188
        k(   29) = (   0.2500000   0.3750000   0.3750000), wk =   0.0117188
        k(   30) = (   0.2500000   0.3750000  -0.5000000), wk =   0.0234375
        k(   31) = (   0.2500000  -0.5000000  -0.5000000), wk =   0.0117188
        k(   32) = (   0.3750000   0.3750000   0.3750000), wk =   0.0039062
        k(   33) = (   0.3750000   0.3750000  -0.5000000), wk =   0.0117188
        k(   34) = (   0.3750000  -0.5000000  -0.5000000), wk =   0.0117188
        k(   35) = (  -0.5000000  -0.5000000  -0.5000000), wk =   0.0019531
        k(   36) = (  -0.1250000   0.0000000   0.1250000), wk =   0.0117188
        k(   37) = (  -0.1250000   0.0000000   0.2500000), wk =   0.0234375
        k(   38) = (  -0.1250000   0.0000000   0.3750000), wk =   0.0234375
        k(   39) = (  -0.2500000   0.0000000   0.2500000), wk =   0.0117188
        k(   40) = (  -0.2500000   0.0000000   0.3750000), wk =   0.0234375
        k(   41) = (  -0.3750000   0.0000000   0.3750000), wk =   0.0117188
        k(   42) = (   0.1250000  -0.1250000   0.1250000), wk =   0.0117188
        k(   43) = (   0.1250000  -0.1250000   0.2500000), wk =   0.0234375
        k(   44) = (  -0.2500000   0.1250000   0.1250000), wk =   0.0117188
        k(   45) = (   0.1250000  -0.1250000   0.3750000), wk =   0.0234375
        k(   46) = (  -0.3750000   0.1250000   0.1250000), wk =   0.0117188
        k(   47) = (   0.1250000  -0.1250000  -0.5000000), wk =   0.0117188
        k(   48) = (   0.2500000  -0.1250000   0.2500000), wk =   0.0117188
        k(   49) = (  -0.2500000   0.1250000   0.2500000), wk =   0.0234375
        k(   50) = (   0.2500000  -0.1250000   0.3750000), wk =   0.0234375
        k(   51) = (  -0.2500000   0.1250000   0.3750000), wk =   0.0234375
        k(   52) = (  -0.3750000   0.2500000   0.1250000), wk =   0.0234375
        k(   53) = (   0.2500000  -0.1250000  -0.5000000), wk =   0.0234375
        k(   54) = (   0.3750000  -0.1250000   0.3750000), wk =   0.0117188
        k(   55) = (  -0.3750000   0.1250000   0.3750000), wk =   0.0234375
        k(   56) = (   0.3750000  -0.1250000  -0.5000000), wk =   0.0234375
        k(   57) = (   0.2500000  -0.2500000   0.2500000), wk =   0.0117188
        k(   58) = (   0.2500000  -0.2500000   0.3750000), wk =   0.0234375
        k(   59) = (  -0.3750000   0.2500000   0.2500000), wk =   0.0117188
        k(   60) = (   0.2500000  -0.2500000  -0.5000000), wk =   0.0117188
        k(   61) = (   0.3750000  -0.2500000   0.3750000), wk =   0.0117188
        k(   62) = (  -0.3750000   0.2500000   0.3750000), wk =   0.0234375
        k(   63) = (   0.3750000  -0.2500000  -0.5000000), wk =   0.0234375
        k(   64) = (   0.3750000  -0.3750000   0.3750000), wk =   0.0117188
        k(   65) = (   0.3750000  -0.3750000  -0.5000000), wk =   0.0117188

                       cryst. coord.
        k(    1) = (   0.0000000   0.0000000   0.0000000), wk =   0.0019531
        k(    2) = (   0.0000000   0.0000000   0.1250000), wk =   0.0117188
        k(    3) = (   0.0000000   0.0000000   0.2500000), wk =   0.0117188
        k(    4) = (   0.0000000   0.0000000   0.3750000), wk =   0.0117188
        k(    5) = (   0.0000000   0.0000000  -0.5000000), wk =   0.0058594
        k(    6) = (   0.0000000   0.1250000   0.1250000), wk =   0.0117188
        k(    7) = (   0.0000000   0.1250000   0.2500000), wk =   0.0234375
        k(    8) = (   0.0000000   0.1250000   0.3750000), wk =   0.0234375
        k(    9) = (   0.0000000   0.1250000  -0.5000000), wk =   0.0234375
        k(   10) = (   0.0000000   0.2500000   0.2500000), wk =   0.0117188
        k(   11) = (   0.0000000   0.2500000   0.3750000), wk =   0.0234375
        k(   12) = (   0.0000000   0.2500000  -0.5000000), wk =   0.0234375
        k(   13) = (   0.0000000   0.3750000   0.3750000), wk =   0.0117188
        k(   14) = (   0.0000000   0.3750000  -0.5000000), wk =   0.0234375
        k(   15) = (   0.0000000  -0.5000000  -0.5000000), wk =   0.0058594
        k(   16) = (   0.1250000   0.1250000   0.1250000), wk =   0.0039062
        k(   17) = (   0.1250000   0.1250000   0.2500000), wk =   0.0117188
        k(   18) = (   0.1250000   0.1250000   0.3750000), wk =   0.0117188
        k(   19) = (   0.1250000   0.1250000  -0.5000000), wk =   0.0117188
        k(   20) = (   0.1250000   0.2500000   0.2500000), wk =   0.0117188
        k(   21) = (   0.1250000   0.2500000   0.3750000), wk =   0.0234375
        k(   22) = (   0.1250000   0.2500000  -0.5000000), wk =   0.0234375
        k(   23) = (   0.1250000   0.3750000   0.3750000), wk =   0.0117188
        k(   24) = (   0.1250000   0.3750000  -0.5000000), wk =   0.0234375
        k(   25) = (   0.1250000  -0.5000000  -0.5000000), wk =   0.0117188
        k(   26) = (   0.2500000   0.2500000   0.2500000), wk =   0.0039062
        k(   27) = (   0.2500000   0.2500000   0.3750000), wk =   0.0117188
        k(   28) = (   0.2500000   0.2500000  -0.5000000), wk =   0.0117188
        k(   29) = (   0.2500000   0.3750000   0.3750000), wk =   0.0117188
        k(   30) = (   0.2500000   0.3750000  -0.5000000), wk =   0.0234375
        k(   31) = (   0.2500000  -0.5000000  -0.5000000), wk =   0.0117188
        k(   32) = (   0.3750000   0.3750000   0.3750000), wk =   0.0039062
        k(   33) = (   0.3750000   0.3750000  -0.5000000), wk =   0.0117188
        k(   34) = (   0.3750000  -0.5000000  -0.5000000), wk =   0.0117188
        k(   35) = (  -0.5000000  -0.5000000  -0.5000000), wk =   0.0019531
        k(   36) = (  -0.1250000   0.0000000   0.1250000), wk =   0.0117188
        k(   37) = (  -0.1250000   0.0000000   0.2500000), wk =   0.0234375
        k(   38) = (  -0.1250000   0.0000000   0.3750000), wk =   0.0234375
        k(   39) = (  -0.2500000   0.0000000   0.2500000), wk =   0.0117188
        k(   40) = (  -0.2500000   0.0000000   0.3750000), wk =   0.0234375
        k(   41) = (  -0.3750000   0.0000000   0.3750000), wk =   0.0117188
        k(   42) = (   0.1250000  -0.1250000   0.1250000), wk =   0.0117188
        k(   43) = (   0.1250000  -0.1250000   0.2500000), wk =   0.0234375
        k(   44) = (  -0.2500000   0.1250000   0.1250000), wk =   0.0117188
        k(   45) = (   0.1250000  -0.1250000   0.3750000), wk =   0.0234375
        k(   46) = (  -0.3750000   0.1250000   0.1250000), wk =   0.0117188
        k(   47) = (   0.1250000  -0.1250000  -0.5000000), wk =   0.0117188
        k(   48) = (   0.2500000  -0.1250000   0.2500000), wk =   0.0117188
        k(   49) = (  -0.2500000   0.1250000   0.2500000), wk =   0.0234375
        k(   50) = (   0.2500000  -0.1250000   0.3750000), wk =   0.0234375
        k(   51) = (  -0.2500000   0.1250000   0.3750000), wk =   0.0234375
        k(   52) = (  -0.3750000   0.2500000   0.1250000), wk =   0.0234375
        k(   53) = (   0.2500000  -0.1250000  -0.5000000), wk =   0.0234375
        k(   54) = (   0.3750000  -0.1250000   0.3750000), wk =   0.0117188
        k(   55) = (  -0.3750000   0.1250000   0.3750000), wk =   0.0234375
        k(   56) = (   0.3750000  -0.1250000  -0.5000000), wk =   0.0234375
        k(   57) = (   0.2500000  -0.2500000   0.2500000), wk =   0.0117188
        k(   58) = (   0.2500000  -0.2500000   0.3750000), wk =   0.0234375
        k(   59) = (  -0.3750000   0.2500000   0.2500000), wk =   0.0117188
        k(   60) = (   0.2500000  -0.2500000  -0.5000000), wk =   0.0117188
        k(   61) = (   0.3750000  -0.2500000   0.3750000), wk =   0.0117188
        k(   62) = (  -0.3750000   0.2500000   0.3750000), wk =   0.0234375
        k(   63) = (   0.3750000  -0.2500000  -0.5000000), wk =   0.0234375
        k(   64) = (   0.3750000  -0.3750000   0.3750000), wk =   0.0117188
        k(   65) = (   0.3750000  -0.3750000  -0.5000000), wk =   0.0117188

     Dense  grid:  2160009 G-vectors     FFT dimensions: ( 162, 162, 162)

     Dynamical RAM for                 wfc:      12.76 MB

     Dynamical RAM for     wfc (w. buffer):     140.37 MB

     Dynamical RAM for           str. fact:       0.88 MB

     Dynamical RAM for           local pot:       0.00 MB

     Dynamical RAM for          nlocal pot:      41.70 MB

     Dynamical RAM for                qrad:       5.90 MB

     Dynamical RAM for          rho,v,vnew:       4.17 MB

     Dynamical RAM for           G-vectors:       1.25 MB

     Dynamical RAM for          h,s,v(r/c):       2.44 MB

     Dynamical RAM for          <psi|beta>:       6.00 MB

     Dynamical RAM for                 psi:      25.52 MB

     Dynamical RAM for                hpsi:      25.52 MB

     Dynamical RAM for                spsi:      25.52 MB

     Dynamical RAM for      wfcinit/wfcrot:      34.28 MB

     Dynamical RAM for           addusdens:       5.48 MB

     Estimated static dynamical RAM per process >     197.84 MB

     Estimated max dynamical RAM per process >     282.85 MB

     Estimated total dynamical RAM >     402.18 GB
     Generating pointlists ...
     new r_m :   0.0848 (alat units)  1.7435 (a.u.) for type    1
     new r_m :   0.0880 (alat units)  1.8096 (a.u.) for type    2
     new r_m :   0.0848 (alat units)  1.7435 (a.u.) for type    3

     The potential is recalculated from file :
     ./out/Cu_vac_q0.save/charge-density

     Starting wfcs are  413 randomized atomic wfcs
     Checking if some PAW data can be deallocated... 
       PAW data deallocated on  740 nodes for type:  1
       PAW data deallocated on  739 nodes for type:  2
       PAW data deallocated on 1433 nodes for type:  3

     Band Structure Calculation
     Davidson diagonalization with overlap

     Computing kpt #:     1  of    10 on this pool
     c_bands:  2 eigenvalues not converged
     total cpu time spent up to now is      142.4 secs

     Computing kpt #:     2  of    10 on this pool
     total cpu time spent up to now is      260.4 secs

     Computing kpt #:     3  of    10 on this pool
     c_bands:  1 eigenvalues not converged
     total cpu time spent up to now is      369.6 secs

     Computing kpt #:     4  of    10 on this pool
     total cpu time spent up to now is      484.7 secs

     Computing kpt #:     5  of    10 on this pool
     total cpu time spent up to now is      598.8 secs

     Computing kpt #:     6  of    10 on this pool
     total cpu time spent up to now is      724.1 secs

     Computing kpt #:     7  of    10 on this pool
     total cpu time spent up to now is      840.4 secs

     Computing kpt #:     8  of    10 on this pool
     total cpu time spent up to now is      955.6 secs

     Computing kpt #:     9  of    10 on this pool
     c_bands:  1 eigenvalues not converged
     total cpu time spent up to now is     1082.9 secs

     Computing kpt #:    10  of    10 on this pool
     total cpu time spent up to now is     1207.7 secs

     ethr =  1.73E-12,  avg # of iterations = 95.6

     total cpu time spent up to now is     1210.0 secs

     End of band structure calculation

 ------ SPIN UP ------------


          k = 0.0000 0.0000 0.0000 (269825 PWs)   bands (ev):

  -104.9119 -62.3428 -62.2982 -62.2982  -7.6076  -7.1116  -7.1116  -7.0874
    -7.0809  -7.0809  -7.0117  -6.8295  -6.8295  -6.8128  -6.7839  -6.7839
    -6.7803  -6.7572  -6.7572  -6.7437  -6.7437  -6.7344  -6.7314  -6.6842
    -6.6842  -6.6752  -6.5203  -6.4887  -6.4887  -6.4513  -6.4216  -6.4188
    -6.4188  -6.3495  -6.3495  -0.9207  -0.9207  -0.9207  -0.9009  -0.8832
    -0.8832  -0.8642  -0.8642  -0.8507  -0.8477  -0.8477  -0.8431  -0.8294
    -0.8113  -0.8113  -0.7790  -0.7790  -0.7675  -0.7633  -0.7523  -0.7523
    -0.7436  -0.7436  -0.7410  -0.7321  -0.7321  -0.7263  -0.7238  -0.7238
    -0.7202  -0.7202  -0.7181  -0.7181  -0.7168  -0.7066  -0.7066  -0.7061
    -0.7009  -0.7009  -0.6997  -0.6977  -0.6947  -0.6922  -0.6922  -0.6873
    -0.6802  -0.6773  -0.6769  -0.6769  -0.6720  -0.6720  -0.6657  -0.6657
    -0.6600  -0.6481  -0.6424  -0.6424  -0.6355  -0.6237  -0.6237  -0.5965
    -0.5965  -0.5936  -0.5919  -0.5699  -0.5699  -0.5666  -0.5612  -0.5612
    -0.5590  -0.5442  -0.5442  -0.5379  -0.5379  -0.5227  -0.5227  -0.5205
    -0.5125  -0.5125  -0.5110  -0.5026  -0.4922  -0.4922  -0.4809  -0.4809
    -0.4793  -0.4721  -0.4669  -0.4669  -0.4377  -0.4145  -0.4145  -0.4078
    -0.4078  -0.4057  -0.4026  -0.4014  -0.4014  -0.3988  -0.3988  -0.3915
    -0.3865  -0.3837  -0.3837  -0.3781  -0.3766  -0.3766  -0.3656  -0.3614
    -0.3614  -0.3583  -0.3475  -0.3475  -0.3434  -0.3424  -0.3424  -0.3385
    -0.3326  -0.3326  -0.3205  -0.3205  -0.3142  -0.3132  -0.3132  -0.3118
    -0.3118  -0.3102  -0.2910  -0.2910  -0.2829  -0.2806  -0.2800  -0.2800
    -0.2736  -0.2602  -0.2602  -0.2558  -0.2529  -0.2529  -0.2398  -0.2398
    -0.2337  -0.2333  -0.1667  -0.1667  -0.1560  -0.1560  -0.1530  -0.1289
    -0.0330  -0.0017  -0.0017   0.0180   0.0320   0.0320   0.1758   0.3020
     0.3092   0.3092   0.8710   0.8710   0.8939   0.9130   0.9298   0.9298
     0.9874   0.9874   1.0612   1.2634   1.4118   1.4118   1.4817   1.4817
     1.4945   1.5032   1.5239   1.5239   1.6629   1.6629   1.9286   2.6093
     2.6093   2.6534   2.6866   2.6866   2.7169   2.7252   2.7252   2.7262
     2.7432   2.7566   2.7566   2.7970   2.8112   2.8112   2.8795   2.8795
     2.8871   2.9052   2.9052   2.9220   2.9245   2.9245   2.9572   2.9851
     2.9855   2.9855   3.1088   3.1088   3.1584   3.2377   3.2556   3.2556
     3.5592   3.5592   3.6617   3.8213   3.8213   4.1612   4.1612   4.1713
     4.1734   4.1907   4.1907   4.1951   4.2630   4.2630   4.3164   4.3791
     4.3791   4.3870   4.3870   4.4623   4.4623   4.4652   4.4869   4.4975
     4.4975   4.5231   4.5231   4.5293   4.5332   4.5557   4.5557   4.5850
     5.0253   5.1667   5.1667   5.2537   5.2537   5.3179   5.9661   5.9661
     6.4383   7.7132   8.4867   8.4867   8.7101   8.7558   8.7935   8.7935
     8.9570   8.9570   9.0729   9.5081   9.5081   9.5129   9.7278   9.8533
     9.8533   9.9152   9.9180   9.9180   9.9731   9.9731   9.9854  10.0013
    10.0030  10.0030  10.1389  10.1389  10.1477  10.1529  10.1759  10.1759
    10.2126  10.2126  10.3472  10.6379  10.6463  10.6463  11.0537  11.1381
    11.1381  11.2233  11.2233  11.2996  11.3148  11.3148  11.3726  11.6835
    11.6835  11.7167  11.8256  11.8256  11.8393  11.8731  11.9884  12.0082
    12.0082  12.0137  12.0143

     occupation numbers 
     1.0000   1.0000   1.0000   1.0000   1.0000   1.0000   1.0000   1.0000
     1.0000   1.0000   1.0000   1.0000   1.0000   1.0000   1.0000   1.0000
     1.0000   1.0000   1.0000   1.0000   1.0000   1.0000   1.0000   1.0000
     1.0000   1.0000   1.0000   1.0000   1.0000   1.0000   1.0000   1.0000
     1.0000   1.0000   1.0000   1.0000   1.0000   1.0000   1.0000   1.0000
     1.0000   1.0000   1.0000   1.0000   1.0000   1.0000   1.0000   1.0000
     1.0000   1.0000   1.0000   1.0000   1.0000   1.0000   1.0000   1.0000
     1.0000   1.0000   1.0000   1.0000   1.0000   1.0000   1.0000   1.0000
     1.0000   1.0000   1.0000   1.0000   1.0000   1.0000   1.0000   1.0000
     1.0000   1.0000   1.0000   1.0000   1.0000   1.0000   1.0000   1.0000
     1.0000   1.0000   1.0000   1.0000   1.0000   1.0000   1.0000   1.0000
     1.0000   1.0000   1.0000   1.0000   1.0000   1.0000   1.0000   1.0000
     1.0000   1.0000   1.0000   1.0000   1.0000   1.0000   1.0000   1.0000
     1.0000   1.0000   1.0000   1.0000   1.0000   1.0000   1.0000   1.0000
     1.0000   1.0000   1.0000   1.0000   1.0000   1.0000   1.0000   1.0000
     1.0000   1.0000   1.0000   1.0000   1.0000   1.0000   1.0000   1.0000
     1.0000   1.0000   1.0000   1.0000   1.0000   1.0000   1.0000   1.0000
     1.0000   1.0000   1.0000   1.0000   1.0000   1.0000   1.0000   1.0000
     1.0000   1.0000   1.0000   1.0000   1.0000   1.0000   1.0000   1.0000
     1.0000   1.0000   1.0000   1.0000   1.0000   1.0000   1.0000   1.0000
     1.0000   1.0000   1.0000   1.0000   1.0000   1.0000   1.0000   1.0000
     1.0000   1.0000   1.0000   1.0000   1.0000   1.0000   1.0000   1.0000
     1.0000   1.0000   1.0000   1.0000   1.0000   1.0000   1.0000   1.0000
     1.0000   1.0000   1.0000   1.0000   1.0000   1.0000   1.0000   1.0000
     1.0000   1.0000   1.0000   1.0000   1.0000   1.0000   1.0000   1.0000
     1.0000   1.0000   1.0000   1.0000   1.0000   1.0000   1.0000   1.0000
     1.0000   1.0000   1.0000   1.0000   1.0000   1.0000   1.0000   1.0000
     1.0000   1.0000   1.0000   1.0000   1.0000   1.0000   1.0000   1.0000
     1.0000   1.0000   1.0000   1.0000   1.0000   1.0000   1.0000   1.0000
     1.0000   1.0000   1.0000   1.0000   1.0000   1.0000   1.0000   1.0000
     1.0000   1.0000   1.0000   1.0000   1.0000   1.0000   1.0000   1.0000
     1.0000   1.0000   1.0000   1.0000   1.0000   1.0000   1.0000   1.0000
     1.0000   1.0000   1.0000   1.0000   1.0000   1.0000   1.0000   1.0000
     1.0000   1.0000   1.0000   1.0000   1.0000   1.0000   1.0000   1.0000
     1.0000   1.0000   1.0000   1.0000   1.0000   1.0000   1.0000   1.0000
     1.0000   1.0000   1.0000   1.0000   1.0000   1.0000   1.0000   1.0000
     1.0000   0.0000   0.0000   0.0000   0.0000   0.0000   0.0000   0.0000
     0.0000   0.0000   0.0000   0.0000   0.0000   0.0000   0.0000   0.0000
     0.0000   0.0000   0.0000   0.0000   0.0000   0.0000   0.0000   0.0000
     0.0000   0.0000   0.0000   0.0000   0.0000   0.0000   0.0000   0.0000
     0.0000   0.0000   0.0000   0.0000   0.0000   0.0000   0.0000   0.0000
     0.0000   0.0000   0.0000   0.0000   0.0000   0.0000   0.0000   0.0000
     0.0000   0.0000   0.0000   0.0000   0.0000   0.0000   0.0000   0.0000
     0.0000   0.0000   0.0000

          k = 0.0000 0.0000 0.1250 (269968 PWs)   bands (ev):

  -104.9119 -62.3428 -62.2982 -62.2982  -7.5984  -7.1952  -7.1058  -7.0845
    -7.0752  -7.0388  -6.9626  -6.8598  -6.8537  -6.8223  -6.8175  -6.7964
    -6.7934  -6.7548  -6.7455  -6.7304  -6.7300  -6.7239  -6.7042  -6.6743
    -6.6689  -6.6569  -6.5192  -6.4953  -6.4899  -6.4553  -6.4282  -6.4239
    -6.4198  -6.3556  -6.3506  -0.9202  -0.9174  -0.9173  -0.8986  -0.8822
    -0.8807  -0.8637  -0.8602  -0.8493  -0.8466  -0.8457  -0.8408  -0.8304
    -0.8112  -0.8108  -0.7813  -0.7798  -0.7667  -0.7643  -0.7549  -0.7520
    -0.7469  -0.7459  -0.7415  -0.7328  -0.7319  -0.7293  -0.7272  -0.7265
    -0.7236  -0.7212  -0.7190  -0.7179  -0.7163  -0.7107  -0.7087  -0.7064
    -0.7039  -0.7026  -0.7006  -0.6975  -0.6961  -0.6928  -0.6905  -0.6865
    -0.6856  -0.6810  -0.6759  -0.6754  -0.6693  -0.6690  -0.6663  -0.6609
    -0.6574  -0.6509  -0.6442  -0.6419  -0.6343  -0.6277  -0.6247  -0.6123
    -0.6117  -0.6005  -0.5894  -0.5775  -0.5754  -0.5709  -0.5704  -0.5647
    -0.5594  -0.5476  -0.5400  -0.5337  -0.5293  -0.5229  -0.5155  -0.5154
    -0.5126  -0.5061  -0.5059  -0.4970  -0.4884  -0.4872  -0.4796  -0.4762
    -0.4705  -0.4673  -0.4603  -0.4583  -0.4347  -0.4223  -0.4143  -0.4110
    -0.4078  -0.4040  -0.4015  -0.3998  -0.3978  -0.3967  -0.3927  -0.3887
    -0.3849  -0.3828  -0.3822  -0.3779  -0.3752  -0.3729  -0.3659  -0.3626
    -0.3604  -0.3568  -0.3482  -0.3468  -0.3448  -0.3439  -0.3405  -0.3377
    -0.3328  -0.3303  -0.3215  -0.3194  -0.3163  -0.3134  -0.3127  -0.3121
    -0.3085  -0.3035  -0.2917  -0.2901  -0.2841  -0.2826  -0.2799  -0.2771
    -0.2717  -0.2619  -0.2613  -0.2564  -0.2518  -0.2505  -0.2415  -0.2398
    -0.2337  -0.2283  -0.1936  -0.1831  -0.1778  -0.1688  -0.1501  -0.1409
    -0.0435  -0.0099  -0.0087   0.0102   0.0237   0.0243   0.2360   0.3513
     0.3562   0.3580   0.8731   0.8735   0.9002   0.9134   0.9304   0.9480
     0.9713   0.9857   1.0631   1.2528   1.3148   1.3470   1.3477   1.3921
     1.4333   1.4901   1.5423   1.6759   1.7262   1.7275   1.9352   2.4375
     2.5500   2.5808   2.5893   2.6094   2.6330   2.6590   2.7439   2.7471
     2.7604   2.7612   2.7697   2.7858   2.7918   2.8153   2.8521   2.8692
     2.9291   2.9540   2.9731   3.0006   3.0113   3.0286   3.0648   3.0891
     3.0997   3.1204   3.1527   3.1545   3.1916   3.2305   3.2466   3.2643
     3.5485   3.5751   3.6650   3.8164   3.8369   4.0225   4.0598   4.1527
     4.1667   4.2160   4.2226   4.2243   4.2543   4.2695   4.3092   4.3255
     4.3624   4.3956   4.4059   4.4152   4.4273   4.4437   4.4560   4.4712
     4.4983   4.5196   4.5214   4.5263   4.5512   4.5548   4.5655   4.6015
     5.0200   5.1068   5.1476   5.2392   5.2533   5.2827   5.9383   5.9602
     6.5021   7.7824   8.4735   8.4925   8.7632   8.8000   8.8202   8.8399
     8.9796   9.0081   9.1248   9.5161   9.5561   9.5578   9.6623   9.7651
     9.8309   9.8711   9.9190   9.9323   9.9574  10.0070  10.0198  10.0468
    10.0482  10.1009  10.1119  10.1164  10.1423  10.1591  10.1676  10.1865
    10.2427  10.2510  10.3569  10.5979  10.6460  10.6632  10.9479  11.0240
    11.0754  11.1088  11.1915  11.2440  11.2699  11.3515  11.3582  11.6448
    11.6555  11.6827  11.7799  11.8414  11.8539  11.8696  11.9396  11.9459
    11.9606  11.9622  12.0023

     occupation numbers 
     1.0000   1.0000   1.0000   1.0000   1.0000   1.0000   1.0000   1.0000
     1.0000   1.0000   1.0000   1.0000   1.0000   1.0000   1.0000   1.0000
     1.0000   1.0000   1.0000   1.0000   1.0000   1.0000   1.0000   1.0000
     1.0000   1.0000   1.0000   1.0000   1.0000   1.0000   1.0000   1.0000
     1.0000   1.0000   1.0000   1.0000   1.0000   1.0000   1.0000   1.0000
     1.0000   1.0000   1.0000   1.0000   1.0000   1.0000   1.0000   1.0000
     1.0000   1.0000   1.0000   1.0000   1.0000   1.0000   1.0000   1.0000
     1.0000   1.0000   1.0000   1.0000   1.0000   1.0000   1.0000   1.0000
     1.0000   1.0000   1.0000   1.0000   1.0000   1.0000   1.0000   1.0000
     1.0000   1.0000   1.0000   1.0000   1.0000   1.0000   1.0000   1.0000
     1.0000   1.0000   1.0000   1.0000   1.0000   1.0000   1.0000   1.0000
     1.0000   1.0000   1.0000   1.0000   1.0000   1.0000   1.0000   1.0000
     1.0000   1.0000   1.0000   1.0000   1.0000   1.0000   1.0000   1.0000
     1.0000   1.0000   1.0000   1.0000   1.0000   1.0000   1.0000   1.0000
     1.0000   1.0000   1.0000   1.0000   1.0000   1.0000   1.0000   1.0000
     1.0000   1.0000   1.0000   1.0000   1.0000   1.0000   1.0000   1.0000
     1.0000   1.0000   1.0000   1.0000   1.0000   1.0000   1.0000   1.0000
     1.0000   1.0000   1.0000   1.0000   1.0000   1.0000   1.0000   1.0000
     1.0000   1.0000   1.0000   1.0000   1.0000   1.0000   1.0000   1.0000
     1.0000   1.0000   1.0000   1.0000   1.0000   1.0000   1.0000   1.0000
     1.0000   1.0000   1.0000   1.0000   1.0000   1.0000   1.0000   1.0000
     1.0000   1.0000   1.0000   1.0000   1.0000   1.0000   1.0000   1.0000
     1.0000   1.0000   1.0000   1.0000   1.0000   1.0000   1.0000   1.0000
     1.0000   1.0000   1.0000   1.0000   1.0000   1.0000   1.0000   1.0000
     1.0000   1.0000   1.0000   1.0000   1.0000   1.0000   1.0000   1.0000
     1.0000   1.0000   1.0000   1.0000   1.0000   1.0000   1.0000   1.0000
     1.0000   1.0000   1.0000   1.0000   1.0000   1.0000   1.0000   1.0000
     1.0000   1.0000   1.0000   1.0000   1.0000   1.0000   1.0000   1.0000
     1.0000   1.0000   1.0000   1.0000   1.0000   1.0000   1.0000   1.0000
     1.0000   1.0000   1.0000   1.0000   1.0000   1.0000   1.0000   1.0000
     1.0000   1.0000   1.0000   1.0000   1.0000   1.0000   1.0000   1.0000
     1.0000   1.0000   1.0000   1.0000   1.0000   1.0000   1.0000   1.0000
     1.0000   1.0000   1.0000   1.0000   1.0000   1.0000   1.0000   1.0000
     1.0000   1.0000   1.0000   1.0000   1.0000   1.0000   1.0000   1.0000
     1.0000   1.0000   1.0000   1.0000   1.0000   1.0000   1.0000   1.0000
     1.0000   1.0000   1.0000   1.0000   1.0000   1.0000   1.0000   1.0000
     1.0000   0.0000   0.0000   0.0000   0.0000   0.0000   0.0000   0.0000
     0.0000   0.0000   0.0000   0.0000   0.0000   0.0000   0.0000   0.0000
     0.0000   0.0000   0.0000   0.0000   0.0000   0.0000   0.0000   0.0000
     0.0000   0.0000   0.0000   0.0000   0.0000   0.0000   0.0000   0.0000
     0.0000   0.0000   0.0000   0.0000   0.0000   0.0000   0.0000   0.0000
     0.0000   0.0000   0.0000   0.0000   0.0000   0.0000   0.0000   0.0000
     0.0000   0.0000   0.0000   0.0000   0.0000   0.0000   0.0000   0.0000
     0.0000   0.0000   0.0000

          k = 0.0000 0.0000 0.2500 (269876 PWs)   bands (ev):

  -104.9119 -62.3428 -62.2982 -62.2982  -7.5711  -7.2924  -7.0888  -7.0680
    -7.0584  -7.0224  -6.9127  -6.9053  -6.8784  -6.8775  -6.8309  -6.7957
    -6.7951  -6.7612  -6.7418  -6.7289  -6.7160  -6.7124  -6.6581  -6.6526
    -6.6244  -6.6125  -6.5286  -6.5033  -6.4957  -6.4658  -6.4492  -6.4384
    -6.4199  -6.3716  -6.3533  -0.9186  -0.9084  -0.9076  -0.8925  -0.8793
    -0.8738  -0.8639  -0.8503  -0.8497  -0.8388  -0.8386  -0.8338  -0.8333
    -0.8115  -0.8093  -0.7873  -0.7845  -0.7702  -0.7661  -0.7632  -0.7547
    -0.7519  -0.7495  -0.7428  -0.7396  -0.7389  -0.7329  -0.7325  -0.7302
    -0.7289  -0.7234  -0.7221  -0.7188  -0.7171  -0.7160  -0.7121  -0.7112
    -0.7097  -0.7084  -0.7020  -0.6992  -0.6986  -0.6939  -0.6924  -0.6891
    -0.6885  -0.6838  -0.6773  -0.6760  -0.6695  -0.6669  -0.6642  -0.6622
    -0.6539  -0.6498  -0.6491  -0.6421  -0.6400  -0.6309  -0.6271  -0.6192
    -0.6188  -0.6094  -0.5916  -0.5828  -0.5814  -0.5784  -0.5729  -0.5675
    -0.5650  -0.5407  -0.5388  -0.5321  -0.5287  -0.5208  -0.5145  -0.5117
    -0.5071  -0.5028  -0.5011  -0.4955  -0.4836  -0.4802  -0.4752  -0.4712
    -0.4593  -0.4530  -0.4448  -0.4354  -0.4345  -0.4225  -0.4161  -0.4136
    -0.4054  -0.4002  -0.3974  -0.3971  -0.3941  -0.3896  -0.3868  -0.3835
    -0.3815  -0.3798  -0.3774  -0.3745  -0.3699  -0.3668  -0.3654  -0.3620
    -0.3614  -0.3575  -0.3534  -0.3486  -0.3478  -0.3463  -0.3382  -0.3367
    -0.3327  -0.3299  -0.3249  -0.3210  -0.3166  -0.3159  -0.3116  -0.3072
    -0.3062  -0.2938  -0.2928  -0.2869  -0.2850  -0.2814  -0.2791  -0.2712
    -0.2712  -0.2684  -0.2653  -0.2553  -0.2538  -0.2454  -0.2446  -0.2360
    -0.2357  -0.2313  -0.2158  -0.2097  -0.2045  -0.2008  -0.1494  -0.1337
    -0.0578  -0.0326  -0.0296  -0.0131  -0.0005   0.0023   0.3743   0.4725
     0.4756   0.4791   0.8764   0.8814   0.8928   0.9169   0.9190   0.9332
     0.9795   1.0200   1.0788   1.1847   1.1883   1.2077   1.2118   1.2476
     1.3203   1.3672   1.5181   1.8459   1.8529   1.8951   1.9640   2.2094
     2.4633   2.4861   2.4924   2.5190   2.5581   2.5836   2.6342   2.6448
     2.6518   2.6557   2.7362   2.7739   2.8151   2.8688   2.8689   2.9153
     3.0776   3.1230   3.1354   3.1442   3.1637   3.1752   3.2026   3.2070
     3.2140   3.2346   3.2533   3.2886   3.3056   3.3201   3.3325   3.4265
     3.5417   3.6086   3.7023   3.8027   3.8549   3.8742   3.9294   4.0664
     4.0938   4.1326   4.1414   4.1867   4.2035   4.2439   4.2505   4.2724
     4.3042   4.3063   4.3321   4.3330   4.3682   4.4462   4.4743   4.4791
     4.4995   4.5244   4.5428   4.5503   4.5652   4.5926   4.6039   4.6182
     4.8848   5.0415   5.0941   5.1777   5.2486   5.2516   5.8878   5.9458
     6.6328   7.9495   8.4395   8.4979   8.8910   8.9206   8.9499   8.9779
     9.0718   9.1637   9.2314   9.4480   9.5088   9.6212   9.6919   9.6947
     9.8097   9.8874   9.9016   9.9256   9.9307   9.9645  10.0345  10.0480
    10.0764  10.1317  10.1319  10.1685  10.1851  10.2013  10.2264  10.2461
    10.3010  10.3222  10.4291  10.5424  10.5849  10.6817  10.6842  10.8286
    10.8808  10.9454  11.0083  11.1886  11.2011  11.2704  11.4282  11.5613
    11.5912  11.5988  11.6591  11.6989  11.7439  11.7460  11.7768  11.8367
    11.8558  11.8911  11.8929

     occupation numbers 
     1.0000   1.0000   1.0000   1.0000   1.0000   1.0000   1.0000   1.0000
     1.0000   1.0000   1.0000   1.0000   1.0000   1.0000   1.0000   1.0000
     1.0000   1.0000   1.0000   1.0000   1.0000   1.0000   1.0000   1.0000
     1.0000   1.0000   1.0000   1.0000   1.0000   1.0000   1.0000   1.0000
     1.0000   1.0000   1.0000   1.0000   1.0000   1.0000   1.0000   1.0000
     1.0000   1.0000   1.0000   1.0000   1.0000   1.0000   1.0000   1.0000
     1.0000   1.0000   1.0000   1.0000   1.0000   1.0000   1.0000   1.0000
     1.0000   1.0000   1.0000   1.0000   1.0000   1.0000   1.0000   1.0000
     1.0000   1.0000   1.0000   1.0000   1.0000   1.0000   1.0000   1.0000
     1.0000   1.0000   1.0000   1.0000   1.0000   1.0000   1.0000   1.0000
     1.0000   1.0000   1.0000   1.0000   1.0000   1.0000   1.0000   1.0000
     1.0000   1.0000   1.0000   1.0000   1.0000   1.0000   1.0000   1.0000
     1.0000   1.0000   1.0000   1.0000   1.0000   1.0000   1.0000   1.0000
     1.0000   1.0000   1.0000   1.0000   1.0000   1.0000   1.0000   1.0000
     1.0000   1.0000   1.0000   1.0000   1.0000   1.0000   1.0000   1.0000
     1.0000   1.0000   1.0000   1.0000   1.0000   1.0000   1.0000   1.0000
     1.0000   1.0000   1.0000   1.0000   1.0000   1.0000   1.0000   1.0000
     1.0000   1.0000   1.0000   1.0000   1.0000   1.0000   1.0000   1.0000
     1.0000   1.0000   1.0000   1.0000   1.0000   1.0000   1.0000   1.0000
     1.0000   1.0000   1.0000   1.0000   1.0000   1.0000   1.0000   1.0000
     1.0000   1.0000   1.0000   1.0000   1.0000   1.0000   1.0000   1.0000
     1.0000   1.0000   1.0000   1.0000   1.0000   1.0000   1.0000   1.0000
     1.0000   1.0000   1.0000   1.0000   1.0000   1.0000   1.0000   1.0000
     1.0000   1.0000   1.0000   1.0000   1.0000   1.0000   1.0000   1.0000
     1.0000   1.0000   1.0000   1.0000   1.0000   1.0000   1.0000   1.0000
     1.0000   1.0000   1.0000   1.0000   1.0000   1.0000   1.0000   1.0000
     1.0000   1.0000   1.0000   1.0000   1.0000   1.0000   1.0000   1.0000
     1.0000   1.0000   1.0000   1.0000   1.0000   1.0000   1.0000   1.0000
     1.0000   1.0000   1.0000   1.0000   1.0000   1.0000   1.0000   1.0000
     1.0000   1.0000   1.0000   1.0000   1.0000   1.0000   1.0000   1.0000
     1.0000   1.0000   1.0000   1.0000   1.0000   1.0000   1.0000   1.0000
     1.0000   1.0000   1.0000   1.0000   1.0000   1.0000   1.0000   1.0000
     1.0000   1.0000   1.0000   1.0000   1.0000   1.0000   1.0000   1.0000
     1.0000   1.0000   1.0000   1.0000   1.0000   1.0000   1.0000   1.0000
     1.0000   1.0000   1.0000   1.0000   1.0000   1.0000   1.0000   1.0000
     1.0000   1.0000   1.0000   1.0000   1.0000   1.0000   1.0000   1.0000
     1.0000   0.0000   0.0000   0.0000   0.0000   0.0000   0.0000   0.0000
     0.0000   0.0000   0.0000   0.0000   0.0000   0.0000   0.0000   0.0000
     0.0000   0.0000   0.0000   0.0000   0.0000   0.0000   0.0000   0.0000
     0.0000   0.0000   0.0000   0.0000   0.0000   0.0000   0.0000   0.0000
     0.0000   0.0000   0.0000   0.0000   0.0000   0.0000   0.0000   0.0000
     0.0000   0.0000   0.0000   0.0000   0.0000   0.0000   0.0000   0.0000
     0.0000   0.0000   0.0000   0.0000   0.0000   0.0000   0.0000   0.0000
     0.0000   0.0000   0.0000

          k = 0.0000 0.0000 0.3750 (269944 PWs)   bands (ev):

  -104.9119 -62.3428 -62.2982 -62.2982  -7.5274  -7.3799  -7.0628  -7.0425
    -7.0327  -7.0069  -6.9632  -6.9462  -6.9289  -6.8938  -6.7950  -6.7943
    -6.7684  -6.7550  -6.7408  -6.7296  -6.7134  -6.7052  -6.6413  -6.6022
    -6.5782  -6.5732  -6.5615  -6.5126  -6.4957  -6.4795  -6.4773  -6.4576
    -6.4195  -6.3905  -6.3557  -0.9170  -0.8969  -0.8939  -0.8857  -0.8751
    -0.8660  -0.8655  -0.8506  -0.8471  -0.8343  -0.8267  -0.8236  -0.8231
    -0.8125  -0.8070  -0.7966  -0.7956  -0.7752  -0.7721  -0.7697  -0.7643
    -0.7593  -0.7544  -0.7543  -0.7482  -0.7441  -0.7437  -0.7388  -0.7332
    -0.7314  -0.7238  -0.7236  -0.7224  -0.7202  -0.7184  -0.7160  -0.7159
    -0.7116  -0.7114  -0.7028  -0.7010  -0.7002  -0.6959  -0.6941  -0.6881
    -0.6881  -0.6833  -0.6815  -0.6759  -0.6732  -0.6680  -0.6653  -0.6614
    -0.6582  -0.6529  -0.6513  -0.6408  -0.6368  -0.6320  -0.6224  -0.6216
    -0.6145  -0.6009  -0.5971  -0.5917  -0.5843  -0.5809  -0.5754  -0.5669
    -0.5643  -0.5494  -0.5394  -0.5275  -0.5227  -0.5204  -0.5135  -0.5080
    -0.5038  -0.5032  -0.4936  -0.4875  -0.4793  -0.4736  -0.4689  -0.4674
    -0.4522  -0.4469  -0.4449  -0.4267  -0.4243  -0.4171  -0.4162  -0.4114
    -0.4060  -0.3982  -0.3976  -0.3951  -0.3907  -0.3902  -0.3862  -0.3837
    -0.3823  -0.3760  -0.3759  -0.3727  -0.3726  -0.3665  -0.3661  -0.3632
    -0.3627  -0.3568  -0.3560  -0.3513  -0.3506  -0.3472  -0.3405  -0.3402
    -0.3342  -0.3320  -0.3275  -0.3225  -0.3189  -0.3153  -0.3112  -0.3076
    -0.3036  -0.2972  -0.2956  -0.2904  -0.2856  -0.2847  -0.2838  -0.2757
    -0.2747  -0.2674  -0.2638  -0.2605  -0.2581  -0.2524  -0.2486  -0.2406
    -0.2356  -0.2324  -0.2106  -0.1892  -0.1833  -0.1805  -0.1285  -0.1121
    -0.0733  -0.0674  -0.0626  -0.0519  -0.0322  -0.0284   0.5461   0.6250
     0.6355   0.6424   0.8509   0.8858   0.8930   0.9225   0.9232   0.9417
     0.9663   0.9677   1.0101   1.0469   1.0541   1.0787   1.0902   1.1814
     1.2471   1.3206   1.5048   1.8229   2.0182   2.0288   2.0892   2.1616
     2.3761   2.3863   2.4450   2.4710   2.4767   2.4985   2.5131   2.5275
     2.5287   2.5788   2.7000   2.7445   2.8848   2.9196   2.9375   2.9498
     3.0825   3.1007   3.1115   3.1508   3.2792   3.2896   3.3856   3.3973
     3.4303   3.4313   3.4698   3.4915   3.4928   3.5195   3.5395   3.5792
     3.6094   3.6763   3.7235   3.7511   3.7856   3.8276   3.8948   3.9163
     3.9194   3.9444   3.9852   4.0186   4.0536   4.0595   4.1486   4.1719
     4.2642   4.2644   4.3151   4.3596   4.4142   4.4476   4.4694   4.4743
     4.4993   4.5185   4.5256   4.5500   4.5540   4.5946   4.6103   4.7269
     4.7521   5.0164   5.0222   5.0987   5.2313   5.2493   5.8476   5.9311
     6.7493   8.0712   8.4953   8.5190   9.0045   9.0757   9.1450   9.1911
     9.2040   9.2580   9.3662   9.3906   9.4165   9.6203   9.6866   9.7015
     9.7441   9.8188   9.8816   9.9035   9.9333   9.9866   9.9924  10.0306
    10.0381  10.0919  10.1051  10.1701  10.2586  10.2678  10.2834  10.3991
    10.4113  10.4187  10.4790  10.5032  10.5633  10.5793  10.6291  10.6923
    10.7824  10.7834  10.9104  11.0813  11.0992  11.1531  11.2610  11.3525
    11.3745  11.3759  11.4900  11.5318  11.6005  11.6626  11.6977  11.7652
    11.8149  11.8160  11.8743

     occupation numbers 
     1.0000   1.0000   1.0000   1.0000   1.0000   1.0000   1.0000   1.0000
     1.0000   1.0000   1.0000   1.0000   1.0000   1.0000   1.0000   1.0000
     1.0000   1.0000   1.0000   1.0000   1.0000   1.0000   1.0000   1.0000
     1.0000   1.0000   1.0000   1.0000   1.0000   1.0000   1.0000   1.0000
     1.0000   1.0000   1.0000   1.0000   1.0000   1.0000   1.0000   1.0000
     1.0000   1.0000   1.0000   1.0000   1.0000   1.0000   1.0000   1.0000
     1.0000   1.0000   1.0000   1.0000   1.0000   1.0000   1.0000   1.0000
     1.0000   1.0000   1.0000   1.0000   1.0000   1.0000   1.0000   1.0000
     1.0000   1.0000   1.0000   1.0000   1.0000   1.0000   1.0000   1.0000
     1.0000   1.0000   1.0000   1.0000   1.0000   1.0000   1.0000   1.0000
     1.0000   1.0000   1.0000   1.0000   1.0000   1.0000   1.0000   1.0000
     1.0000   1.0000   1.0000   1.0000   1.0000   1.0000   1.0000   1.0000
     1.0000   1.0000   1.0000   1.0000   1.0000   1.0000   1.0000   1.0000
     1.0000   1.0000   1.0000   1.0000   1.0000   1.0000   1.0000   1.0000
     1.0000   1.0000   1.0000   1.0000   1.0000   1.0000   1.0000   1.0000
     1.0000   1.0000   1.0000   1.0000   1.0000   1.0000   1.0000   1.0000
     1.0000   1.0000   1.0000   1.0000   1.0000   1.0000   1.0000   1.0000
     1.0000   1.0000   1.0000   1.0000   1.0000   1.0000   1.0000   1.0000
     1.0000   1.0000   1.0000   1.0000   1.0000   1.0000   1.0000   1.0000
     1.0000   1.0000   1.0000   1.0000   1.0000   1.0000   1.0000   1.0000
     1.0000   1.0000   1.0000   1.0000   1.0000   1.0000   1.0000   1.0000
     1.0000   1.0000   1.0000   1.0000   1.0000   1.0000   1.0000   1.0000
     1.0000   1.0000   1.0000   1.0000   1.0000   1.0000   1.0000   1.0000
     1.0000   1.0000   1.0000   1.0000   1.0000   1.0000   1.0000   1.0000
     1.0000   1.0000   1.0000   1.0000   1.0000   1.0000   1.0000   1.0000
     1.0000   1.0000   1.0000   1.0000   1.0000   1.0000   1.0000   1.0000
     1.0000   1.0000   1.0000   1.0000   1.0000   1.0000   1.0000   1.0000
     1.0000   1.0000   1.0000   1.0000   1.0000   1.0000   1.0000   1.0000
     1.0000   1.0000   1.0000   1.0000   1.0000   1.0000   1.0000   1.0000
     1.0000   1.0000   1.0000   1.0000   1.0000   1.0000   1.0000   1.0000
     1.0000   1.0000   1.0000   1.0000   1.0000   1.0000   1.0000   1.0000
     1.0000   1.0000   1.0000   1.0000   1.0000   1.0000   1.0000   1.0000
     1.0000   1.0000   1.0000   1.0000   1.0000   1.0000   1.0000   1.0000
     1.0000   1.0000   1.0000   1.0000   1.0000   1.0000   1.0000   1.0000
     1.0000   1.0000   1.0000   1.0000   1.0000   1.0000   1.0000   1.0000
     1.0000   1.0000   1.0000   1.0000   1.0000   1.0000   1.0000   1.0000
     1.0000   0.0000   0.0000   0.0000   0.0000   0.0000   0.0000   0.0000
     0.0000   0.0000   0.0000   0.0000   0.0000   0.0000   0.0000   0.0000
     0.0000   0.0000   0.0000   0.0000   0.0000   0.0000   0.0000   0.0000
     0.0000   0.0000   0.0000   0.0000   0.0000   0.0000   0.0000   0.0000
     0.0000   0.0000   0.0000   0.0000   0.0000   0.0000   0.0000   0.0000
     0.0000   0.0000   0.0000   0.0000   0.0000   0.0000   0.0000   0.0000
     0.0000   0.0000   0.0000   0.0000   0.0000   0.0000   0.0000   0.0000
     0.0000   0.0000   0.0000

          k = 0.0000 0.0000-0.5000 (270152 PWs)   bands (ev):

  -104.9119 -62.3428 -62.2982 -62.2982  -7.4851  -7.4370  -7.0421  -7.0207
    -7.0119  -7.0026  -6.9937  -6.9701  -6.9567  -6.9076  -6.7949  -6.7938
    -6.7646  -6.7410  -6.7304  -6.7222  -6.7129  -6.6890  -6.6287  -6.6113
    -6.5709  -6.5556  -6.5312  -6.5285  -6.5121  -6.4875  -6.4869  -6.4659
    -6.4188  -6.4004  -6.3566  -0.9163  -0.8908  -0.8851  -0.8833  -0.8716
    -0.8668  -0.8628  -0.8524  -0.8505  -0.8290  -0.8274  -0.8153  -0.8098
    -0.8090  -0.8049  -0.8030  -0.7999  -0.7815  -0.7810  -0.7746  -0.7732
    -0.7680  -0.7578  -0.7561  -0.7508  -0.7456  -0.7454  -0.7426  -0.7359
    -0.7313  -0.7241  -0.7237  -0.7233  -0.7214  -0.7194  -0.7164  -0.7156
    -0.7128  -0.7119  -0.7031  -0.7019  -0.7004  -0.6972  -0.6940  -0.6876
    -0.6866  -0.6846  -0.6830  -0.6756  -0.6752  -0.6653  -0.6650  -0.6642
    -0.6601  -0.6531  -0.6513  -0.6418  -0.6348  -0.6278  -0.6246  -0.6239
    -0.6052  -0.6043  -0.6012  -0.5899  -0.5841  -0.5781  -0.5764  -0.5692
    -0.5606  -0.5576  -0.5408  -0.5270  -0.5210  -0.5200  -0.5146  -0.5086
    -0.5038  -0.4951  -0.4927  -0.4843  -0.4715  -0.4676  -0.4602  -0.4572
    -0.4529  -0.4477  -0.4449  -0.4318  -0.4241  -0.4192  -0.4158  -0.4119
    -0.4094  -0.4013  -0.4007  -0.3940  -0.3912  -0.3898  -0.3854  -0.3843
    -0.3819  -0.3797  -0.3760  -0.3727  -0.3727  -0.3685  -0.3650  -0.3640
    -0.3636  -0.3607  -0.3563  -0.3521  -0.3490  -0.3488  -0.3431  -0.3403
    -0.3354  -0.3321  -0.3248  -0.3227  -0.3208  -0.3146  -0.3117  -0.3035
    -0.3035  -0.3027  -0.2966  -0.2946  -0.2897  -0.2845  -0.2833  -0.2770
    -0.2750  -0.2733  -0.2650  -0.2631  -0.2581  -0.2544  -0.2522  -0.2405
    -0.2356  -0.2323  -0.2186  -0.1458  -0.1367  -0.1312  -0.1207  -0.1157
    -0.1049  -0.0901  -0.0853  -0.0779  -0.0513  -0.0441   0.6719   0.7672
     0.7845   0.7913   0.7995   0.8365   0.8515   0.8693   0.8920   0.9247
     0.9284   0.9311   0.9658   0.9822   0.9863   0.9996   1.0208   1.2034
     1.2036   1.3773   1.5150   1.7146   2.0751   2.1459   2.2282   2.2743
     2.2947   2.3005   2.3054   2.4405   2.4539   2.4726   2.4731   2.4769
     2.4828   2.5547   2.6846   2.7250   2.9357   2.9651   2.9659   2.9761
     3.0329   3.0630   3.1012   3.1324   3.3011   3.3474   3.4939   3.5178
     3.5350   3.5898   3.6010   3.6713   3.6827   3.6879   3.6946   3.7034
     3.7078   3.7086   3.7228   3.7228   3.7444   3.7490   3.7604   3.7792
     3.7960   3.7989   3.8205   3.8414   3.8701   4.0331   4.1500   4.1532
     4.2043   4.2800   4.3288   4.3715   4.3847   4.4476   4.4711   4.4785
     4.4970   4.5035   4.5071   4.5251   4.5283   4.5530   4.5572   4.8019
     4.8557   4.9588   4.9649   5.0739   5.2249   5.2483   5.8325   5.9250
     6.7962   8.0834   8.4929   8.7325   8.8496   9.1321   9.1793   9.2853
     9.3787   9.4173   9.4258   9.4679   9.4962   9.5419   9.5992   9.6415
     9.6861   9.7142   9.7987   9.8348   9.8973  10.0262  10.0325  10.0404
    10.0422  10.0704  10.1463  10.1606  10.2065  10.2395  10.3558  10.3644
    10.4014  10.5031  10.5442  10.5699  10.6037  10.6141  10.7139  10.7261
    10.7434  10.7871  10.8579  10.8846  11.0030  11.0144  11.0996  11.2321
    11.2614  11.3212  11.3433  11.5806  11.6325  11.6539  11.6732  11.6787
    11.8188  11.8246  11.8837

     occupation numbers 
     1.0000   1.0000   1.0000   1.0000   1.0000   1.0000   1.0000   1.0000
     1.0000   1.0000   1.0000   1.0000   1.0000   1.0000   1.0000   1.0000
     1.0000   1.0000   1.0000   1.0000   1.0000   1.0000   1.0000   1.0000
     1.0000   1.0000   1.0000   1.0000   1.0000   1.0000   1.0000   1.0000
     1.0000   1.0000   1.0000   1.0000   1.0000   1.0000   1.0000   1.0000
     1.0000   1.0000   1.0000   1.0000   1.0000   1.0000   1.0000   1.0000
     1.0000   1.0000   1.0000   1.0000   1.0000   1.0000   1.0000   1.0000
     1.0000   1.0000   1.0000   1.0000   1.0000   1.0000   1.0000   1.0000
     1.0000   1.0000   1.0000   1.0000   1.0000   1.0000   1.0000   1.0000
     1.0000   1.0000   1.0000   1.0000   1.0000   1.0000   1.0000   1.0000
     1.0000   1.0000   1.0000   1.0000   1.0000   1.0000   1.0000   1.0000
     1.0000   1.0000   1.0000   1.0000   1.0000   1.0000   1.0000   1.0000
     1.0000   1.0000   1.0000   1.0000   1.0000   1.0000   1.0000   1.0000
     1.0000   1.0000   1.0000   1.0000   1.0000   1.0000   1.0000   1.0000
     1.0000   1.0000   1.0000   1.0000   1.0000   1.0000   1.0000   1.0000
     1.0000   1.0000   1.0000   1.0000   1.0000   1.0000   1.0000   1.0000
     1.0000   1.0000   1.0000   1.0000   1.0000   1.0000   1.0000   1.0000
     1.0000   1.0000   1.0000   1.0000   1.0000   1.0000   1.0000   1.0000
     1.0000   1.0000   1.0000   1.0000   1.0000   1.0000   1.0000   1.0000
     1.0000   1.0000   1.0000   1.0000   1.0000   1.0000   1.0000   1.0000
     1.0000   1.0000   1.0000   1.0000   1.0000   1.0000   1.0000   1.0000
     1.0000   1.0000   1.0000   1.0000   1.0000   1.0000   1.0000   1.0000
     1.0000   1.0000   1.0000   1.0000   1.0000   1.0000   1.0000   1.0000
     1.0000   1.0000   1.0000   1.0000   1.0000   1.0000   1.0000   1.0000
     1.0000   1.0000   1.0000   1.0000   1.0000   1.0000   1.0000   1.0000
     1.0000   1.0000   1.0000   1.0000   1.0000   1.0000   1.0000   1.0000
     1.0000   1.0000   1.0000   1.0000   1.0000   1.0000   1.0000   1.0000
     1.0000   1.0000   1.0000   1.0000   1.0000   1.0000   1.0000   1.0000
     1.0000   1.0000   1.0000   1.0000   1.0000   1.0000   1.0000   1.0000
     1.0000   1.0000   1.0000   1.0000   1.0000   1.0000   1.0000   1.0000
     1.0000   1.0000   1.0000   1.0000   1.0000   1.0000   1.0000   1.0000
     1.0000   1.0000   1.0000   1.0000   1.0000   1.0000   1.0000   1.0000
     1.0000   1.0000   1.0000   1.0000   1.0000   1.0000   1.0000   1.0000
     1.0000   1.0000   1.0000   1.0000   1.0000   1.0000   1.0000   1.0000
     1.0000   1.0000   1.0000   1.0000   1.0000   1.0000   1.0000   1.0000
     1.0000   1.0000   1.0000   1.0000   1.0000   1.0000   1.0000   1.0000
     1.0000   0.0000   0.0000   0.0000   0.0000   0.0000   0.0000   0.0000
     0.0000   0.0000   0.0000   0.0000   0.0000   0.0000   0.0000   0.0000
     0.0000   0.0000   0.0000   0.0000   0.0000   0.0000   0.0000   0.0000
     0.0000   0.0000   0.0000   0.0000   0.0000   0.0000   0.0000   0.0000
     0.0000   0.0000   0.0000   0.0000   0.0000   0.0000   0.0000   0.0000
     0.0000   0.0000   0.0000   0.0000   0.0000   0.0000   0.0000   0.0000
     0.0000   0.0000   0.0000   0.0000   0.0000   0.0000   0.0000   0.0000
     0.0000   0.0000   0.0000

          k = 0.0000 0.1250 0.1250 (269949 PWs)   bands (ev):

  -104.9119 -62.3428 -62.2982 -62.2982  -7.5892  -7.2014  -7.1733  -7.0843
    -7.0549  -6.9768  -6.9513  -6.9015  -6.8507  -6.8358  -6.8315  -6.8187
    -6.7807  -6.7561  -6.7404  -6.7273  -6.7206  -6.7054  -6.6949  -6.6692
    -6.6646  -6.6341  -6.5171  -6.4997  -6.4933  -6.4594  -6.4330  -6.4263
    -6.4252  -6.3594  -6.3543  -0.9171  -0.9164  -0.9140  -0.8963  -0.8802
    -0.8790  -0.8615  -0.8583  -0.8479  -0.8446  -0.8439  -0.8391  -0.8314
    -0.8112  -0.8109  -0.7814  -0.7794  -0.7668  -0.7664  -0.7572  -0.7550
    -0.7474  -0.7463  -0.7425  -0.7340  -0.7323  -0.7310  -0.7299  -0.7274
    -0.7260  -0.7240  -0.7213  -0.7196  -0.7165  -0.7124  -0.7116  -0.7089
    -0.7048  -0.7040  -0.7018  -0.6981  -0.6956  -0.6939  -0.6902  -0.6877
    -0.6846  -0.6844  -0.6768  -0.6763  -0.6701  -0.6701  -0.6621  -0.6594
    -0.6579  -0.6523  -0.6469  -0.6424  -0.6341  -0.6317  -0.6247  -0.6214
    -0.6063  -0.5952  -0.5940  -0.5812  -0.5775  -0.5756  -0.5708  -0.5700
    -0.5630  -0.5531  -0.5430  -0.5358  -0.5258  -0.5195  -0.5183  -0.5162
    -0.5087  -0.5063  -0.4989  -0.4989  -0.4882  -0.4838  -0.4779  -0.4746
    -0.4618  -0.4587  -0.4581  -0.4430  -0.4272  -0.4257  -0.4186  -0.4110
    -0.4103  -0.4030  -0.4002  -0.3971  -0.3963  -0.3925  -0.3906  -0.3888
    -0.3823  -0.3823  -0.3794  -0.3764  -0.3726  -0.3706  -0.3653  -0.3628
    -0.3594  -0.3553  -0.3504  -0.3466  -0.3441  -0.3436  -0.3423  -0.3366
    -0.3321  -0.3309  -0.3245  -0.3198  -0.3154  -0.3136  -0.3117  -0.3089
    -0.3066  -0.2995  -0.2913  -0.2909  -0.2862  -0.2822  -0.2813  -0.2777
    -0.2699  -0.2667  -0.2610  -0.2565  -0.2506  -0.2502  -0.2453  -0.2381
    -0.2338  -0.2335  -0.2234  -0.2086  -0.1667  -0.1596  -0.1551  -0.1292
    -0.0465  -0.0171  -0.0150   0.0022   0.0171   0.0172   0.2582   0.3366
     0.4198   0.4522   0.8713   0.8774   0.9063   0.9153   0.9387   0.9560
     0.9560   1.0145   1.0301   1.1948   1.2373   1.2527   1.2899   1.3932
     1.4962   1.5124   1.5731   1.5931   1.7289   1.7964   1.9508   2.3995
     2.4185   2.5365   2.5584   2.5706   2.5967   2.6282   2.6515   2.6619
     2.6995   2.7701   2.7858   2.8640   2.8848   2.8996   2.9337   2.9407
     2.9558   2.9614   2.9894   3.0266   3.0296   3.0739   3.1058   3.1167
     3.1556   3.1966   3.2007   3.2117   3.2427   3.2460   3.2625   3.2814
     3.5316   3.5764   3.6648   3.8504   3.8560   3.9586   4.0342   4.0798
     4.0950   4.1915   4.1971   4.2292   4.2751   4.3068   4.3076   4.3311
     4.3450   4.3776   4.3832   4.3847   4.3965   4.4418   4.4427   4.4457
     4.4675   4.4679   4.5202   4.5330   4.5509   4.5613   4.5867   4.6722
     4.9868   5.0621   5.1591   5.1937   5.2413   5.2538   5.9386   5.9637
     6.5441   7.8503   8.4748   8.5180   8.7734   8.8217   8.8945   8.8971
     9.0305   9.0307   9.1293   9.5564   9.5677   9.6006   9.6669   9.7636
     9.7868   9.8113   9.8548   9.9003   9.9608   9.9770  10.0292  10.0571
    10.0664  10.0871  10.1105  10.1269  10.1571  10.1689  10.2179  10.2535
    10.2693  10.3252  10.3527  10.5731  10.6207  10.6755  10.7918  10.9456
    11.0139  11.0753  11.1494  11.2155  11.2218  11.3394  11.3714  11.5985
    11.6164  11.6467  11.7666  11.8073  11.8132  11.8544  11.8820  11.8998
    11.9273  11.9485  11.9514

     occupation numbers 
     1.0000   1.0000   1.0000   1.0000   1.0000   1.0000   1.0000   1.0000
     1.0000   1.0000   1.0000   1.0000   1.0000   1.0000   1.0000   1.0000
     1.0000   1.0000   1.0000   1.0000   1.0000   1.0000   1.0000   1.0000
     1.0000   1.0000   1.0000   1.0000   1.0000   1.0000   1.0000   1.0000
     1.0000   1.0000   1.0000   1.0000   1.0000   1.0000   1.0000   1.0000
     1.0000   1.0000   1.0000   1.0000   1.0000   1.0000   1.0000   1.0000
     1.0000   1.0000   1.0000   1.0000   1.0000   1.0000   1.0000   1.0000
     1.0000   1.0000   1.0000   1.0000   1.0000   1.0000   1.0000   1.0000
     1.0000   1.0000   1.0000   1.0000   1.0000   1.0000   1.0000   1.0000
     1.0000   1.0000   1.0000   1.0000   1.0000   1.0000   1.0000   1.0000
     1.0000   1.0000   1.0000   1.0000   1.0000   1.0000   1.0000   1.0000
     1.0000   1.0000   1.0000   1.0000   1.0000   1.0000   1.0000   1.0000
     1.0000   1.0000   1.0000   1.0000   1.0000   1.0000   1.0000   1.0000
     1.0000   1.0000   1.0000   1.0000   1.0000   1.0000   1.0000   1.0000
     1.0000   1.0000   1.0000   1.0000   1.0000   1.0000   1.0000   1.0000
     1.0000   1.0000   1.0000   1.0000   1.0000   1.0000   1.0000   1.0000
     1.0000   1.0000   1.0000   1.0000   1.0000   1.0000   1.0000   1.0000
     1.0000   1.0000   1.0000   1.0000   1.0000   1.0000   1.0000   1.0000
     1.0000   1.0000   1.0000   1.0000   1.0000   1.0000   1.0000   1.0000
     1.0000   1.0000   1.0000   1.0000   1.0000   1.0000   1.0000   1.0000
     1.0000   1.0000   1.0000   1.0000   1.0000   1.0000   1.0000   1.0000
     1.0000   1.0000   1.0000   1.0000   1.0000   1.0000   1.0000   1.0000
     1.0000   1.0000   1.0000   1.0000   1.0000   1.0000   1.0000   1.0000
     1.0000   1.0000   1.0000   1.0000   1.0000   1.0000   1.0000   1.0000
     1.0000   1.0000   1.0000   1.0000   1.0000   1.0000   1.0000   1.0000
     1.0000   1.0000   1.0000   1.0000   1.0000   1.0000   1.0000   1.0000
     1.0000   1.0000   1.0000   1.0000   1.0000   1.0000   1.0000   1.0000
     1.0000   1.0000   1.0000   1.0000   1.0000   1.0000   1.0000   1.0000
     1.0000   1.0000   1.0000   1.0000   1.0000   1.0000   1.0000   1.0000
     1.0000   1.0000   1.0000   1.0000   1.0000   1.0000   1.0000   1.0000
     1.0000   1.0000   1.0000   1.0000   1.0000   1.0000   1.0000   1.0000
     1.0000   1.0000   1.0000   1.0000   1.0000   1.0000   1.0000   1.0000
     1.0000   1.0000   1.0000   1.0000   1.0000   1.0000   1.0000   1.0000
     1.0000   1.0000   1.0000   1.0000   1.0000   1.0000   1.0000   1.0000
     1.0000   1.0000   1.0000   1.0000   1.0000   1.0000   1.0000   1.0000
     1.0000   1.0000   1.0000   1.0000   1.0000   1.0000   1.0000   1.0000
     1.0000   0.0000   0.0000   0.0000   0.0000   0.0000   0.0000   0.0000
     0.0000   0.0000   0.0000   0.0000   0.0000   0.0000   0.0000   0.0000
     0.0000   0.0000   0.0000   0.0000   0.0000   0.0000   0.0000   0.0000
     0.0000   0.0000   0.0000   0.0000   0.0000   0.0000   0.0000   0.0000
     0.0000   0.0000   0.0000   0.0000   0.0000   0.0000   0.0000   0.0000
     0.0000   0.0000   0.0000   0.0000   0.0000   0.0000   0.0000   0.0000
     0.0000   0.0000   0.0000   0.0000   0.0000   0.0000   0.0000   0.0000
     0.0000   0.0000   0.0000

          k = 0.0000 0.1250 0.2500 (269913 PWs)   bands (ev):

  -104.9119 -62.3428 -62.2982 -62.2982  -7.5620  -7.2866  -7.1660  -7.0689
    -7.0393  -6.9750  -6.9445  -6.8944  -6.8861  -6.8485  -6.8361  -6.8236
    -6.7926  -6.7565  -6.7460  -6.7241  -6.6990  -6.6870  -6.6652  -6.6540
    -6.6249  -6.5961  -6.5274  -6.5061  -6.4978  -6.4704  -6.4526  -6.4412
    -6.4260  -6.3745  -6.3580  -0.9152  -0.9074  -0.9049  -0.8903  -0.8773
    -0.8728  -0.8607  -0.8499  -0.8469  -0.8383  -0.8361  -0.8346  -0.8316
    -0.8117  -0.8097  -0.7870  -0.7822  -0.7732  -0.7672  -0.7650  -0.7567
    -0.7521  -0.7489  -0.7449  -0.7427  -0.7397  -0.7351  -0.7327  -0.7310
    -0.7291  -0.7271  -0.7239  -0.7215  -0.7193  -0.7170  -0.7137  -0.7123
    -0.7097  -0.7068  -0.7043  -0.7024  -0.6978  -0.6963  -0.6957  -0.6887
    -0.6880  -0.6855  -0.6808  -0.6751  -0.6701  -0.6682  -0.6630  -0.6584
    -0.6555  -0.6508  -0.6479  -0.6431  -0.6373  -0.6344  -0.6229  -0.6154
    -0.6124  -0.6068  -0.5909  -0.5860  -0.5830  -0.5776  -0.5743  -0.5697
    -0.5647  -0.5560  -0.5428  -0.5393  -0.5277  -0.5228  -0.5170  -0.5113
    -0.5083  -0.5058  -0.4981  -0.4962  -0.4879  -0.4793  -0.4749  -0.4699
    -0.4552  -0.4494  -0.4403  -0.4319  -0.4288  -0.4220  -0.4185  -0.4125
    -0.4063  -0.3999  -0.3981  -0.3952  -0.3907  -0.3890  -0.3870  -0.3849
    -0.3816  -0.3785  -0.3763  -0.3726  -0.3699  -0.3684  -0.3651  -0.3614
    -0.3592  -0.3579  -0.3545  -0.3497  -0.3477  -0.3437  -0.3421  -0.3366
    -0.3351  -0.3314  -0.3288  -0.3210  -0.3194  -0.3159  -0.3100  -0.3082
    -0.3024  -0.3003  -0.2924  -0.2903  -0.2863  -0.2831  -0.2813  -0.2769
    -0.2744  -0.2662  -0.2627  -0.2566  -0.2519  -0.2489  -0.2429  -0.2386
    -0.2335  -0.2281  -0.2158  -0.1979  -0.1881  -0.1713  -0.1443  -0.1262
    -0.0583  -0.0422  -0.0341  -0.0218  -0.0025  -0.0014   0.3429   0.4074
     0.5657   0.5957   0.8634   0.8834   0.8877   0.9176   0.9256   0.9501
     0.9874   1.0037   1.0725   1.0812   1.0969   1.1388   1.1952   1.3302
     1.3818   1.4370   1.5396   1.7161   1.8106   1.8811   2.0205   2.1903
     2.3491   2.4681   2.4738   2.5048   2.5167   2.5609   2.6043   2.6413
     2.6922   2.7079   2.7475   2.8010   2.8701   2.9083   2.9697   3.0150
     3.0400   3.0728   3.1052   3.1283   3.1590   3.1786   3.1963   3.2259
     3.2452   3.2646   3.2734   3.3140   3.3583   3.3847   3.4402   3.4509
     3.5307   3.6075   3.6938   3.8076   3.8639   3.8894   3.9219   3.9945
     4.0770   4.1134   4.1414   4.1555   4.1668   4.1846   4.2381   4.2437
     4.2714   4.3128   4.3289   4.3505   4.3692   4.4029   4.4442   4.4522
     4.4912   4.5250   4.5439   4.5568   4.5802   4.5871   4.6233   4.7185
     4.7928   5.0312   5.1105   5.1435   5.2336   5.2459   5.9081   5.9517
     6.6476   8.0105   8.4586   8.5054   8.8790   8.9185   9.0306   9.0549
     9.1169   9.1747   9.2068   9.4767   9.5527   9.6493   9.6954   9.7388
     9.7755   9.8302   9.8594   9.8852   9.9145   9.9386   9.9735  10.0072
    10.0398  10.0473  10.1143  10.1511  10.1766  10.2497  10.2970  10.3335
    10.3533  10.4036  10.4412  10.5178  10.5575  10.6078  10.6749  10.7889
    10.8964  10.9247  11.0636  11.1085  11.1579  11.2641  11.3759  11.4696
    11.5355  11.5902  11.6148  11.6742  11.7093  11.7504  11.7630  11.8067
    11.8183  11.8589  11.8938

     occupation numbers 
     1.0000   1.0000   1.0000   1.0000   1.0000   1.0000   1.0000   1.0000
     1.0000   1.0000   1.0000   1.0000   1.0000   1.0000   1.0000   1.0000
     1.0000   1.0000   1.0000   1.0000   1.0000   1.0000   1.0000   1.0000
     1.0000   1.0000   1.0000   1.0000   1.0000   1.0000   1.0000   1.0000
     1.0000   1.0000   1.0000   1.0000   1.0000   1.0000   1.0000   1.0000
     1.0000   1.0000   1.0000   1.0000   1.0000   1.0000   1.0000   1.0000
     1.0000   1.0000   1.0000   1.0000   1.0000   1.0000   1.0000   1.0000
     1.0000   1.0000   1.0000   1.0000   1.0000   1.0000   1.0000   1.0000
     1.0000   1.0000   1.0000   1.0000   1.0000   1.0000   1.0000   1.0000
     1.0000   1.0000   1.0000   1.0000   1.0000   1.0000   1.0000   1.0000
     1.0000   1.0000   1.0000   1.0000   1.0000   1.0000   1.0000   1.0000
     1.0000   1.0000   1.0000   1.0000   1.0000   1.0000   1.0000   1.0000
     1.0000   1.0000   1.0000   1.0000   1.0000   1.0000   1.0000   1.0000
     1.0000   1.0000   1.0000   1.0000   1.0000   1.0000   1.0000   1.0000
     1.0000   1.0000   1.0000   1.0000   1.0000   1.0000   1.0000   1.0000
     1.0000   1.0000   1.0000   1.0000   1.0000   1.0000   1.0000   1.0000
     1.0000   1.0000   1.0000   1.0000   1.0000   1.0000   1.0000   1.0000
     1.0000   1.0000   1.0000   1.0000   1.0000   1.0000   1.0000   1.0000
     1.0000   1.0000   1.0000   1.0000   1.0000   1.0000   1.0000   1.0000
     1.0000   1.0000   1.0000   1.0000   1.0000   1.0000   1.0000   1.0000
     1.0000   1.0000   1.0000   1.0000   1.0000   1.0000   1.0000   1.0000
     1.0000   1.0000   1.0000   1.0000   1.0000   1.0000   1.0000   1.0000
     1.0000   1.0000   1.0000   1.0000   1.0000   1.0000   1.0000   1.0000
     1.0000   1.0000   1.0000   1.0000   1.0000   1.0000   1.0000   1.0000
     1.0000   1.0000   1.0000   1.0000   1.0000   1.0000   1.0000   1.0000
     1.0000   1.0000   1.0000   1.0000   1.0000   1.0000   1.0000   1.0000
     1.0000   1.0000   1.0000   1.0000   1.0000   1.0000   1.0000   1.0000
     1.0000   1.0000   1.0000   1.0000   1.0000   1.0000   1.0000   1.0000
     1.0000   1.0000   1.0000   1.0000   1.0000   1.0000   1.0000   1.0000
     1.0000   1.0000   1.0000   1.0000   1.0000   1.0000   1.0000   1.0000
     1.0000   1.0000   1.0000   1.0000   1.0000   1.0000   1.0000   1.0000
     1.0000   1.0000   1.0000   1.0000   1.0000   1.0000   1.0000   1.0000
     1.0000   1.0000   1.0000   1.0000   1.0000   1.0000   1.0000   1.0000
     1.0000   1.0000   1.0000   1.0000   1.0000   1.0000   1.0000   1.0000
     1.0000   1.0000   1.0000   1.0000   1.0000   1.0000   1.0000   1.0000
     1.0000   1.0000   1.0000   1.0000   1.0000   1.0000   1.0000   1.0000
     1.0000   0.0000   0.0000   0.0000   0.0000   0.0000   0.0000   0.0000
     0.0000   0.0000   0.0000   0.0000   0.0000   0.0000   0.0000   0.0000
     0.0000   0.0000   0.0000   0.0000   0.0000   0.0000   0.0000   0.0000
     0.0000   0.0000   0.0000   0.0000   0.0000   0.0000   0.0000   0.0000
     0.0000   0.0000   0.0000   0.0000   0.0000   0.0000   0.0000   0.0000
     0.0000   0.0000   0.0000   0.0000   0.0000   0.0000   0.0000   0.0000
     0.0000   0.0000   0.0000   0.0000   0.0000   0.0000   0.0000   0.0000
     0.0000   0.0000   0.0000

          k = 0.0000 0.1250 0.3750 (269924 PWs)   bands (ev):

  -104.9119 -62.3428 -62.2982 -62.2982  -7.5185  -7.3727  -7.1372  -7.0494
    -7.0275  -7.0136  -6.9437  -6.9331  -6.9117  -6.8508  -6.8267  -6.8109
    -6.7763  -6.7526  -6.7372  -6.7215  -6.6955  -6.6812  -6.6377  -6.6111
    -6.5804  -6.5683  -6.5577  -6.5162  -6.4963  -6.4826  -6.4802  -6.4608
    -6.4256  -6.3932  -6.3606  -0.9137  -0.8959  -0.8923  -0.8834  -0.8737
    -0.8657  -0.8617  -0.8483  -0.8462  -0.8343  -0.8253  -0.8242  -0.8202
    -0.8119  -0.8074  -0.7959  -0.7943  -0.7756  -0.7742  -0.7712  -0.7652
    -0.7599  -0.7557  -0.7527  -0.7502  -0.7467  -0.7439  -0.7380  -0.7357
    -0.7320  -0.7298  -0.7285  -0.7233  -0.7215  -0.7190  -0.7159  -0.7147
    -0.7125  -0.7088  -0.7058  -0.7038  -0.7003  -0.6982  -0.6966  -0.6900
    -0.6881  -0.6849  -0.6805  -0.6751  -0.6729  -0.6664  -0.6637  -0.6604
    -0.6573  -0.6507  -0.6468  -0.6409  -0.6392  -0.6298  -0.6207  -0.6154
    -0.6119  -0.5995  -0.5953  -0.5928  -0.5855  -0.5806  -0.5758  -0.5673
    -0.5643  -0.5529  -0.5460  -0.5349  -0.5282  -0.5238  -0.5172  -0.5128
    -0.5101  -0.5054  -0.4963  -0.4918  -0.4869  -0.4762  -0.4738  -0.4646
    -0.4604  -0.4446  -0.4371  -0.4312  -0.4253  -0.4226  -0.4182  -0.4145
    -0.4079  -0.4027  -0.3976  -0.3947  -0.3916  -0.3888  -0.3864  -0.3835
    -0.3805  -0.3780  -0.3747  -0.3715  -0.3704  -0.3665  -0.3633  -0.3609
    -0.3595  -0.3562  -0.3524  -0.3505  -0.3496  -0.3460  -0.3423  -0.3404
    -0.3345  -0.3323  -0.3307  -0.3243  -0.3216  -0.3153  -0.3079  -0.3069
    -0.3011  -0.2985  -0.2942  -0.2898  -0.2846  -0.2834  -0.2787  -0.2760
    -0.2694  -0.2667  -0.2631  -0.2563  -0.2517  -0.2462  -0.2431  -0.2392
    -0.2301  -0.2170  -0.2013  -0.1856  -0.1753  -0.1606  -0.1218  -0.1156
    -0.0868  -0.0705  -0.0624  -0.0538  -0.0319  -0.0292   0.4855   0.5400
     0.7248   0.7604   0.8302   0.8719   0.8844   0.9047   0.9123   0.9327
     0.9496   0.9644   0.9815   0.9899   1.0370   1.0936   1.1922   1.2106
     1.2753   1.3408   1.4973   1.8068   1.8802   1.9785   2.0553   2.1416
     2.3193   2.3626   2.4129   2.4378   2.4819   2.4986   2.5712   2.6015
     2.6375   2.6519   2.6986   2.7800   2.8235   2.8739   2.9677   3.0198
     3.0889   3.1227   3.1616   3.2050   3.2559   3.2804   3.3616   3.3762
[...]
     0.0000   0.0000   0.0000

          k = 0.3750-0.2500-0.5000 (270034 PWs)   bands (ev):

  -104.8988 -62.3219 -62.2896 -62.2896  -7.3706  -7.3329  -7.2408  -7.1990
    -7.1296  -7.0904  -7.0328  -6.9683  -6.7865  -6.7580  -6.7393  -6.7082
    -6.6941  -6.6762  -6.6498  -6.6385  -6.6326  -6.6159  -6.6045  -6.5971
    -6.5910  -6.5740  -6.5575  -6.5473  -6.5380  -6.5184  -6.5138  -6.4938
    -6.4721  -6.4260  -6.4008  -0.8808  -0.8735  -0.8678  -0.8579  -0.8557
    -0.8480  -0.8457  -0.8217  -0.8175  -0.8137  -0.8078  -0.8020  -0.7980
    -0.7960  -0.7929  -0.7913  -0.7856  -0.7843  -0.7767  -0.7738  -0.7705
    -0.7686  -0.7657  -0.7619  -0.7604  -0.7566  -0.7512  -0.7500  -0.7478
    -0.7452  -0.7437  -0.7405  -0.7387  -0.7362  -0.7311  -0.7285  -0.7225
    -0.7192  -0.7174  -0.7096  -0.7076  -0.7040  -0.6982  -0.6930  -0.6900
    -0.6845  -0.6784  -0.6767  -0.6683  -0.6625  -0.6596  -0.6528  -0.6439
    -0.6418  -0.6335  -0.6313  -0.6236  -0.6216  -0.6193  -0.6148  -0.6078
    -0.6015  -0.5983  -0.5934  -0.5867  -0.5830  -0.5776  -0.5759  -0.5679
    -0.5648  -0.5586  -0.5544  -0.5498  -0.5413  -0.5351  -0.5306  -0.5276
    -0.5208  -0.5158  -0.5115  -0.5069  -0.4953  -0.4889  -0.4814  -0.4745
    -0.4704  -0.4594  -0.4556  -0.4487  -0.4423  -0.4377  -0.4328  -0.4286
    -0.4243  -0.4205  -0.4134  -0.4047  -0.3861  -0.3831  -0.3812  -0.3734
    -0.3714  -0.3674  -0.3602  -0.3568  -0.3564  -0.3523  -0.3510  -0.3492
    -0.3464  -0.3449  -0.3422  -0.3402  -0.3378  -0.3365  -0.3333  -0.3257
    -0.3196  -0.3168  -0.3127  -0.3085  -0.3069  -0.3027  -0.2992  -0.2952
    -0.2942  -0.2883  -0.2781  -0.2763  -0.2734  -0.2709  -0.2655  -0.2617
    -0.2568  -0.2525  -0.2470  -0.2435  -0.2409  -0.2386  -0.2328  -0.2033
    -0.2003  -0.1881  -0.1827  -0.1754  -0.1528  -0.1462  -0.1277  -0.1173
    -0.1035  -0.0936  -0.0818  -0.0726  -0.0662  -0.0491   0.6064   0.6522
     0.7217   0.7618   0.7888   0.8088   0.8376   0.8768   0.9109   0.9446
     0.9624   0.9757   1.0633   1.0910   1.1169   1.1312   1.1837   1.3294
     1.3463   1.4074   1.4472   1.4870   1.5391   1.6855   1.8869   1.9372
     2.3033   2.3565   2.5657   2.5784   2.6390   2.6620   2.7689   2.8078
     2.8305   2.8467   2.8859   2.8970   2.9410   2.9797   3.0323   3.0910
     3.1083   3.1393   3.2078   3.2340   3.2620   3.2899   3.3220   3.3809
     3.3879   3.4310   3.5201   3.5339   3.5585   3.5706   3.5930   3.6033
     3.6143   3.6362   3.6621   3.6872   3.7285   3.7452   3.7645   3.7812
     3.8095   3.8156   3.8340   3.9234   3.9468   3.9651   4.0074   4.0314
     4.0621   4.0770   4.0958   4.2677   4.3085   4.4412   4.5031   4.5366
     4.5656   4.5780   4.6923   4.7241   4.7452   4.8190   4.8380   4.9012
     4.9371   4.9965   5.0534   5.1219   5.2607   5.3022   5.8886   5.9399
     7.2953   8.4430   8.5263   8.8901   8.9383   9.0322   9.0820   9.1187
     9.1760   9.2908   9.4163   9.5260   9.5583   9.5991   9.6335   9.6618
     9.6888   9.7223   9.7307   9.7601   9.7817   9.8055   9.8397   9.8643
     9.9215   9.9318   9.9788  10.0262  10.0468  10.0846  10.1249  10.1967
    10.3926  10.4267  10.4697  10.6251  10.7485  10.7826  10.8291  10.9624
    10.9968  11.0435  11.0824  11.1100  11.1549  11.3235  11.3741  11.4005
    11.4702  11.4872  11.5113  11.5429  11.5512  11.5602  11.6035  11.6353
    11.6889  11.7289  11.7684

     occupation numbers 
     1.0000   1.0000   1.0000   1.0000   1.0000   1.0000   1.0000   1.0000
     1.0000   1.0000   1.0000   1.0000   1.0000   1.0000   1.0000   1.0000
     1.0000   1.0000   1.0000   1.0000   1.0000   1.0000   1.0000   1.0000
     1.0000   1.0000   1.0000   1.0000   1.0000   1.0000   1.0000   1.0000
     1.0000   1.0000   1.0000   1.0000   1.0000   1.0000   1.0000   1.0000
     1.0000   1.0000   1.0000   1.0000   1.0000   1.0000   1.0000   1.0000
     1.0000   1.0000   1.0000   1.0000   1.0000   1.0000   1.0000   1.0000
     1.0000   1.0000   1.0000   1.0000   1.0000   1.0000   1.0000   1.0000
     1.0000   1.0000   1.0000   1.0000   1.0000   1.0000   1.0000   1.0000
     1.0000   1.0000   1.0000   1.0000   1.0000   1.0000   1.0000   1.0000
     1.0000   1.0000   1.0000   1.0000   1.0000   1.0000   1.0000   1.0000
     1.0000   1.0000   1.0000   1.0000   1.0000   1.0000   1.0000   1.0000
     1.0000   1.0000   1.0000   1.0000   1.0000   1.0000   1.0000   1.0000
     1.0000   1.0000   1.0000   1.0000   1.0000   1.0000   1.0000   1.0000
     1.0000   1.0000   1.0000   1.0000   1.0000   1.0000   1.0000   1.0000
     1.0000   1.0000   1.0000   1.0000   1.0000   1.0000   1.0000   1.0000
     1.0000   1.0000   1.0000   1.0000   1.0000   1.0000   1.0000   1.0000
     1.0000   1.0000   1.0000   1.0000   1.0000   1.0000   1.0000   1.0000
     1.0000   1.0000   1.0000   1.0000   1.0000   1.0000   1.0000   1.0000
     1.0000   1.0000   1.0000   1.0000   1.0000   1.0000   1.0000   1.0000
     1.0000   1.0000   1.0000   1.0000   1.0000   1.0000   1.0000   1.0000
     1.0000   1.0000   1.0000   1.0000   1.0000   1.0000   1.0000   1.0000
     1.0000   1.0000   1.0000   1.0000   1.0000   1.0000   1.0000   1.0000
     1.0000   1.0000   1.0000   1.0000   1.0000   1.0000   1.0000   1.0000
     1.0000   1.0000   1.0000   1.0000   1.0000   1.0000   1.0000   1.0000
     1.0000   1.0000   1.0000   1.0000   1.0000   1.0000   1.0000   1.0000
     1.0000   1.0000   1.0000   1.0000   1.0000   1.0000   1.0000   1.0000
     1.0000   1.0000   1.0000   1.0000   1.0000   1.0000   1.0000   1.0000
     1.0000   1.0000   1.0000   1.0000   1.0000   1.0000   1.0000   1.0000
     1.0000   1.0000   1.0000   1.0000   1.0000   1.0000   1.0000   1.0000
     1.0000   1.0000   1.0000   1.0000   1.0000   1.0000   1.0000   1.0000
     1.0000   1.0000   1.0000   1.0000   1.0000   1.0000   1.0000   1.0000
     1.0000   1.0000   1.0000   1.0000   1.0000   1.0000   1.0000   1.0000
     1.0000   1.0000   1.0000   1.0000   1.0000   1.0000   1.0000   1.0000
     1.0000   1.0000   1.0000   1.0000   1.0000   1.0000   1.0000   1.0000
     1.0000   1.0000   1.0000   1.0000   1.0000   1.0000   1.0000   1.0000
     0.0000   0.0000   0.0000   0.0000   0.0000   0.0000   0.0000   0.0000
     0.0000   0.0000   0.0000   0.0000   0.0000   0.0000   0.0000   0.0000
     0.0000   0.0000   0.0000   0.0000   0.0000   0.0000   0.0000   0.0000
     0.0000   0.0000   0.0000   0.0000   0.0000   0.0000   0.0000   0.0000
     0.0000   0.0000   0.0000   0.0000   0.0000   0.0000   0.0000   0.0000
     0.0000   0.0000   0.0000   0.0000   0.0000   0.0000   0.0000   0.0000
     0.0000   0.0000   0.0000   0.0000   0.0000   0.0000   0.0000   0.0000
     0.0000   0.0000   0.0000

          k = 0.3750-0.3750 0.3750 (270025 PWs)   bands (ev):

  -104.8988 -62.3219 -62.2896 -62.2896  -7.3719  -7.2587  -7.2513  -7.2153
    -7.1379  -7.1360  -7.0849  -6.9940  -6.7304  -6.7248  -6.6983  -6.6959
    -6.6789  -6.6696  -6.6490  -6.6433  -6.6367  -6.6331  -6.6178  -6.5890
    -6.5799  -6.5796  -6.5588  -6.5455  -6.5359  -6.5233  -6.5142  -6.5115
    -6.4889  -6.4230  -6.4205  -0.8783  -0.8702  -0.8692  -0.8572  -0.8547
    -0.8468  -0.8451  -0.8198  -0.8146  -0.8084  -0.8037  -0.8028  -0.7973
    -0.7967  -0.7915  -0.7915  -0.7871  -0.7837  -0.7780  -0.7707  -0.7704
    -0.7678  -0.7668  -0.7633  -0.7612  -0.7551  -0.7547  -0.7511  -0.7493
    -0.7481  -0.7463  -0.7403  -0.7399  -0.7347  -0.7343  -0.7310  -0.7281
    -0.7250  -0.7229  -0.7173  -0.7123  -0.7098  -0.7037  -0.6886  -0.6877
    -0.6839  -0.6753  -0.6740  -0.6693  -0.6579  -0.6523  -0.6516  -0.6407
    -0.6396  -0.6302  -0.6267  -0.6219  -0.6202  -0.6167  -0.6118  -0.6067
    -0.6004  -0.5987  -0.5873  -0.5860  -0.5836  -0.5741  -0.5709  -0.5671
    -0.5627  -0.5622  -0.5525  -0.5446  -0.5363  -0.5356  -0.5321  -0.5295
    -0.5190  -0.5179  -0.5116  -0.5063  -0.4943  -0.4902  -0.4865  -0.4797
    -0.4749  -0.4684  -0.4610  -0.4495  -0.4450  -0.4433  -0.4420  -0.4326
    -0.4319  -0.4266  -0.4221  -0.4134  -0.3848  -0.3816  -0.3781  -0.3779
    -0.3706  -0.3673  -0.3582  -0.3561  -0.3545  -0.3500  -0.3491  -0.3491
    -0.3452  -0.3447  -0.3408  -0.3378  -0.3372  -0.3334  -0.3297  -0.3181
    -0.3164  -0.3122  -0.3095  -0.3050  -0.3024  -0.2997  -0.2959  -0.2909
    -0.2885  -0.2875  -0.2775  -0.2716  -0.2692  -0.2600  -0.2598  -0.2567
    -0.2519  -0.2473  -0.2421  -0.2417  -0.2329  -0.2320  -0.2259  -0.2101
    -0.1927  -0.1894  -0.1858  -0.1830  -0.1791  -0.1430  -0.1397  -0.1229
    -0.1164  -0.1103  -0.1069  -0.0890  -0.0795  -0.0776   0.6837   0.7157
     0.7433   0.7928   0.7944   0.8193   0.9084   0.9173   0.9334   0.9376
     0.9885   1.0075   1.0784   1.0943   1.1015   1.1196   1.1251   1.1290
     1.1621   1.3710   1.4010   1.4745   1.5023   1.6804   1.9143   2.2794
     2.3096   2.3896   2.6810   2.6954   2.7487   2.7704   2.7914   2.8000
     2.8120   2.8362   2.8386   2.8485   2.8740   2.8824   2.9547   3.0088
     3.0281   3.1885   3.1934   3.2564   3.2768   3.2992   3.3088   3.3195
     3.3675   3.4056   3.4375   3.4607   3.4707   3.5239   3.5740   3.6189
     3.6324   3.6499   3.6520   3.6677   3.7135   3.7246   3.7762   3.7875
     3.8562   3.8706   3.8724   3.8906   3.9276   3.9313   3.9464   3.9573
     4.0182   4.0323   4.0612   4.2597   4.3223   4.4724   4.5523   4.5815
     4.6708   4.7196   4.7422   4.7587   4.8323   4.8568   4.8864   4.8944
     4.9437   4.9906   5.0346   5.1154   5.2762   5.2946   5.9070   5.9485
     7.2571   8.3980   8.6109   8.8018   8.8990   8.9665   9.0086   9.0490
     9.1288   9.2640   9.3621   9.5008   9.5427   9.5456   9.6527   9.6780
     9.6947   9.7300   9.7656   9.7707   9.8083   9.8119   9.8290   9.8569
     9.8694   9.8734   9.8997   9.9071   9.9402   9.9940  10.0362  10.1872
    10.3769  10.4074  10.5868  10.7556  10.7590  10.7861  10.9343  10.9769
    11.0668  11.2273  11.2839  11.2949  11.3080  11.3088  11.3267  11.3339
    11.3410  11.3973  11.4501  11.5709  11.5731  11.6103  11.6729  11.6872
    11.7409  11.7561  11.8007

     occupation numbers 
     1.0000   1.0000   1.0000   1.0000   1.0000   1.0000   1.0000   1.0000
     1.0000   1.0000   1.0000   1.0000   1.0000   1.0000   1.0000   1.0000
     1.0000   1.0000   1.0000   1.0000   1.0000   1.0000   1.0000   1.0000
     1.0000   1.0000   1.0000   1.0000   1.0000   1.0000   1.0000   1.0000
     1.0000   1.0000   1.0000   1.0000   1.0000   1.0000   1.0000   1.0000
     1.0000   1.0000   1.0000   1.0000   1.0000   1.0000   1.0000   1.0000
     1.0000   1.0000   1.0000   1.0000   1.0000   1.0000   1.0000   1.0000
     1.0000   1.0000   1.0000   1.0000   1.0000   1.0000   1.0000   1.0000
     1.0000   1.0000   1.0000   1.0000   1.0000   1.0000   1.0000   1.0000
     1.0000   1.0000   1.0000   1.0000   1.0000   1.0000   1.0000   1.0000
     1.0000   1.0000   1.0000   1.0000   1.0000   1.0000   1.0000   1.0000
     1.0000   1.0000   1.0000   1.0000   1.0000   1.0000   1.0000   1.0000
     1.0000   1.0000   1.0000   1.0000   1.0000   1.0000   1.0000   1.0000
     1.0000   1.0000   1.0000   1.0000   1.0000   1.0000   1.0000   1.0000
     1.0000   1.0000   1.0000   1.0000   1.0000   1.0000   1.0000   1.0000
     1.0000   1.0000   1.0000   1.0000   1.0000   1.0000   1.0000   1.0000
     1.0000   1.0000   1.0000   1.0000   1.0000   1.0000   1.0000   1.0000
     1.0000   1.0000   1.0000   1.0000   1.0000   1.0000   1.0000   1.0000
     1.0000   1.0000   1.0000   1.0000   1.0000   1.0000   1.0000   1.0000
     1.0000   1.0000   1.0000   1.0000   1.0000   1.0000   1.0000   1.0000
     1.0000   1.0000   1.0000   1.0000   1.0000   1.0000   1.0000   1.0000
     1.0000   1.0000   1.0000   1.0000   1.0000   1.0000   1.0000   1.0000
     1.0000   1.0000   1.0000   1.0000   1.0000   1.0000   1.0000   1.0000
     1.0000   1.0000   1.0000   1.0000   1.0000   1.0000   1.0000   1.0000
     1.0000   1.0000   1.0000   1.0000   1.0000   1.0000   1.0000   1.0000
     1.0000   1.0000   1.0000   1.0000   1.0000   1.0000   1.0000   1.0000
     1.0000   1.0000   1.0000   1.0000   1.0000   1.0000   1.0000   1.0000
     1.0000   1.0000   1.0000   1.0000   1.0000   1.0000   1.0000   1.0000
     1.0000   1.0000   1.0000   1.0000   1.0000   1.0000   1.0000   1.0000
     1.0000   1.0000   1.0000   1.0000   1.0000   1.0000   1.0000   1.0000
     1.0000   1.0000   1.0000   1.0000   1.0000   1.0000   1.0000   1.0000
     1.0000   1.0000   1.0000   1.0000   1.0000   1.0000   1.0000   1.0000
     1.0000   1.0000   1.0000   1.0000   1.0000   1.0000   1.0000   1.0000
     1.0000   1.0000   1.0000   1.0000   1.0000   1.0000   1.0000   1.0000
     1.0000   1.0000   1.0000   1.0000   1.0000   1.0000   1.0000   1.0000
     1.0000   1.0000   1.0000   1.0000   1.0000   1.0000   1.0000   1.0000
     0.0000   0.0000   0.0000   0.0000   0.0000   0.0000   0.0000   0.0000
     0.0000   0.0000   0.0000   0.0000   0.0000   0.0000   0.0000   0.0000
     0.0000   0.0000   0.0000   0.0000   0.0000   0.0000   0.0000   0.0000
     0.0000   0.0000   0.0000   0.0000   0.0000   0.0000   0.0000   0.0000
     0.0000   0.0000   0.0000   0.0000   0.0000   0.0000   0.0000   0.0000
     0.0000   0.0000   0.0000   0.0000   0.0000   0.0000   0.0000   0.0000
     0.0000   0.0000   0.0000   0.0000   0.0000   0.0000   0.0000   0.0000
     0.0000   0.0000   0.0000

          k = 0.3750-0.3750-0.5000 (270064 PWs)   bands (ev):

  -104.8988 -62.3219 -62.2896 -62.2896  -7.3331  -7.2987  -7.2177  -7.2044
    -7.1799  -7.1484  -7.0951  -7.0161  -6.7261  -6.7048  -6.6923  -6.6841
    -6.6667  -6.6448  -6.6389  -6.6348  -6.6303  -6.6142  -6.6040  -6.5982
    -6.5943  -6.5830  -6.5616  -6.5554  -6.5457  -6.5387  -6.5227  -6.5175
    -6.4900  -6.4339  -6.4223  -0.8769  -0.8685  -0.8661  -0.8560  -0.8551
    -0.8464  -0.8439  -0.8187  -0.8144  -0.8064  -0.8040  -0.8010  -0.7962
    -0.7914  -0.7903  -0.7888  -0.7828  -0.7819  -0.7783  -0.7738  -0.7719
    -0.7694  -0.7682  -0.7651  -0.7627  -0.7595  -0.7571  -0.7535  -0.7496
    -0.7476  -0.7463  -0.7446  -0.7410  -0.7383  -0.7344  -0.7337  -0.7287
    -0.7277  -0.7230  -0.7208  -0.7151  -0.7119  -0.7082  -0.6886  -0.6860
    -0.6787  -0.6752  -0.6723  -0.6696  -0.6550  -0.6538  -0.6488  -0.6391
    -0.6370  -0.6272  -0.6244  -0.6189  -0.6159  -0.6156  -0.6118  -0.6059
    -0.6020  -0.5959  -0.5917  -0.5874  -0.5823  -0.5737  -0.5714  -0.5667
    -0.5598  -0.5588  -0.5516  -0.5467  -0.5383  -0.5341  -0.5307  -0.5263
    -0.5216  -0.5145  -0.5109  -0.5063  -0.5003  -0.4968  -0.4942  -0.4819
    -0.4764  -0.4661  -0.4596  -0.4545  -0.4491  -0.4447  -0.4439  -0.4376
    -0.4365  -0.4322  -0.4261  -0.4156  -0.3829  -0.3814  -0.3793  -0.3752
    -0.3730  -0.3670  -0.3567  -0.3551  -0.3538  -0.3499  -0.3491  -0.3485
    -0.3443  -0.3440  -0.3401  -0.3373  -0.3369  -0.3306  -0.3283  -0.3167
    -0.3140  -0.3109  -0.3089  -0.3009  -0.2992  -0.2944  -0.2915  -0.2910
    -0.2883  -0.2762  -0.2748  -0.2700  -0.2684  -0.2614  -0.2597  -0.2532
    -0.2497  -0.2458  -0.2384  -0.2359  -0.2302  -0.2230  -0.2149  -0.2089
    -0.2012  -0.1879  -0.1832  -0.1810  -0.1651  -0.1609  -0.1489  -0.1418
    -0.1282  -0.1182  -0.1096  -0.0981  -0.0964  -0.0863   0.6974   0.7490
     0.7829   0.8105   0.8524   0.8737   0.9169   0.9260   0.9546   0.9708
     0.9765   0.9993   1.0097   1.0171   1.0354   1.0537   1.1026   1.2333
     1.2469   1.2819   1.2951   1.4433   1.4649   1.6847   2.0890   2.1061
     2.4675   2.5392   2.5931   2.6660   2.7345   2.7773   2.7795   2.7950
     2.8077   2.8583   2.8736   2.8837   2.9562   2.9919   3.0091   3.0684
     3.0896   3.1180   3.1331   3.1427   3.1813   3.2263   3.2774   3.3009
     3.3092   3.3457   3.3656   3.4594   3.4708   3.4839   3.6045   3.6087
     3.6588   3.6711   3.6793   3.7026   3.7440   3.7769   3.7934   3.7964
     3.8023   3.8434   3.8479   3.8736   3.8827   3.9177   3.9599   3.9647
     3.9758   3.9887   4.0125   4.2866   4.3183   4.5203   4.6060   4.6479
     4.6841   4.7097   4.7994   4.8105   4.8417   4.8517   4.8965   4.9292
     4.9497   4.9852   5.0165   5.1134   5.2833   5.2898   5.9203   5.9491
     7.2398   8.4729   8.5396   8.8172   8.8606   8.9192   8.9411   9.0122
     9.1423   9.2341   9.3393   9.5492   9.5965   9.6262   9.6333   9.6553
     9.6616   9.7071   9.7267   9.7544   9.7656   9.7710   9.7845   9.7959
     9.8219   9.8471   9.8588   9.8749   9.9272   9.9796  10.0237  10.1807
    10.3842  10.4089  10.5787  10.7731  10.9715  11.0175  11.0376  11.0539
    11.0868  11.1144  11.1549  11.2350  11.2573  11.3036  11.3124  11.3882
    11.4339  11.4617  11.4848  11.5095  11.5449  11.5599  11.6964  11.7288
    11.7797  11.8629  11.8871

     occupation numbers 
     1.0000   1.0000   1.0000   1.0000   1.0000   1.0000   1.0000   1.0000
     1.0000   1.0000   1.0000   1.0000   1.0000   1.0000   1.0000   1.0000
     1.0000   1.0000   1.0000   1.0000   1.0000   1.0000   1.0000   1.0000
     1.0000   1.0000   1.0000   1.0000   1.0000   1.0000   1.0000   1.0000
     1.0000   1.0000   1.0000   1.0000   1.0000   1.0000   1.0000   1.0000
     1.0000   1.0000   1.0000   1.0000   1.0000   1.0000   1.0000   1.0000
     1.0000   1.0000   1.0000   1.0000   1.0000   1.0000   1.0000   1.0000
     1.0000   1.0000   1.0000   1.0000   1.0000   1.0000   1.0000   1.0000
     1.0000   1.0000   1.0000   1.0000   1.0000   1.0000   1.0000   1.0000
     1.0000   1.0000   1.0000   1.0000   1.0000   1.0000   1.0000   1.0000
     1.0000   1.0000   1.0000   1.0000   1.0000   1.0000   1.0000   1.0000
     1.0000   1.0000   1.0000   1.0000   1.0000   1.0000   1.0000   1.0000
     1.0000   1.0000   1.0000   1.0000   1.0000   1.0000   1.0000   1.0000
     1.0000   1.0000   1.0000   1.0000   1.0000   1.0000   1.0000   1.0000
     1.0000   1.0000   1.0000   1.0000   1.0000   1.0000   1.0000   1.0000
     1.0000   1.0000   1.0000   1.0000   1.0000   1.0000   1.0000   1.0000
     1.0000   1.0000   1.0000   1.0000   1.0000   1.0000   1.0000   1.0000
     1.0000   1.0000   1.0000   1.0000   1.0000   1.0000   1.0000   1.0000
     1.0000   1.0000   1.0000   1.0000   1.0000   1.0000   1.0000   1.0000
     1.0000   1.0000   1.0000   1.0000   1.0000   1.0000   1.0000   1.0000
     1.0000   1.0000   1.0000   1.0000   1.0000   1.0000   1.0000   1.0000
     1.0000   1.0000   1.0000   1.0000   1.0000   1.0000   1.0000   1.0000
     1.0000   1.0000   1.0000   1.0000   1.0000   1.0000   1.0000   1.0000
     1.0000   1.0000   1.0000   1.0000   1.0000   1.0000   1.0000   1.0000
     1.0000   1.0000   1.0000   1.0000   1.0000   1.0000   1.0000   1.0000
     1.0000   1.0000   1.0000   1.0000   1.0000   1.0000   1.0000   1.0000
     1.0000   1.0000   1.0000   1.0000   1.0000   1.0000   1.0000   1.0000
     1.0000   1.0000   1.0000   1.0000   1.0000   1.0000   1.0000   1.0000
     1.0000   1.0000   1.0000   1.0000   1.0000   1.0000   1.0000   1.0000
     1.0000   1.0000   1.0000   1.0000   1.0000   1.0000   1.0000   1.0000
     1.0000   1.0000   1.0000   1.0000   1.0000   1.0000   1.0000   1.0000
     1.0000   1.0000   1.0000   1.0000   1.0000   1.0000   1.0000   1.0000
     1.0000   1.0000   1.0000   1.0000   1.0000   1.0000   1.0000   1.0000
     1.0000   1.0000   1.0000   1.0000   1.0000   1.0000   1.0000   1.0000
     1.0000   1.0000   1.0000   1.0000   1.0000   1.0000   1.0000   1.0000
     1.0000   1.0000   1.0000   1.0000   1.0000   1.0000   1.0000   1.0000
     0.0000   0.0000   0.0000   0.0000   0.0000   0.0000   0.0000   0.0000
     0.0000   0.0000   0.0000   0.0000   0.0000   0.0000   0.0000   0.0000
     0.0000   0.0000   0.0000   0.0000   0.0000   0.0000   0.0000   0.0000
     0.0000   0.0000   0.0000   0.0000   0.0000   0.0000   0.0000   0.0000
     0.0000   0.0000   0.0000   0.0000   0.0000   0.0000   0.0000   0.0000
     0.0000   0.0000   0.0000   0.0000   0.0000   0.0000   0.0000   0.0000
     0.0000   0.0000   0.0000   0.0000   0.0000   0.0000   0.0000   0.0000
     0.0000   0.0000   0.0000

     the Fermi energy is     6.8143 ev
     (compare with:     6.8337 eV, computed in scf)

     Writing all to output data dir ./out/Cu_vac_q0.save/
