
     Program PWSCF v.7.2 starts on 29Jun2024 at 19:12: 3 

     This program is part of the open-source Quantum ESPRESSO suite
     for quantum simulation of materials; please cite
         "P. Giannozzi et al., J. Phys.:Condens. Matter 21 395502 (2009);
         "P. Giannozzi et al., J. Phys.:Condens. Matter 29 465901 (2017);
         "P. Giannozzi et al., J. Chem. Phys. 152 154105 (2020);
          URL http://www.quantum-espresso.org", 
     in publications or presentations arising from this work. More details at
     http://www.quantum-espresso.org/quote

     Parallel version (MPI), running on   560 processors

     MPI processes distributed on     5 nodes
     214326 MiB available memory on the printing compute node when the environment starts
 
     Reading input from 4.Cu_vac_in_ZnS.bnscf.q0.in

     Current dimensions of program PWSCF are:
     Max number of different atomic species (ntypx) = 10
     Max number of k-points (npk) =  40000
     Max angular momentum in pseudopotentials (lmaxx) =  4

     Atomic positions and unit cell read from directory:
     ./out/Cu_vac_q0.save/
 
     file S.pbe-n-kjpaw_psl.1.0.0.UPF: wavefunction(s)  3S 3P renormalized
     file Zn.pbe-dnl-kjpaw_psl.1.0.0.UPF: wavefunction(s)  4S 3D renormalized
     file Cu.pbe-spn-kjpaw_psl.1.0.0.UPF: wavefunction(s)  4S 3P 3D renormalized
 
     K-points division:     npool     =       5
     R & G space division:  proc/nbgrp/npool/nimage =     112
     Subspace diagonalization in iterative solution of the eigenvalue problem:
     one sub-group per band group will be used
     scalapack distributed-memory algorithm (size of sub-group:  3*  3 procs)

     Message from routine divide_et_impera:
     suboptimal parallelization: some nodes have no k-points
 
     Parallelization info
     --------------------
     sticks:   dense  smooth     PW     G-vecs:    dense   smooth      PW
     Min         180     180     46                19282    19282    2500
     Max         181     181     47                19291    19291    2505
     Sum       20217   20217   5177              2160009  2160009  280169
 
     Using Slab Decomposition
 


     bravais-lattice index     =            1
     lattice parameter (alat)  =      20.5686  a.u.
     unit-cell volume          =    8701.8437 (a.u.)^3
     number of atoms/cell      =           63
     number of atomic types    =            3
     number of electrons       =       577.00
     number of Kohn-Sham states=          347
     kinetic-energy cutoff     =     150.0000  Ry
     charge density cutoff     =     600.0000  Ry
     Exchange-correlation= SLA  PW   PBX  PBC
                           (   1   4   3   4   0   0   0)

     celldm(1)=  20.568554  celldm(2)=   0.000000  celldm(3)=   0.000000
     celldm(4)=   0.000000  celldm(5)=   0.000000  celldm(6)=   0.000000

     crystal axes: (cart. coord. in units of alat)
               a(1) = (   1.000000   0.000000   0.000000 )  
               a(2) = (   0.000000   1.000000   0.000000 )  
               a(3) = (   0.000000   0.000000   1.000000 )  

     reciprocal axes: (cart. coord. in units 2 pi/alat)
               b(1) = (  1.000000  0.000000  0.000000 )  
               b(2) = (  0.000000  1.000000  0.000000 )  
               b(3) = (  0.000000  0.000000  1.000000 )  


     PseudoPot. # 1 for S  read from file:
     /arf/home/amuhaymin/pseudo/S.pbe-n-kjpaw_psl.1.0.0.UPF
     MD5 check sum: fb45dfebcf3e72a4e1bd4a866ec2e262
     Pseudo is Projector augmented-wave + core cor, Zval =  6.0
     Generated using &quot;atomic&quot; code by A. Dal Corso  v.6.3
     Shape of augmentation charge: PSQ
     Using radial grid of 1151 points,  6 beta functions with: 
                l(1) =   0
                l(2) =   0
                l(3) =   1
                l(4) =   1
                l(5) =   2
                l(6) =   2
     Q(r) pseudized with 0 coefficients 


     PseudoPot. # 2 for Zn read from file:
     /arf/home/amuhaymin/pseudo/Zn.pbe-dnl-kjpaw_psl.1.0.0.UPF
     MD5 check sum: c608214d9520ac179f507641260889e3
     Pseudo is Projector augmented-wave + core cor, Zval = 12.0
     Generated using &quot;atomic&quot; code by A. Dal Corso  v.6.2.2
     Shape of augmentation charge: PSQ
     Using radial grid of 1201 points,  6 beta functions with: 
                l(1) =   0
                l(2) =   0
                l(3) =   1
                l(4) =   1
                l(5) =   2
                l(6) =   2
     Q(r) pseudized with 0 coefficients 


     PseudoPot. # 3 for Cu read from file:
     /arf/home/amuhaymin/pseudo/Cu.pbe-spn-kjpaw_psl.1.0.0.UPF
     MD5 check sum: e7cbaad2f97193e5fe23251a619a52b0
     Pseudo is Projector augmented-wave + core cor, Zval = 19.0
     Generated using &quot;atomic&quot; code by A. Dal Corso  v.6.3
     Shape of augmentation charge: PSQ
     Using radial grid of 1199 points,  6 beta functions with: 
                l(1) =   0
                l(2) =   0
                l(3) =   1
                l(4) =   1
                l(5) =   2
                l(6) =   2
     Q(r) pseudized with 0 coefficients 


     atomic species   valence    mass     pseudopotential
        S              6.00    32.06500     S ( 1.00)
        Zn            12.00    65.38000     Zn( 1.00)
        Cu            19.00    63.54600     Cu( 1.00)

     Starting magnetic structure 
     atomic species   magnetization
        S            0.000
        Zn           0.000
        Cu           0.053

      6 Sym. Ops. (no inversion) found


                                    s                        frac. trans.

      isym =  1     identity                                     

 cryst.   s( 1) = (     1          0          0      )
                  (     0          1          0      )
                  (     0          0          1      )

 cart.    s( 1) = (  1.0000000  0.0000000  0.0000000 )
                  (  0.0000000  1.0000000  0.0000000 )
                  (  0.0000000  0.0000000  1.0000000 )


      isym =  2     120 deg rotation - cart. axis [-1,-1,-1]     

 cryst.   s( 2) = (     0          0          1      )
                  (     1          0          0      )
                  (     0          1          0      )

 cart.    s( 2) = (  0.0000000  1.0000000  0.0000000 )
                  (  0.0000000  0.0000000  1.0000000 )
                  (  1.0000000  0.0000000  0.0000000 )


      isym =  3     120 deg rotation - cart. axis [1,1,1]        

 cryst.   s( 3) = (     0          1          0      )
                  (     0          0          1      )
                  (     1          0          0      )

 cart.    s( 3) = (  0.0000000  0.0000000  1.0000000 )
                  (  1.0000000  0.0000000  0.0000000 )
                  (  0.0000000  1.0000000  0.0000000 )


      isym =  4     inv. 180 deg rotation - cart. axis [1,-1,0]  

 cryst.   s( 4) = (     0          1          0      )
                  (     1          0          0      )
                  (     0          0          1      )

 cart.    s( 4) = (  0.0000000  1.0000000  0.0000000 )
                  (  1.0000000  0.0000000  0.0000000 )
                  (  0.0000000  0.0000000  1.0000000 )


      isym =  5     inv. 180 deg rotation - cart. axis [-1,0,1]  

 cryst.   s( 5) = (     0          0          1      )
                  (     0          1          0      )
                  (     1          0          0      )

 cart.    s( 5) = (  0.0000000  0.0000000  1.0000000 )
                  (  0.0000000  1.0000000  0.0000000 )
                  (  1.0000000  0.0000000  0.0000000 )


      isym =  6     inv. 180 deg rotation - cart. axis [0,1,-1]  

 cryst.   s( 6) = (     1          0          0      )
                  (     0          0          1      )
                  (     0          1          0      )

 cart.    s( 6) = (  1.0000000  0.0000000  0.0000000 )
                  (  0.0000000  0.0000000  1.0000000 )
                  (  0.0000000  1.0000000  0.0000000 )


     point group C_3v (3m)  
     there are  3 classes
     the character table:

       E     2C3   3s_v 
A_1    1.00  1.00  1.00
A_2    1.00  1.00 -1.00
E      2.00 -1.00  0.00

     the symmetry operations in each class and the name of the first element:

     E        1
          identity                                               
     2C3      2    3
          120 deg rotation - cart. axis [-1,-1,-1]               
     3s_v     4    5    6
          inv. 180 deg rotation - cart. axis [1,-1,0]            

   Cartesian axes

     site n.     atom                  positions (alat units)
         1           Zn  tau(   1) = (   0.0004603   0.0004603   0.0004603  )
         2           Zn  tau(   2) = (   0.0002282   0.2503947   0.2503947  )
         3           Zn  tau(   3) = (   0.2503947   0.0002282   0.2503947  )
         4           Zn  tau(   4) = (   0.2503947   0.2503947   0.0002282  )
         5           S   tau(   5) = (   0.1252282   0.3751681   0.3751681  )
         6           S   tau(   6) = (   0.1252756   0.1252756   0.1252756  )
         7           S   tau(   7) = (   0.3751681   0.3751681   0.1252282  )
         8           S   tau(   8) = (   0.3751681   0.1252282   0.3751681  )
         9           Zn  tau(   9) = (   0.0007791   0.0007791   0.4997672  )
        10           Zn  tau(  10) = (   0.0003013   0.2508569   0.7500665  )
        11           Zn  tau(  11) = (   0.2508569   0.0003013   0.7500665  )
        12           Zn  tau(  12) = (   0.2517310   0.2517310   0.5020267  )
        13           S   tau(  13) = (   0.1249874   0.3755778   0.8752336  )
        14           S   tau(  14) = (   0.1250440   0.1250440   0.6253612  )
        15           S   tau(  15) = (   0.3760111   0.3760111   0.6255731  )
        16           S   tau(  16) = (   0.3755778   0.1249874   0.8752336  )
        17           Zn  tau(  17) = (   0.0007791   0.4997672   0.0007791  )
        18           Zn  tau(  18) = (   0.0003013   0.7500665   0.2508569  )
        19           Zn  tau(  19) = (   0.2517310   0.5020267   0.2517310  )
        20           Zn  tau(  20) = (   0.2508569   0.7500665   0.0003013  )
        21           S   tau(  21) = (   0.1249874   0.8752336   0.3755778  )
        22           S   tau(  22) = (   0.1250440   0.6253612   0.1250440  )
        23           S   tau(  23) = (   0.3755778   0.8752336   0.1249874  )
        24           S   tau(  24) = (   0.3760111   0.6255731   0.3760111  )
        25           Zn  tau(  25) = (   0.0012044   0.5001362   0.5001362  )
        26           Zn  tau(  26) = (   0.0022364   0.7499627   0.7499627  )
        27           Zn  tau(  27) = (   0.2508680   0.4980781   0.7477441  )
        28           Zn  tau(  28) = (   0.2508680   0.7477441   0.4980781  )
        29           S   tau(  29) = (   0.1258189   0.8752482   0.8752482  )
        30           S   tau(  30) = (   0.1253832   0.6250986   0.6250986  )
        31           S   tau(  31) = (   0.3763850   0.8735734   0.6241307  )
        32           S   tau(  32) = (   0.3763850   0.6241307   0.8735734  )
        33           Zn  tau(  33) = (   0.4997672   0.0007791   0.0007791  )
        34           Zn  tau(  34) = (   0.5020267   0.2517310   0.2517310  )
        35           Zn  tau(  35) = (   0.7500665   0.0003013   0.2508569  )
        36           Zn  tau(  36) = (   0.7500665   0.2508569   0.0003013  )
        37           S   tau(  37) = (   0.6255731   0.3760111   0.3760111  )
        38           S   tau(  38) = (   0.6253612   0.1250440   0.1250440  )
        39           S   tau(  39) = (   0.8752336   0.3755778   0.1249874  )
        40           S   tau(  40) = (   0.8752336   0.1249874   0.3755778  )
        41           Zn  tau(  41) = (   0.5001362   0.0012044   0.5001362  )
        42           Zn  tau(  42) = (   0.4980781   0.2508680   0.7477441  )
        43           Zn  tau(  43) = (   0.7499627   0.0022364   0.7499627  )
        44           Zn  tau(  44) = (   0.7477441   0.2508680   0.4980781  )
        45           S   tau(  45) = (   0.6241307   0.3763850   0.8735734  )
        46           S   tau(  46) = (   0.6250986   0.1253832   0.6250986  )
        47           S   tau(  47) = (   0.8735734   0.3763850   0.6241307  )
        48           S   tau(  48) = (   0.8752482   0.1258189   0.8752482  )
        49           Zn  tau(  49) = (   0.5001362   0.5001362   0.0012044  )
        50           Zn  tau(  50) = (   0.4980781   0.7477441   0.2508680  )
        51           Zn  tau(  51) = (   0.7477441   0.4980781   0.2508680  )
        52           Zn  tau(  52) = (   0.7499627   0.7499627   0.0022364  )
        53           S   tau(  53) = (   0.6241307   0.8735734   0.3763850  )
        54           S   tau(  54) = (   0.6250986   0.6250986   0.1253832  )
        55           S   tau(  55) = (   0.8752482   0.8752482   0.1258189  )
        56           S   tau(  56) = (   0.8735734   0.6241307   0.3763850  )
        57           Cu  tau(  57) = (   0.4745337   0.4745337   0.4745337  )
        58           Zn  tau(  58) = (   0.4974591   0.7556402   0.7556402  )
        59           Zn  tau(  59) = (   0.7556402   0.4974591   0.7556402  )
        60           Zn  tau(  60) = (   0.7556402   0.7556402   0.4974591  )
        61           S   tau(  61) = (   0.6272504   0.8755799   0.8755799  )
        62           S   tau(  62) = (   0.8755799   0.8755799   0.6272504  )
        63           S   tau(  63) = (   0.8755799   0.6272504   0.8755799  )

   Crystallographic axes

     site n.     atom                  positions (cryst. coord.)
         1           Zn  tau(   1) = (  0.0004603  0.0004603  0.0004603  )
         2           Zn  tau(   2) = (  0.0002282  0.2503947  0.2503947  )
         3           Zn  tau(   3) = (  0.2503947  0.0002282  0.2503947  )
         4           Zn  tau(   4) = (  0.2503947  0.2503947  0.0002282  )
         5           S   tau(   5) = (  0.1252282  0.3751681  0.3751681  )
         6           S   tau(   6) = (  0.1252756  0.1252756  0.1252756  )
         7           S   tau(   7) = (  0.3751681  0.3751681  0.1252282  )
         8           S   tau(   8) = (  0.3751681  0.1252282  0.3751681  )
         9           Zn  tau(   9) = (  0.0007791  0.0007791  0.4997672  )
        10           Zn  tau(  10) = (  0.0003013  0.2508569  0.7500665  )
        11           Zn  tau(  11) = (  0.2508569  0.0003013  0.7500665  )
        12           Zn  tau(  12) = (  0.2517310  0.2517310  0.5020267  )
        13           S   tau(  13) = (  0.1249874  0.3755778  0.8752336  )
        14           S   tau(  14) = (  0.1250440  0.1250440  0.6253612  )
        15           S   tau(  15) = (  0.3760111  0.3760111  0.6255731  )
        16           S   tau(  16) = (  0.3755778  0.1249874  0.8752336  )
        17           Zn  tau(  17) = (  0.0007791  0.4997672  0.0007791  )
        18           Zn  tau(  18) = (  0.0003013  0.7500665  0.2508569  )
        19           Zn  tau(  19) = (  0.2517310  0.5020267  0.2517310  )
        20           Zn  tau(  20) = (  0.2508569  0.7500665  0.0003013  )
        21           S   tau(  21) = (  0.1249874  0.8752336  0.3755778  )
        22           S   tau(  22) = (  0.1250440  0.6253612  0.1250440  )
        23           S   tau(  23) = (  0.3755778  0.8752336  0.1249874  )
        24           S   tau(  24) = (  0.3760111  0.6255731  0.3760111  )
        25           Zn  tau(  25) = (  0.0012044  0.5001362  0.5001362  )
        26           Zn  tau(  26) = (  0.0022364  0.7499627  0.7499627  )
        27           Zn  tau(  27) = (  0.2508680  0.4980781  0.7477441  )
        28           Zn  tau(  28) = (  0.2508680  0.7477441  0.4980781  )
        29           S   tau(  29) = (  0.1258189  0.8752482  0.8752482  )
        30           S   tau(  30) = (  0.1253832  0.6250986  0.6250986  )
        31           S   tau(  31) = (  0.3763850  0.8735734  0.6241307  )
        32           S   tau(  32) = (  0.3763850  0.6241307  0.8735734  )
        33           Zn  tau(  33) = (  0.4997672  0.0007791  0.0007791  )
        34           Zn  tau(  34) = (  0.5020267  0.2517310  0.2517310  )
        35           Zn  tau(  35) = (  0.7500665  0.0003013  0.2508569  )
        36           Zn  tau(  36) = (  0.7500665  0.2508569  0.0003013  )
        37           S   tau(  37) = (  0.6255731  0.3760111  0.3760111  )
        38           S   tau(  38) = (  0.6253612  0.1250440  0.1250440  )
        39           S   tau(  39) = (  0.8752336  0.3755778  0.1249874  )
        40           S   tau(  40) = (  0.8752336  0.1249874  0.3755778  )
        41           Zn  tau(  41) = (  0.5001362  0.0012044  0.5001362  )
        42           Zn  tau(  42) = (  0.4980781  0.2508680  0.7477441  )
        43           Zn  tau(  43) = (  0.7499627  0.0022364  0.7499627  )
        44           Zn  tau(  44) = (  0.7477441  0.2508680  0.4980781  )
        45           S   tau(  45) = (  0.6241307  0.3763850  0.8735734  )
        46           S   tau(  46) = (  0.6250986  0.1253832  0.6250986  )
        47           S   tau(  47) = (  0.8735734  0.3763850  0.6241307  )
        48           S   tau(  48) = (  0.8752482  0.1258189  0.8752482  )
        49           Zn  tau(  49) = (  0.5001362  0.5001362  0.0012044  )
        50           Zn  tau(  50) = (  0.4980781  0.7477441  0.2508680  )
        51           Zn  tau(  51) = (  0.7477441  0.4980781  0.2508680  )
        52           Zn  tau(  52) = (  0.7499627  0.7499627  0.0022364  )
        53           S   tau(  53) = (  0.6241307  0.8735734  0.3763850  )
        54           S   tau(  54) = (  0.6250986  0.6250986  0.1253832  )
        55           S   tau(  55) = (  0.8752482  0.8752482  0.1258189  )
        56           S   tau(  56) = (  0.8735734  0.6241307  0.3763850  )
        57           Cu  tau(  57) = (  0.4745337  0.4745337  0.4745337  )
        58           Zn  tau(  58) = (  0.4974591  0.7556402  0.7556402  )
        59           Zn  tau(  59) = (  0.7556402  0.4974591  0.7556402  )
        60           Zn  tau(  60) = (  0.7556402  0.7556402  0.4974591  )
        61           S   tau(  61) = (  0.6272504  0.8755799  0.8755799  )
        62           S   tau(  62) = (  0.8755799  0.8755799  0.6272504  )
        63           S   tau(  63) = (  0.8755799  0.6272504  0.8755799  )

     number of k points=     1  Gaussian smearing, width (Ry)=  0.0010
                       cart. coord. in units 2pi/alat
        k(    1) = (   0.0000000   0.0000000   0.0000000), wk =   1.0000000

                       cryst. coord.
        k(    1) = (   0.0000000   0.0000000   0.0000000), wk =   1.0000000

     Dense  grid:  2160009 G-vectors     FFT dimensions: ( 162, 162, 162)

     Dynamical RAM for                 wfc:      12.76 MB

     Dynamical RAM for     wfc (w. buffer):      12.76 MB

     Dynamical RAM for           str. fact:       0.88 MB

     Dynamical RAM for           local pot:       0.00 MB

     Dynamical RAM for          nlocal pot:      41.70 MB

     Dynamical RAM for                qrad:       5.90 MB

     Dynamical RAM for          rho,v,vnew:       4.17 MB

     Dynamical RAM for           G-vectors:       1.25 MB

     Dynamical RAM for          h,s,v(r/c):       2.44 MB

     Dynamical RAM for          <psi|beta>:       6.00 MB

     Dynamical RAM for                 psi:      25.52 MB

     Dynamical RAM for                hpsi:      25.52 MB

     Dynamical RAM for                spsi:      25.52 MB

     Dynamical RAM for      wfcinit/wfcrot:      34.28 MB

     Dynamical RAM for           addusdens:      13.30 MB

     Estimated static dynamical RAM per process >      70.24 MB

     Estimated max dynamical RAM per process >     155.25 MB

     Estimated total dynamical RAM >      84.90 GB
     Generating pointlists ...
     new r_m :   0.0848 (alat units)  1.7435 (a.u.) for type    1
     new r_m :   0.0880 (alat units)  1.8096 (a.u.) for type    2
     new r_m :   0.0848 (alat units)  1.7435 (a.u.) for type    3

     The potential is recalculated from file :
     ./out/Cu_vac_q0.save/charge-density

     Starting wfcs are  413 randomized atomic wfcs
     Checking if some PAW data can be deallocated... 
       PAW data deallocated on  284 nodes for type:  1
       PAW data deallocated on  284 nodes for type:  2
       PAW data deallocated on  552 nodes for type:  3

     Band Structure Calculation
     Davidson diagonalization with overlap

     Computing kpt #:     1  of     1 on this pool
     c_bands:  2 eigenvalues not converged
     total cpu time spent up to now is       81.4 secs

     ethr =  1.73E-12,  avg # of iterations =120.0

     total cpu time spent up to now is       81.7 secs

     End of band structure calculation

 ------ SPIN UP ------------


          k = 0.0000 0.0000 0.0000 (269825 PWs)   bands (ev):

  -104.9119 -62.3429 -62.2983 -62.2983  -7.6076  -7.1116  -7.1116  -7.0874
    -7.0809  -7.0809  -7.0117  -6.8295  -6.8295  -6.8128  -6.7839  -6.7839
    -6.7803  -6.7572  -6.7572  -6.7437  -6.7437  -6.7344  -6.7314  -6.6842
    -6.6842  -6.6752  -6.5203  -6.4887  -6.4887  -6.4513  -6.4216  -6.4188
    -6.4188  -6.3495  -6.3495  -0.9207  -0.9207  -0.9207  -0.9009  -0.8832
    -0.8832  -0.8642  -0.8642  -0.8507  -0.8477  -0.8477  -0.8431  -0.8294
    -0.8113  -0.8113  -0.7790  -0.7790  -0.7675  -0.7633  -0.7523  -0.7523
    -0.7436  -0.7436  -0.7410  -0.7321  -0.7321  -0.7263  -0.7238  -0.7238
    -0.7201  -0.7201  -0.7181  -0.7181  -0.7168  -0.7066  -0.7066  -0.7061
    -0.7009  -0.7009  -0.6997  -0.6977  -0.6947  -0.6922  -0.6922  -0.6873
    -0.6802  -0.6773  -0.6769  -0.6769  -0.6720  -0.6720  -0.6657  -0.6657
    -0.6600  -0.6481  -0.6424  -0.6424  -0.6355  -0.6237  -0.6237  -0.5965
    -0.5965  -0.5936  -0.5919  -0.5699  -0.5699  -0.5666  -0.5611  -0.5611
    -0.5590  -0.5442  -0.5442  -0.5379  -0.5379  -0.5227  -0.5227  -0.5205
    -0.5125  -0.5125  -0.5110  -0.5026  -0.4922  -0.4922  -0.4809  -0.4809
    -0.4793  -0.4721  -0.4669  -0.4669  -0.4377  -0.4145  -0.4145  -0.4078
    -0.4078  -0.4057  -0.4026  -0.4014  -0.4014  -0.3988  -0.3988  -0.3915
    -0.3865  -0.3837  -0.3837  -0.3781  -0.3766  -0.3766  -0.3656  -0.3614
    -0.3614  -0.3583  -0.3475  -0.3475  -0.3434  -0.3424  -0.3424  -0.3385
    -0.3326  -0.3326  -0.3205  -0.3205  -0.3142  -0.3132  -0.3132  -0.3118
    -0.3118  -0.3102  -0.2910  -0.2910  -0.2829  -0.2806  -0.2800  -0.2800
    -0.2736  -0.2602  -0.2602  -0.2557  -0.2529  -0.2529  -0.2398  -0.2398
    -0.2337  -0.2333  -0.1667  -0.1667  -0.1560  -0.1560  -0.1530  -0.1289
    -0.0330  -0.0017  -0.0017   0.0180   0.0320   0.0320   0.1758   0.3020
     0.3092   0.3092   0.8710   0.8710   0.8939   0.9130   0.9298   0.9298
     0.9874   0.9874   1.0612   1.2634   1.4118   1.4118   1.4817   1.4817
     1.4945   1.5032   1.5239   1.5239   1.6629   1.6629   1.9286   2.6093
     2.6093   2.6534   2.6866   2.6866   2.7169   2.7252   2.7252   2.7262
     2.7432   2.7566   2.7566   2.7970   2.8113   2.8113   2.8795   2.8795
     2.8871   2.9052   2.9052   2.9220   2.9245   2.9245   2.9572   2.9851
     2.9855   2.9855   3.1088   3.1088   3.1584   3.2377   3.2556   3.2556
     3.5592   3.5592   3.6617   3.8213   3.8213   4.1612   4.1612   4.1713
     4.1734   4.1907   4.1907   4.1951   4.2630   4.2630   4.3164   4.3791
     4.3791   4.3870   4.3870   4.4623   4.4623   4.4652   4.4869   4.4975
     4.4975   4.5231   4.5231   4.5293   4.5332   4.5557   4.5557   4.5850
     5.0252   5.1667   5.1667   5.2536   5.2536   5.3179   5.9661   5.9661
     6.4383   7.7132   8.4867   8.4867   8.7101   8.7558   8.7935   8.7935
     8.9570   8.9570   9.0729   9.5081   9.5081   9.5129   9.7278   9.8533
     9.8533   9.9152   9.9180   9.9180   9.9731   9.9731   9.9854  10.0013
    10.0030  10.0030  10.1389  10.1389  10.1477  10.1529  10.1759  10.1759
    10.2126  10.2126  10.3472  10.6379  10.6463  10.6463  11.0537  11.1381
    11.1381  11.2233  11.2233  11.2996  11.3148  11.3148  11.3726  11.6835
    11.6835  11.7167  11.8256  11.8256  11.8393  11.8731  11.9884  12.0082
    12.0082  12.0137  12.0143

 ------ SPIN DOWN ----------


          k = 0.0000 0.0000 0.0000 (269825 PWs)   bands (ev):

  -104.8989 -62.3219 -62.2896 -62.2896  -7.5994  -7.0997  -7.0997  -7.0758
    -7.0740  -7.0740  -7.0064  -6.8111  -6.8111  -6.7994  -6.7759  -6.7759
    -6.7698  -6.7523  -6.7523  -6.7415  -6.7415  -6.7318  -6.7269  -6.6785
    -6.6785  -6.6688  -6.5164  -6.4770  -6.4770  -6.4438  -6.4179  -6.4158
    -6.4158  -6.3446  -6.3446  -0.9144  -0.9144  -0.9112  -0.8938  -0.8775
    -0.8775  -0.8570  -0.8570  -0.8471  -0.8436  -0.8436  -0.8369  -0.8209
    -0.8018  -0.8018  -0.7714  -0.7714  -0.7611  -0.7586  -0.7486  -0.7486
    -0.7391  -0.7389  -0.7389  -0.7306  -0.7306  -0.7234  -0.7184  -0.7184
    -0.7160  -0.7160  -0.7146  -0.7138  -0.7138  -0.7054  -0.7054  -0.7047
    -0.6982  -0.6982  -0.6971  -0.6958  -0.6900  -0.6900  -0.6894  -0.6857
    -0.6786  -0.6753  -0.6753  -0.6711  -0.6711  -0.6700  -0.6641  -0.6641
    -0.6527  -0.6477  -0.6398  -0.6398  -0.6350  -0.6214  -0.6214  -0.5926
    -0.5926  -0.5877  -0.5867  -0.5681  -0.5681  -0.5655  -0.5581  -0.5575
    -0.5575  -0.5407  -0.5407  -0.5358  -0.5358  -0.5205  -0.5205  -0.5170
    -0.5097  -0.5085  -0.5085  -0.4916  -0.4811  -0.4811  -0.4782  -0.4726
    -0.4726  -0.4624  -0.4602  -0.4602  -0.4305  -0.4132  -0.4132  -0.4058
    -0.4058  -0.4038  -0.3997  -0.3990  -0.3990  -0.3966  -0.3966  -0.3902
    -0.3849  -0.3823  -0.3823  -0.3762  -0.3756  -0.3756  -0.3601  -0.3601
    -0.3599  -0.3578  -0.3463  -0.3463  -0.3416  -0.3415  -0.3415  -0.3375
    -0.3312  -0.3312  -0.3196  -0.3196  -0.3133  -0.3122  -0.3122  -0.3112
    -0.3112  -0.3069  -0.2906  -0.2906  -0.2826  -0.2792  -0.2792  -0.2792
    -0.2728  -0.2586  -0.2586  -0.2553  -0.2520  -0.2520  -0.2387  -0.2387
    -0.2328  -0.2280  -0.1649  -0.1649  -0.1532  -0.1532  -0.1511  -0.1287
    -0.0293  -0.0001  -0.0001   0.0204   0.0336   0.0336   0.1833   0.3099
     0.3182   0.3182   0.8751   0.8751   0.8976   0.9169   0.9320   0.9320
     1.0083   1.0083   1.0888   1.3027   1.4162   1.4162   1.4879   1.4879
     1.4995   1.5093   1.5274   1.5274   1.6891   1.6891   1.9381   2.6140
     2.6140   2.6922   2.6949   2.6949   2.7245   2.7323   2.7323   2.7354
     2.7485   2.7696   2.7696   2.8061   2.8158   2.8158   2.8828   2.8828
     2.8903   2.9127   2.9127   2.9260   2.9285   2.9285   2.9616   2.9957
     2.9957   2.9999   3.1153   3.1153   3.1641   3.2465   3.2625   3.2625
     3.5777   3.5777   3.6791   3.8296   3.8296   4.1723   4.1723   4.1798
     4.1848   4.1960   4.1960   4.1997   4.2713   4.2713   4.3209   4.3835
     4.3835   4.3898   4.3898   4.4744   4.4760   4.4760   4.4935   4.5072
     4.5072   4.5261   4.5261   4.5324   4.5358   4.5581   4.5581   4.5902
     5.0642   5.1747   5.1747   5.2599   5.2599   5.3258   5.9728   5.9728
     6.8656   7.8380   8.6187   8.6187   8.7163   8.7587   8.8953   8.8953
     9.0138   9.0138   9.1477   9.5150   9.5150   9.5194   9.7622   9.8614
     9.8614   9.9220   9.9430   9.9430   9.9800   9.9800   9.9937  10.0049
    10.0087  10.0087  10.1463  10.1463  10.1527  10.1591  10.1822  10.1822
    10.2237  10.2237  10.3920  10.6798  10.6907  10.6907  11.0613  11.1511
    11.1511  11.2373  11.2373  11.3044  11.3198  11.3198  11.4011  11.7077
    11.7077  11.7826  11.8390  11.8390  11.8455  11.9126  11.9965  12.0152
    12.0152  12.0217  12.0227

     Writing all to output data dir ./out/Cu_vac_q0.save/
 
     init_run     :      5.72s CPU      8.14s WALL (       1 calls)
     electrons    :     65.78s CPU     66.73s WALL (       1 calls)

     Called by init_run:
     wfcinit      :      0.00s CPU      1.95s WALL (       1 calls)
     wfcinit:atom :      0.01s CPU      0.02s WALL (       1 calls)
     wfcinit:wfcr :      1.30s CPU      1.39s WALL (       1 calls)
     potinit      :      0.59s CPU      0.78s WALL (       1 calls)
     hinit0       :      0.41s CPU      0.49s WALL (       1 calls)

     Called by electrons:
     c_bands      :     65.77s CPU     66.71s WALL (       1 calls)
     v_of_rho     :      0.29s CPU      0.36s WALL (       1 calls)
     v_h          :      0.01s CPU      0.01s WALL (       1 calls)
     v_xc         :      0.29s CPU      0.35s WALL (       1 calls)
     newd         :      0.06s CPU      0.07s WALL (       1 calls)
     PAW_pot      :      0.11s CPU      0.12s WALL (       1 calls)

     Called by c_bands:
     init_us_2    :      0.03s CPU      0.04s WALL (       1 calls)
     init_us_2:cp :      0.03s CPU      0.04s WALL (       1 calls)
     cegterg      :     64.03s CPU     64.85s WALL (       6 calls)

     Called by sum_band:

     Called by *egterg:
     cdiaghg      :      7.51s CPU      7.57s WALL (     121 calls)
     cegterg:over :      6.05s CPU      6.09s WALL (     120 calls)
     cegterg:upda :      5.52s CPU      5.58s WALL (     120 calls)
     cegterg:last :      9.83s CPU      9.90s WALL (      33 calls)
     cdiaghg:chol :      0.48s CPU      0.48s WALL (     121 calls)
     cdiaghg:inve :      0.72s CPU      0.72s WALL (     121 calls)
     cdiaghg:para :      1.12s CPU      1.13s WALL (     242 calls)
     h_psi        :     28.32s CPU     28.80s WALL (     127 calls)
     s_psi        :      6.62s CPU      6.67s WALL (     127 calls)
     g_psi        :      0.19s CPU      0.20s WALL (     120 calls)

     Called by h_psi:
     h_psi:calbec :      6.23s CPU      6.28s WALL (     127 calls)
     vloc_psi     :     15.26s CPU     15.51s WALL (     127 calls)
     add_vuspsi   :      6.53s CPU      6.65s WALL (     127 calls)

     General routines
     calbec       :      6.23s CPU      6.28s WALL (     127 calls)
     fft          :      0.49s CPU      0.63s WALL (      21 calls)
     fftw         :     14.20s CPU     14.43s WALL (   25768 calls)
 
     Parallel routines

     PAW routines
     PAW_pot      :      0.11s CPU      0.12s WALL (       1 calls)
 
     PWSCF        :   1m16.04s CPU   1m35.91s WALL

 
   This run was terminated on:  19:13:39  29Jun2024            

=------------------------------------------------------------------------------=
   JOB DONE.
=------------------------------------------------------------------------------=
