
     Program PWSCF v.7.2 starts on  5Jul2024 at 11: 2: 4 

     This program is part of the open-source Quantum ESPRESSO suite
     for quantum simulation of materials; please cite
         "P. Giannozzi et al., J. Phys.:Condens. Matter 21 395502 (2009);
         "P. Giannozzi et al., J. Phys.:Condens. Matter 29 465901 (2017);
         "P. Giannozzi et al., J. Chem. Phys. 152 154105 (2020);
          URL http://www.quantum-espresso.org", 
     in publications or presentations arising from this work. More details at
     http://www.quantum-espresso.org/quote

     Parallel version (MPI), running on  1120 processors

     MPI processes distributed on    10 nodes
     237385 MiB available memory on the printing compute node when the environment starts
 
     Reading input from 3.Ni_in_ZnS.nscf.qp1.in

     Current dimensions of program PWSCF are:
     Max number of different atomic species (ntypx) = 10
     Max number of k-points (npk) =  40000
     Max angular momentum in pseudopotentials (lmaxx) =  4

     Atomic positions and unit cell read from directory:
     ./out/Ni_qp1.save/
 
     file S.pbe-n-kjpaw_psl.1.0.0.UPF: wavefunction(s)  3S 3P renormalized
     file Zn.pbe-dnl-kjpaw_psl.1.0.0.UPF: wavefunction(s)  4S 3D renormalized
     file Ni.pbe-spn-kjpaw_psl.1.0.0.UPF: wavefunction(s)  3P 3D renormalized
     [opt_tetra]  Optimized tetrahedron method is used.
 
     K-points division:     npool     =      10
     R & G space division:  proc/nbgrp/npool/nimage =     112
     Subspace diagonalization in iterative solution of the eigenvalue problem:
     one sub-group per band group will be used
     scalapack distributed-memory algorithm (size of sub-group:  3*  3 procs)

 
     Parallelization info
     --------------------
     sticks:   dense  smooth     PW     G-vecs:    dense   smooth      PW
     Min         180     180     46                19282    19282    2562
     Max         181     181     47                19291    19291    2573
     Sum       20217   20217   5249              2160009  2160009  287777
 
     Using Slab Decomposition
 


     bravais-lattice index     =            1
     lattice parameter (alat)  =      20.5686  a.u.
     unit-cell volume          =    8701.8437 (a.u.)^3
     number of atoms/cell      =           64
     number of atomic types    =            3
     number of electrons       =       581.00
     number of Kohn-Sham states=          349
     kinetic-energy cutoff     =     150.0000  Ry
     charge density cutoff     =     600.0000  Ry
     Exchange-correlation= SLA  PW   PBX  PBC
                           (   1   4   3   4   0   0   0)

     celldm(1)=  20.568554  celldm(2)=   0.000000  celldm(3)=   0.000000
     celldm(4)=   0.000000  celldm(5)=   0.000000  celldm(6)=   0.000000

     crystal axes: (cart. coord. in units of alat)
               a(1) = (   1.000000   0.000000   0.000000 )  
               a(2) = (   0.000000   1.000000   0.000000 )  
               a(3) = (   0.000000   0.000000   1.000000 )  

     reciprocal axes: (cart. coord. in units 2 pi/alat)
               b(1) = (  1.000000  0.000000  0.000000 )  
               b(2) = (  0.000000  1.000000  0.000000 )  
               b(3) = (  0.000000  0.000000  1.000000 )  


     PseudoPot. # 1 for S  read from file:
     /arf/home/amuhaymin/pseudo/S.pbe-n-kjpaw_psl.1.0.0.UPF
     MD5 check sum: fb45dfebcf3e72a4e1bd4a866ec2e262
     Pseudo is Projector augmented-wave + core cor, Zval =  6.0
     Generated using &quot;atomic&quot; code by A. Dal Corso  v.6.3
     Shape of augmentation charge: PSQ
     Using radial grid of 1151 points,  6 beta functions with: 
                l(1) =   0
                l(2) =   0
                l(3) =   1
                l(4) =   1
                l(5) =   2
                l(6) =   2
     Q(r) pseudized with 0 coefficients 


     PseudoPot. # 2 for Zn read from file:
     /arf/home/amuhaymin/pseudo/Zn.pbe-dnl-kjpaw_psl.1.0.0.UPF
     MD5 check sum: c608214d9520ac179f507641260889e3
     Pseudo is Projector augmented-wave + core cor, Zval = 12.0
     Generated using &quot;atomic&quot; code by A. Dal Corso  v.6.2.2
     Shape of augmentation charge: PSQ
     Using radial grid of 1201 points,  6 beta functions with: 
                l(1) =   0
                l(2) =   0
                l(3) =   1
                l(4) =   1
                l(5) =   2
                l(6) =   2
     Q(r) pseudized with 0 coefficients 


     PseudoPot. # 3 for Ni read from file:
     /arf/home/amuhaymin/pseudo/Ni.pbe-spn-kjpaw_psl.1.0.0.UPF
     MD5 check sum: 6e86b733589c3ad8389697b807d86aa7
     Pseudo is Projector augmented-wave + core cor, Zval = 18.0
     Generated using &quot;atomic&quot; code by A. Dal Corso  v.6.3
     Shape of augmentation charge: PSQ
     Using radial grid of 1195 points,  6 beta functions with: 
                l(1) =   0
                l(2) =   0
                l(3) =   1
                l(4) =   1
                l(5) =   2
                l(6) =   2
     Q(r) pseudized with 0 coefficients 


     atomic species   valence    mass     pseudopotential
        S              6.00    32.06500     S ( 1.00)
        Zn            12.00    65.38000     Zn( 1.00)
        Ni            18.00    63.54600     Ni( 1.00)

     Starting magnetic structure 
     atomic species   magnetization
        S            0.000
        Zn           0.000
        Ni           0.167

     24 Sym. Ops. (no inversion) found


                                    s                        frac. trans.

      isym =  1     identity                                     

 cryst.   s( 1) = (     1          0          0      )
                  (     0          1          0      )
                  (     0          0          1      )

 cart.    s( 1) = (  1.0000000  0.0000000  0.0000000 )
                  (  0.0000000  1.0000000  0.0000000 )
                  (  0.0000000  0.0000000  1.0000000 )


      isym =  2     180 deg rotation - cart. axis [0,0,1]        

 cryst.   s( 2) = (    -1          0          0      )
                  (     0         -1          0      )
                  (     0          0          1      )

 cart.    s( 2) = ( -1.0000000  0.0000000  0.0000000 )
                  (  0.0000000 -1.0000000  0.0000000 )
                  (  0.0000000  0.0000000  1.0000000 )


      isym =  3     180 deg rotation - cart. axis [0,1,0]        

 cryst.   s( 3) = (    -1          0          0      )
                  (     0          1          0      )
                  (     0          0         -1      )

 cart.    s( 3) = ( -1.0000000  0.0000000  0.0000000 )
                  (  0.0000000  1.0000000  0.0000000 )
                  (  0.0000000  0.0000000 -1.0000000 )


      isym =  4     180 deg rotation - cart. axis [1,0,0]        

 cryst.   s( 4) = (     1          0          0      )
                  (     0         -1          0      )
                  (     0          0         -1      )

 cart.    s( 4) = (  1.0000000  0.0000000  0.0000000 )
                  (  0.0000000 -1.0000000  0.0000000 )
                  (  0.0000000  0.0000000 -1.0000000 )


      isym =  5     120 deg rotation - cart. axis [-1,-1,-1]     

 cryst.   s( 5) = (     0          0          1      )
                  (     1          0          0      )
                  (     0          1          0      )

 cart.    s( 5) = (  0.0000000  1.0000000  0.0000000 )
                  (  0.0000000  0.0000000  1.0000000 )
                  (  1.0000000  0.0000000  0.0000000 )


      isym =  6     120 deg rotation - cart. axis [-1,1,1]       

 cryst.   s( 6) = (     0          0         -1      )
                  (    -1          0          0      )
                  (     0          1          0      )

 cart.    s( 6) = (  0.0000000 -1.0000000  0.0000000 )
                  (  0.0000000  0.0000000  1.0000000 )
                  ( -1.0000000  0.0000000  0.0000000 )


      isym =  7     120 deg rotation - cart. axis [1,1,-1]       

 cryst.   s( 7) = (     0          0         -1      )
                  (     1          0          0      )
                  (     0         -1          0      )

 cart.    s( 7) = (  0.0000000  1.0000000  0.0000000 )
                  (  0.0000000  0.0000000 -1.0000000 )
                  ( -1.0000000  0.0000000  0.0000000 )


      isym =  8     120 deg rotation - cart. axis [1,-1,1]       

 cryst.   s( 8) = (     0          0          1      )
                  (    -1          0          0      )
                  (     0         -1          0      )

 cart.    s( 8) = (  0.0000000 -1.0000000  0.0000000 )
                  (  0.0000000  0.0000000 -1.0000000 )
                  (  1.0000000  0.0000000  0.0000000 )


      isym =  9     120 deg rotation - cart. axis [1,1,1]        

 cryst.   s( 9) = (     0          1          0      )
                  (     0          0          1      )
                  (     1          0          0      )

 cart.    s( 9) = (  0.0000000  0.0000000  1.0000000 )
                  (  1.0000000  0.0000000  0.0000000 )
                  (  0.0000000  1.0000000  0.0000000 )


      isym = 10     120 deg rotation - cart. axis [-1,1,-1]      

 cryst.   s(10) = (     0         -1          0      )
                  (     0          0         -1      )
                  (     1          0          0      )

 cart.    s(10) = (  0.0000000  0.0000000  1.0000000 )
                  ( -1.0000000  0.0000000  0.0000000 )
                  (  0.0000000 -1.0000000  0.0000000 )


      isym = 11     120 deg rotation - cart. axis [1,-1,-1]      

 cryst.   s(11) = (     0         -1          0      )
                  (     0          0          1      )
                  (    -1          0          0      )

 cart.    s(11) = (  0.0000000  0.0000000 -1.0000000 )
                  ( -1.0000000  0.0000000  0.0000000 )
                  (  0.0000000  1.0000000  0.0000000 )


      isym = 12     120 deg rotation - cart. axis [-1,-1,1]      

 cryst.   s(12) = (     0          1          0      )
                  (     0          0         -1      )
                  (    -1          0          0      )

 cart.    s(12) = (  0.0000000  0.0000000 -1.0000000 )
                  (  1.0000000  0.0000000  0.0000000 )
                  (  0.0000000 -1.0000000  0.0000000 )


      isym = 13     inv. 180 deg rotation - cart. axis [1,1,0]   

 cryst.   s(13) = (     0         -1          0      )
                  (    -1          0          0      )
                  (     0          0          1      )

 cart.    s(13) = (  0.0000000 -1.0000000  0.0000000 )
                  ( -1.0000000  0.0000000  0.0000000 )
                  (  0.0000000  0.0000000  1.0000000 )


      isym = 14     inv. 180 deg rotation - cart. axis [1,-1,0]  

 cryst.   s(14) = (     0          1          0      )
                  (     1          0          0      )
                  (     0          0          1      )

 cart.    s(14) = (  0.0000000  1.0000000  0.0000000 )
                  (  1.0000000  0.0000000  0.0000000 )
                  (  0.0000000  0.0000000  1.0000000 )


      isym = 15     inv.  90 deg rotation - cart. axis [0,0,-1]  

 cryst.   s(15) = (     0          1          0      )
                  (    -1          0          0      )
                  (     0          0         -1      )

 cart.    s(15) = (  0.0000000 -1.0000000  0.0000000 )
                  (  1.0000000  0.0000000  0.0000000 )
                  (  0.0000000  0.0000000 -1.0000000 )


      isym = 16     inv.  90 deg rotation - cart. axis [0,0,1]   

 cryst.   s(16) = (     0         -1          0      )
                  (     1          0          0      )
                  (     0          0         -1      )

 cart.    s(16) = (  0.0000000  1.0000000  0.0000000 )
                  ( -1.0000000  0.0000000  0.0000000 )
                  (  0.0000000  0.0000000 -1.0000000 )


      isym = 17     inv. 180 deg rotation - cart. axis [1,0,1]   

 cryst.   s(17) = (     0          0         -1      )
                  (     0          1          0      )
                  (    -1          0          0      )

 cart.    s(17) = (  0.0000000  0.0000000 -1.0000000 )
                  (  0.0000000  1.0000000  0.0000000 )
                  ( -1.0000000  0.0000000  0.0000000 )


      isym = 18     inv. 180 deg rotation - cart. axis [-1,0,1]  

 cryst.   s(18) = (     0          0          1      )
                  (     0          1          0      )
                  (     1          0          0      )

 cart.    s(18) = (  0.0000000  0.0000000  1.0000000 )
                  (  0.0000000  1.0000000  0.0000000 )
                  (  1.0000000  0.0000000  0.0000000 )


      isym = 19     inv.  90 deg rotation - cart. axis [0,1,0]   

 cryst.   s(19) = (     0          0          1      )
                  (     0         -1          0      )
                  (    -1          0          0      )

 cart.    s(19) = (  0.0000000  0.0000000 -1.0000000 )
                  (  0.0000000 -1.0000000  0.0000000 )
                  (  1.0000000  0.0000000  0.0000000 )


      isym = 20     inv.  90 deg rotation - cart. axis [0,-1,0]  

 cryst.   s(20) = (     0          0         -1      )
                  (     0         -1          0      )
                  (     1          0          0      )

 cart.    s(20) = (  0.0000000  0.0000000  1.0000000 )
                  (  0.0000000 -1.0000000  0.0000000 )
                  ( -1.0000000  0.0000000  0.0000000 )


      isym = 21     inv. 180 deg rotation - cart. axis [0,1,1]   

 cryst.   s(21) = (     1          0          0      )
                  (     0          0         -1      )
                  (     0         -1          0      )

 cart.    s(21) = (  1.0000000  0.0000000  0.0000000 )
                  (  0.0000000  0.0000000 -1.0000000 )
                  (  0.0000000 -1.0000000  0.0000000 )


      isym = 22     inv. 180 deg rotation - cart. axis [0,1,-1]  

 cryst.   s(22) = (     1          0          0      )
                  (     0          0          1      )
                  (     0          1          0      )

 cart.    s(22) = (  1.0000000  0.0000000  0.0000000 )
                  (  0.0000000  0.0000000  1.0000000 )
                  (  0.0000000  1.0000000  0.0000000 )


      isym = 23     inv.  90 deg rotation - cart. axis [-1,0,0]  

 cryst.   s(23) = (    -1          0          0      )
                  (     0          0          1      )
                  (     0         -1          0      )

 cart.    s(23) = ( -1.0000000  0.0000000  0.0000000 )
                  (  0.0000000  0.0000000 -1.0000000 )
                  (  0.0000000  1.0000000  0.0000000 )


      isym = 24     inv.  90 deg rotation - cart. axis [1,0,0]   

 cryst.   s(24) = (    -1          0          0      )
                  (     0          0         -1      )
                  (     0          1          0      )

 cart.    s(24) = ( -1.0000000  0.0000000  0.0000000 )
                  (  0.0000000  0.0000000  1.0000000 )
                  (  0.0000000 -1.0000000  0.0000000 )


     point group T_d (-43m) 
     there are  5 classes
     the character table:

       E     8C3   3C2   6S4   6s_d 
A_1    1.00  1.00  1.00  1.00  1.00
A_2    1.00  1.00  1.00 -1.00 -1.00
E      2.00 -1.00  2.00  0.00  0.00
T_1    3.00  0.00 -1.00  1.00 -1.00
T_2    3.00  0.00 -1.00 -1.00  1.00

     the symmetry operations in each class and the name of the first element:

     E        1
          identity                                               
     8C3      5    7    8    6   12    9   10   11
          120 deg rotation - cart. axis [-1,-1,-1]               
     3C2      2    3    4
          180 deg rotation - cart. axis [0,0,1]                  
     6S4     15   16   20   19   23   24
          inv.  90 deg rotation - cart. axis [0,0,-1]            
     6s_d    13   14   17   18   21   22
          inv. 180 deg rotation - cart. axis [1,1,0]             

   Cartesian axes

     site n.     atom                  positions (alat units)
         1           Zn  tau(   1) = (   0.0000000   0.0000000   0.0000000  )
         2           Zn  tau(   2) = (  -0.0000241   0.2498749   0.2498749  )
         3           Zn  tau(   3) = (   0.2498749  -0.0000241   0.2498749  )
         4           Zn  tau(   4) = (   0.2498749   0.2498749  -0.0000241  )
         5           S   tau(   5) = (   0.1250394   0.3752391   0.3752391  )
         6           S   tau(   6) = (   0.1250569   0.1250569   0.1250569  )
         7           S   tau(   7) = (   0.3752391   0.3752391   0.1250394  )
         8           S   tau(   8) = (   0.3752391   0.1250394   0.3752391  )
         9           Zn  tau(   9) = (   0.0000000   0.0000000   0.5000000  )
        10           Zn  tau(  10) = (   0.0000241   0.2498749   0.7501251  )
        11           Zn  tau(  11) = (   0.2498749   0.0000241   0.7501251  )
        12           Zn  tau(  12) = (   0.2501623   0.2501623   0.4983566  )
        13           S   tau(  13) = (   0.1259120   0.3752661   0.8740880  )
        14           S   tau(  14) = (   0.1259120   0.1259120   0.6247339  )
        15           S   tau(  15) = (   0.3798951   0.3798951   0.6201049  )
        16           S   tau(  16) = (   0.3752661   0.1259120   0.8740880  )
        17           Zn  tau(  17) = (   0.0000000   0.5000000   0.0000000  )
        18           Zn  tau(  18) = (   0.0000241   0.7501251   0.2498749  )
        19           Zn  tau(  19) = (   0.2501623   0.4983566   0.2501623  )
        20           Zn  tau(  20) = (   0.2498749   0.7501251   0.0000241  )
        21           S   tau(  21) = (   0.1259120   0.8740880   0.3752661  )
        22           S   tau(  22) = (   0.1259120   0.6247339   0.1259120  )
        23           S   tau(  23) = (   0.3752661   0.8740880   0.1259120  )
        24           S   tau(  24) = (   0.3798951   0.6201049   0.3798951  )
        25           Zn  tau(  25) = (   0.0000000   0.5000000   0.5000000  )
        26           Zn  tau(  26) = (  -0.0000241   0.7501251   0.7501251  )
        27           Zn  tau(  27) = (   0.2501623   0.5016434   0.7498377  )
        28           Zn  tau(  28) = (   0.2501623   0.7498377   0.5016434  )
        29           S   tau(  29) = (   0.1250569   0.8749431   0.8749431  )
        30           S   tau(  30) = (   0.1250394   0.6247609   0.6247609  )
        31           S   tau(  31) = (   0.3752391   0.8749606   0.6247609  )
        32           S   tau(  32) = (   0.3752391   0.6247609   0.8749606  )
        33           Zn  tau(  33) = (   0.5000000   0.0000000   0.0000000  )
        34           Zn  tau(  34) = (   0.4983566   0.2501623   0.2501623  )
        35           Zn  tau(  35) = (   0.7501251   0.0000241   0.2498749  )
        36           Zn  tau(  36) = (   0.7501251   0.2498749   0.0000241  )
        37           S   tau(  37) = (   0.6201049   0.3798951   0.3798951  )
        38           S   tau(  38) = (   0.6247339   0.1259120   0.1259120  )
        39           S   tau(  39) = (   0.8740880   0.3752661   0.1259120  )
        40           S   tau(  40) = (   0.8740880   0.1259120   0.3752661  )
        41           Zn  tau(  41) = (   0.5000000   0.0000000   0.5000000  )
        42           Zn  tau(  42) = (   0.5016434   0.2501623   0.7498377  )
        43           Zn  tau(  43) = (   0.7501251  -0.0000241   0.7501251  )
        44           Zn  tau(  44) = (   0.7498377   0.2501623   0.5016434  )
        45           S   tau(  45) = (   0.6247609   0.3752391   0.8749606  )
        46           S   tau(  46) = (   0.6247609   0.1250394   0.6247609  )
        47           S   tau(  47) = (   0.8749606   0.3752391   0.6247609  )
        48           S   tau(  48) = (   0.8749431   0.1250569   0.8749431  )
        49           Zn  tau(  49) = (   0.5000000   0.5000000   0.0000000  )
        50           Zn  tau(  50) = (   0.5016434   0.7498377   0.2501623  )
        51           Zn  tau(  51) = (   0.7498377   0.5016434   0.2501623  )
        52           Zn  tau(  52) = (   0.7501251   0.7501251  -0.0000241  )
        53           S   tau(  53) = (   0.6247609   0.8749606   0.3752391  )
        54           S   tau(  54) = (   0.6247609   0.6247609   0.1250394  )
        55           S   tau(  55) = (   0.8749431   0.8749431   0.1250569  )
        56           S   tau(  56) = (   0.8749606   0.6247609   0.3752391  )
        57           Ni  tau(  57) = (   0.5000000   0.5000000   0.5000000  )
        58           Zn  tau(  58) = (   0.4983566   0.7498377   0.7498377  )
        59           Zn  tau(  59) = (   0.7498377   0.4983566   0.7498377  )
        60           Zn  tau(  60) = (   0.7498377   0.7498377   0.4983566  )
        61           S   tau(  61) = (   0.6247339   0.8740880   0.8740880  )
        62           S   tau(  62) = (   0.6201049   0.6201049   0.6201049  )
        63           S   tau(  63) = (   0.8740880   0.8740880   0.6247339  )
        64           S   tau(  64) = (   0.8740880   0.6247339   0.8740880  )

   Crystallographic axes

     site n.     atom                  positions (cryst. coord.)
         1           Zn  tau(   1) = (  0.0000000  0.0000000  0.0000000  )
         2           Zn  tau(   2) = ( -0.0000241  0.2498749  0.2498749  )
         3           Zn  tau(   3) = (  0.2498749 -0.0000241  0.2498749  )
         4           Zn  tau(   4) = (  0.2498749  0.2498749 -0.0000241  )
         5           S   tau(   5) = (  0.1250394  0.3752391  0.3752391  )
         6           S   tau(   6) = (  0.1250569  0.1250569  0.1250569  )
         7           S   tau(   7) = (  0.3752391  0.3752391  0.1250394  )
         8           S   tau(   8) = (  0.3752391  0.1250394  0.3752391  )
         9           Zn  tau(   9) = (  0.0000000  0.0000000  0.5000000  )
        10           Zn  tau(  10) = (  0.0000241  0.2498749  0.7501251  )
        11           Zn  tau(  11) = (  0.2498749  0.0000241  0.7501251  )
        12           Zn  tau(  12) = (  0.2501623  0.2501623  0.4983566  )
        13           S   tau(  13) = (  0.1259120  0.3752661  0.8740880  )
        14           S   tau(  14) = (  0.1259120  0.1259120  0.6247339  )
        15           S   tau(  15) = (  0.3798951  0.3798951  0.6201049  )
        16           S   tau(  16) = (  0.3752661  0.1259120  0.8740880  )
        17           Zn  tau(  17) = (  0.0000000  0.5000000  0.0000000  )
        18           Zn  tau(  18) = (  0.0000241  0.7501251  0.2498749  )
        19           Zn  tau(  19) = (  0.2501623  0.4983566  0.2501623  )
        20           Zn  tau(  20) = (  0.2498749  0.7501251  0.0000241  )
        21           S   tau(  21) = (  0.1259120  0.8740880  0.3752661  )
        22           S   tau(  22) = (  0.1259120  0.6247339  0.1259120  )
        23           S   tau(  23) = (  0.3752661  0.8740880  0.1259120  )
        24           S   tau(  24) = (  0.3798951  0.6201049  0.3798951  )
        25           Zn  tau(  25) = (  0.0000000  0.5000000  0.5000000  )
        26           Zn  tau(  26) = ( -0.0000241  0.7501251  0.7501251  )
        27           Zn  tau(  27) = (  0.2501623  0.5016434  0.7498377  )
        28           Zn  tau(  28) = (  0.2501623  0.7498377  0.5016434  )
        29           S   tau(  29) = (  0.1250569  0.8749431  0.8749431  )
        30           S   tau(  30) = (  0.1250394  0.6247609  0.6247609  )
        31           S   tau(  31) = (  0.3752391  0.8749606  0.6247609  )
        32           S   tau(  32) = (  0.3752391  0.6247609  0.8749606  )
        33           Zn  tau(  33) = (  0.5000000  0.0000000  0.0000000  )
        34           Zn  tau(  34) = (  0.4983566  0.2501623  0.2501623  )
        35           Zn  tau(  35) = (  0.7501251  0.0000241  0.2498749  )
        36           Zn  tau(  36) = (  0.7501251  0.2498749  0.0000241  )
        37           S   tau(  37) = (  0.6201049  0.3798951  0.3798951  )
        38           S   tau(  38) = (  0.6247339  0.1259120  0.1259120  )
        39           S   tau(  39) = (  0.8740880  0.3752661  0.1259120  )
        40           S   tau(  40) = (  0.8740880  0.1259120  0.3752661  )
        41           Zn  tau(  41) = (  0.5000000  0.0000000  0.5000000  )
        42           Zn  tau(  42) = (  0.5016434  0.2501623  0.7498377  )
        43           Zn  tau(  43) = (  0.7501251 -0.0000241  0.7501251  )
        44           Zn  tau(  44) = (  0.7498377  0.2501623  0.5016434  )
        45           S   tau(  45) = (  0.6247609  0.3752391  0.8749606  )
        46           S   tau(  46) = (  0.6247609  0.1250394  0.6247609  )
        47           S   tau(  47) = (  0.8749606  0.3752391  0.6247609  )
        48           S   tau(  48) = (  0.8749431  0.1250569  0.8749431  )
        49           Zn  tau(  49) = (  0.5000000  0.5000000  0.0000000  )
        50           Zn  tau(  50) = (  0.5016434  0.7498377  0.2501623  )
        51           Zn  tau(  51) = (  0.7498377  0.5016434  0.2501623  )
        52           Zn  tau(  52) = (  0.7501251  0.7501251 -0.0000241  )
        53           S   tau(  53) = (  0.6247609  0.8749606  0.3752391  )
        54           S   tau(  54) = (  0.6247609  0.6247609  0.1250394  )
        55           S   tau(  55) = (  0.8749431  0.8749431  0.1250569  )
        56           S   tau(  56) = (  0.8749606  0.6247609  0.3752391  )
        57           Ni  tau(  57) = (  0.5000000  0.5000000  0.5000000  )
        58           Zn  tau(  58) = (  0.4983566  0.7498377  0.7498377  )
        59           Zn  tau(  59) = (  0.7498377  0.4983566  0.7498377  )
        60           Zn  tau(  60) = (  0.7498377  0.7498377  0.4983566  )
        61           S   tau(  61) = (  0.6247339  0.8740880  0.8740880  )
        62           S   tau(  62) = (  0.6201049  0.6201049  0.6201049  )
        63           S   tau(  63) = (  0.8740880  0.8740880  0.6247339  )
        64           S   tau(  64) = (  0.8740880  0.6247339  0.8740880  )

     number of k points=    10 (tetrahedron method)
                       cart. coord. in units 2pi/alat
        k(    1) = (   0.0000000   0.0000000   0.0000000), wk =   0.0156250
        k(    2) = (   0.0000000   0.0000000   0.2500000), wk =   0.0937500
        k(    3) = (   0.0000000   0.0000000  -0.5000000), wk =   0.0468750
        k(    4) = (   0.0000000   0.2500000   0.2500000), wk =   0.1875000
        k(    5) = (   0.0000000   0.2500000  -0.5000000), wk =   0.1875000
        k(    6) = (   0.0000000  -0.5000000  -0.5000000), wk =   0.0468750
        k(    7) = (   0.2500000   0.2500000   0.2500000), wk =   0.1250000
        k(    8) = (   0.2500000   0.2500000  -0.5000000), wk =   0.1875000
        k(    9) = (   0.2500000  -0.5000000  -0.5000000), wk =   0.0937500
        k(   10) = (  -0.5000000  -0.5000000  -0.5000000), wk =   0.0156250

                       cryst. coord.
        k(    1) = (   0.0000000   0.0000000   0.0000000), wk =   0.0156250
        k(    2) = (   0.0000000   0.0000000   0.2500000), wk =   0.0937500
        k(    3) = (   0.0000000   0.0000000  -0.5000000), wk =   0.0468750
        k(    4) = (   0.0000000   0.2500000   0.2500000), wk =   0.1875000
        k(    5) = (   0.0000000   0.2500000  -0.5000000), wk =   0.1875000
        k(    6) = (   0.0000000  -0.5000000  -0.5000000), wk =   0.0468750
        k(    7) = (   0.2500000   0.2500000   0.2500000), wk =   0.1250000
        k(    8) = (   0.2500000   0.2500000  -0.5000000), wk =   0.1875000
        k(    9) = (   0.2500000  -0.5000000  -0.5000000), wk =   0.0937500
        k(   10) = (  -0.5000000  -0.5000000  -0.5000000), wk =   0.0156250

     Dense  grid:  2160009 G-vectors     FFT dimensions: ( 162, 162, 162)

     Dynamical RAM for                 wfc:      12.83 MB

     Dynamical RAM for     wfc (w. buffer):      38.50 MB

     Dynamical RAM for           str. fact:       0.88 MB

     Dynamical RAM for           local pot:       0.00 MB

     Dynamical RAM for          nlocal pot:      42.36 MB

     Dynamical RAM for                qrad:       5.90 MB

     Dynamical RAM for          rho,v,vnew:       4.17 MB

     Dynamical RAM for           G-vectors:       1.25 MB

     Dynamical RAM for          h,s,v(r/c):       2.46 MB

     Dynamical RAM for          <psi|beta>:       6.13 MB

     Dynamical RAM for                 psi:      25.67 MB

     Dynamical RAM for                hpsi:      25.67 MB

     Dynamical RAM for                spsi:      25.67 MB

     Dynamical RAM for      wfcinit/wfcrot:      34.65 MB

     Dynamical RAM for           addusdens:       6.97 MB

     Estimated static dynamical RAM per process >      96.64 MB

     Estimated max dynamical RAM per process >     182.24 MB

     Estimated total dynamical RAM >     199.33 GB
     Generating pointlists ...
     new r_m :   0.0858 (alat units)  1.7650 (a.u.) for type    1
     new r_m :   0.0889 (alat units)  1.8288 (a.u.) for type    2
     new r_m :   0.0858 (alat units)  1.7650 (a.u.) for type    3

     The potential is recalculated from file :
     ./out/Ni_qp1.save/charge-density

     Starting wfcs are  417 randomized atomic wfcs
     Checking if some PAW data can be deallocated... 
       PAW data deallocated on  560 nodes for type:  1
       PAW data deallocated on  577 nodes for type:  2
       PAW data deallocated on 1103 nodes for type:  3

     Band Structure Calculation
     Davidson diagonalization with overlap

     Computing kpt #:     1  of     2 on this pool
     c_bands:  4 eigenvalues not converged
     total cpu time spent up to now is       83.3 secs

     Computing kpt #:     2  of     2 on this pool
     c_bands:  3 eigenvalues not converged
     total cpu time spent up to now is      150.8 secs

     ethr =  1.72E-12,  avg # of iterations =105.3

     total cpu time spent up to now is      151.0 secs

     End of band structure calculation

 ------ SPIN UP ------------


          k = 0.0000 0.0000 0.0000 (269825 PWs)   bands (ev):

   -99.0391 -59.4021 -59.4021 -59.4021  -7.4859  -7.0454  -6.9498  -6.9498
    -6.9498  -6.8962  -6.8962  -6.7058  -6.7058  -6.7058  -6.6678  -6.5795
    -6.5795  -6.5795  -6.5786  -6.5786  -6.5786  -6.5724  -6.5724  -6.5454
    -6.5454  -6.5454  -6.5430  -6.3223  -6.3223  -6.3223  -6.2497  -6.2497
    -6.2497  -6.2399  -6.2399  -6.2399  -0.7098  -0.6987  -0.6987  -0.6843
    -0.6843  -0.6843  -0.6692  -0.6580  -0.6580  -0.6513  -0.6513  -0.6513
    -0.5647  -0.5647  -0.5647  -0.5627  -0.5627  -0.5627  -0.5581  -0.5581
    -0.5552  -0.5552  -0.5552  -0.5413  -0.5352  -0.5352  -0.5352  -0.5344
    -0.5318  -0.5318  -0.5318  -0.5235  -0.5235  -0.5235  -0.5194  -0.5194
    -0.5194  -0.5175  -0.5175  -0.5115  -0.5115  -0.5115  -0.5034  -0.5034
    -0.4969  -0.4969  -0.4969  -0.4915  -0.4915  -0.4902  -0.4874  -0.4874
    -0.4874  -0.4833  -0.4833  -0.4833  -0.4820  -0.4820  -0.4820  -0.4477
    -0.4477  -0.4477  -0.3892  -0.3892  -0.3892  -0.3847  -0.3847  -0.3847
    -0.3826  -0.3653  -0.3653  -0.3653  -0.3631  -0.3631  -0.3578  -0.3578
    -0.3578  -0.3303  -0.3303  -0.3303  -0.3201  -0.3201  -0.3201  -0.2614
    -0.2614  -0.2614  -0.2578  -0.2578  -0.2578  -0.2418  -0.2418  -0.2245
    -0.2131  -0.2131  -0.2131  -0.2123  -0.2123  -0.2112  -0.2112  -0.2112
    -0.2100  -0.1985  -0.1875  -0.1875  -0.1875  -0.1861  -0.1861  -0.1861
    -0.1804  -0.1804  -0.1665  -0.1647  -0.1647  -0.1647  -0.1595  -0.1595
    -0.1455  -0.1455  -0.1455  -0.1447  -0.1447  -0.1412  -0.1293  -0.1293
    -0.1293  -0.1242  -0.1242  -0.1242  -0.1211  -0.1211  -0.1116  -0.0983
    -0.0983  -0.0983  -0.0977  -0.0977  -0.0977  -0.0930  -0.0930  -0.0857
    -0.0825  -0.0825  -0.0392  -0.0392  -0.0392   0.0237   0.0415   0.0415
     0.0415   0.1641   0.1641   0.1641   0.2093   0.2093   0.2093   0.4029
     0.4029   0.4029   0.4309   1.0049   1.0049   1.0421   1.0797   1.0797
     1.0797   1.1159   1.1159   1.1340   1.2836   1.2836   1.2836   1.6728
     1.6728   1.6728   1.6958   1.6958   1.6958   1.7007   1.7007   1.7204
     2.0877   2.0877   2.0877   2.3937   2.3937   2.8766   2.8766   2.8766
     2.9264   2.9264   2.9264   2.9441   2.9441   2.9441   2.9452   3.0114
     3.0114   3.0330   3.0926   3.0926   3.0926   3.0962   3.0962   3.1069
     3.1069   3.1069   3.1352   3.1418   3.1418   3.1418   3.2773   3.2773
     3.2773   3.3990   3.3990   3.3990   3.4725   3.4725   3.4725   3.5660
     3.5660   4.3354   4.3354   4.3354   4.3550   4.3550   4.3550   4.3740
     4.3740   4.3740   4.4610   4.4610   4.4610   4.6400   4.6400   4.6400
     4.6963   4.6963   4.6963   4.6986   4.7097   4.7097   4.7299   4.7299
     4.7299   4.7363   4.7363   4.7363   4.7851   4.7851   4.8708   4.8708
     4.8709   5.5914   5.5914   5.5914   7.5897   8.8171   8.8171   8.8171
     8.8932   9.0476   9.0476   9.0476   9.6220   9.6220   9.6749   9.9713
     9.9713   9.9856   9.9856   9.9856  10.0121  10.1486  10.1486  10.1486
    10.1537  10.1537  10.1707  10.2996  10.2996  10.2996  10.3171  10.3171
    10.3171  10.3274  10.3274  10.3274  10.3290  10.3290  10.7382  11.2280
    11.2280  11.2280  11.3094  11.3094  11.3094  11.4511  11.4511  11.4575
    11.4575  11.4575  11.8538  11.9550  11.9550  11.9550  12.1859  12.1859
    12.1859  12.1885  12.1885  12.1885  12.2087

     occupation numbers 
     1.0000   1.0000   1.0000   1.0000   1.0000   1.0000   1.0000   1.0000
     1.0000   1.0000   1.0000   1.0000   1.0000   1.0000   1.0000   1.0000
     1.0000   1.0000   1.0000   1.0000   1.0000   1.0000   1.0000   1.0000
     1.0000   1.0000   1.0000   1.0000   1.0000   1.0000   1.0000   1.0000
     1.0000   1.0000   1.0000   1.0000   1.0000   1.0000   1.0000   1.0000
     1.0000   1.0000   1.0000   1.0000   1.0000   1.0000   1.0000   1.0000
     1.0000   1.0000   1.0000   1.0000   1.0000   1.0000   1.0000   1.0000
     1.0000   1.0000   1.0000   1.0000   1.0000   1.0000   1.0000   1.0000
     1.0000   1.0000   1.0000   1.0000   1.0000   1.0000   1.0000   1.0000
     1.0000   1.0000   1.0000   1.0000   1.0000   1.0000   1.0000   1.0000
     1.0000   1.0000   1.0000   1.0000   1.0000   1.0000   1.0000   1.0000
     1.0000   1.0000   1.0000   1.0000   1.0000   1.0000   1.0000   1.0000
     1.0000   1.0000   1.0000   1.0000   1.0000   1.0000   1.0000   1.0000
     1.0000   1.0000   1.0000   1.0000   1.0000   1.0000   1.0000   1.0000
     1.0000   1.0000   1.0000   1.0000   1.0000   1.0000   1.0000   1.0000
     1.0000   1.0000   1.0000   1.0000   1.0000   1.0000   1.0000   1.0000
     1.0000   1.0000   1.0000   1.0000   1.0000   1.0000   1.0000   1.0000
     1.0000   1.0000   1.0000   1.0000   1.0000   1.0000   1.0000   1.0000
     1.0000   1.0000   1.0000   1.0000   1.0000   1.0000   1.0000   1.0000
     1.0000   1.0000   1.0000   1.0000   1.0000   1.0000   1.0000   1.0000
     1.0000   1.0000   1.0000   1.0000   1.0000   1.0000   1.0000   1.0000
     1.0000   1.0000   1.0000   1.0000   1.0000   1.0000   1.0000   1.0000
     1.0000   1.0000   1.0000   1.0000   1.0000   1.0000   1.0000   1.0000
     1.0000   1.0000   1.0000   1.0000   1.0000   1.0000   1.0000   1.0000
     1.0000   1.0000   1.0000   1.0000   1.0000   1.0000   1.0000   1.0000
     1.0000   1.0000   1.0000   1.0000   1.0000   1.0000   1.0000   1.0000
     1.0000   1.0000   1.0000   1.0000   1.0000   1.0000   1.0000   1.0000
     1.0000   1.0000   1.0000   1.0000   1.0000   1.0000   1.0000   1.0000
     1.0000   1.0000   1.0000   1.0000   1.0000   1.0000   1.0000   1.0000
     1.0000   1.0000   1.0000   1.0000   1.0000   1.0000   1.0000   1.0000
     1.0000   1.0000   1.0000   1.0000   1.0000   1.0000   1.0000   1.0000
     1.0000   1.0000   1.0000   1.0000   1.0000   1.0000   1.0000   1.0000
     1.0000   1.0000   1.0000   1.0000   1.0000   1.0000   1.0000   1.0000
     1.0000   1.0000   1.0000   1.0000   1.0000   1.0000   1.0000   1.0000
     1.0000   1.0000   1.0000   1.0000   1.0000   1.0000   1.0000   1.0000
     1.0000   1.0000   1.0000   1.0000   1.0000   1.0000   1.0000   1.0000
     1.0000   1.0000   1.0000   1.0000   0.0000   0.0000   0.0000   0.0000
     0.0000   0.0000   0.0000   0.0000   0.0000   0.0000   0.0000   0.0000
     0.0000   0.0000   0.0000   0.0000   0.0000   0.0000   0.0000   0.0000
     0.0000   0.0000   0.0000   0.0000   0.0000   0.0000   0.0000   0.0000
     0.0000   0.0000   0.0000   0.0000   0.0000   0.0000   0.0000   0.0000
     0.0000   0.0000   0.0000   0.0000   0.0000   0.0000   0.0000   0.0000
     0.0000   0.0000   0.0000   0.0000   0.0000   0.0000   0.0000   0.0000
     0.0000   0.0000   0.0000   0.0000   0.0000

          k = 0.0000 0.0000 0.2500 (269876 PWs)   bands (ev):

   -99.0391 -59.4021 -59.4021 -59.4021  -7.4510  -7.1645  -6.9759  -6.9314
    -6.9314  -6.8722  -6.7887  -6.7482  -6.7482  -6.7276  -6.6990  -6.6304
    -6.6304  -6.6211  -6.6025  -6.5567  -6.5566  -6.5566  -6.5510  -6.4810
    -6.4723  -6.4723  -6.4511  -6.3556  -6.3261  -6.3261  -6.2783  -6.2745
    -6.2640  -6.2640  -6.2418  -6.2418  -0.6998  -0.6873  -0.6824  -0.6799
    -0.6683  -0.6683  -0.6676  -0.6551  -0.6437  -0.6423  -0.6423  -0.6382
    -0.5815  -0.5815  -0.5729  -0.5678  -0.5655  -0.5655  -0.5647  -0.5613
    -0.5609  -0.5609  -0.5529  -0.5502  -0.5457  -0.5448  -0.5448  -0.5408
    -0.5378  -0.5378  -0.5353  -0.5321  -0.5274  -0.5267  -0.5267  -0.5231
    -0.5197  -0.5192  -0.5192  -0.5162  -0.5155  -0.5146  -0.5146  -0.5104
    -0.5034  -0.5034  -0.5028  -0.4985  -0.4966  -0.4948  -0.4919  -0.4919
    -0.4845  -0.4804  -0.4804  -0.4761  -0.4732  -0.4699  -0.4686  -0.4686
    -0.4511  -0.4511  -0.4500  -0.4227  -0.4227  -0.4104  -0.4008  -0.3962
    -0.3962  -0.3642  -0.3603  -0.3603  -0.3418  -0.3369  -0.3360  -0.3360
    -0.3317  -0.3317  -0.3178  -0.2894  -0.2894  -0.2891  -0.2779  -0.2667
    -0.2564  -0.2507  -0.2507  -0.2489  -0.2396  -0.2396  -0.2318  -0.2263
    -0.2168  -0.2163  -0.2163  -0.2108  -0.2094  -0.2071  -0.2071  -0.2065
    -0.1982  -0.1955  -0.1955  -0.1916  -0.1849  -0.1753  -0.1745  -0.1739
    -0.1739  -0.1711  -0.1695  -0.1655  -0.1599  -0.1599  -0.1591  -0.1560
    -0.1479  -0.1461  -0.1461  -0.1439  -0.1400  -0.1389  -0.1389  -0.1389
    -0.1326  -0.1311  -0.1252  -0.1233  -0.1233  -0.1205  -0.1117  -0.1055
    -0.1055  -0.1041  -0.1040  -0.0919  -0.0916  -0.0916  -0.0898  -0.0855
    -0.0836  -0.0628  -0.0604  -0.0566  -0.0566  -0.0487  -0.0349   0.0268
     0.0268   0.1280   0.1434   0.1434   0.1715   0.1790   0.1790   0.5860
     0.5860   0.5977   0.6188   1.0123   1.0230   1.0316   1.0847   1.0847
     1.0856   1.1231   1.1253   1.2028   1.2072   1.2072   1.2871   1.3981
     1.4111   1.4111   1.4213   1.4541   1.7493   1.7493   1.7641   2.0594
     2.1855   2.1993   2.1993   2.3238   2.3563   2.5213   2.6913   2.6913
     2.7479   2.7580   2.8412   2.8412   2.8542   2.8691   2.9386   2.9386
     2.9483   3.0162   3.0231   3.0231   3.0404   3.2714   3.3312   3.3312
     3.3326   3.3512   3.3660   3.3660   3.4084   3.4185   3.4353   3.4353
     3.4833   3.4847   3.4847   3.5242   3.5821   3.5821   3.6385   3.6386
     3.8440   4.0064   4.0064   4.2130   4.2396   4.2869   4.2869   4.3578
     4.3710   4.3710   4.4051   4.4684   4.4684   4.4969   4.5120   4.5145
     4.5145   4.5595   4.6667   4.6698   4.7102   4.7131   4.7251   4.7251
     4.7448   4.7448   4.7682   4.7809   4.7809   4.8133   4.8927   4.9027
     4.9027   5.2457   5.4870   5.4870   7.9828   9.0311   9.0339   9.0339
     9.1033   9.1228   9.2746   9.2746   9.5128   9.6818   9.7020   9.8178
     9.8582  10.0334  10.0413  10.0490  10.0490  10.0765  10.0809  10.0876
    10.0876  10.1911  10.2741  10.2741  10.2791  10.3320  10.3758  10.3758
    10.3799  10.3923  10.4435  10.4435  10.4508  10.6756  10.7199  10.7316
    10.7316  11.0077  11.0680  11.0697  11.0697  11.0943  11.3028  11.5757
    11.5806  11.5806  11.7312  11.8305  11.8449  11.8666  11.8666  11.8759
    12.0148  12.0148  12.0259  12.0447  12.0582

     occupation numbers 
     1.0000   1.0000   1.0000   1.0000   1.0000   1.0000   1.0000   1.0000
     1.0000   1.0000   1.0000   1.0000   1.0000   1.0000   1.0000   1.0000
     1.0000   1.0000   1.0000   1.0000   1.0000   1.0000   1.0000   1.0000
     1.0000   1.0000   1.0000   1.0000   1.0000   1.0000   1.0000   1.0000
     1.0000   1.0000   1.0000   1.0000   1.0000   1.0000   1.0000   1.0000
     1.0000   1.0000   1.0000   1.0000   1.0000   1.0000   1.0000   1.0000
     1.0000   1.0000   1.0000   1.0000   1.0000   1.0000   1.0000   1.0000
     1.0000   1.0000   1.0000   1.0000   1.0000   1.0000   1.0000   1.0000
     1.0000   1.0000   1.0000   1.0000   1.0000   1.0000   1.0000   1.0000
     1.0000   1.0000   1.0000   1.0000   1.0000   1.0000   1.0000   1.0000
     1.0000   1.0000   1.0000   1.0000   1.0000   1.0000   1.0000   1.0000
     1.0000   1.0000   1.0000   1.0000   1.0000   1.0000   1.0000   1.0000
     1.0000   1.0000   1.0000   1.0000   1.0000   1.0000   1.0000   1.0000
     1.0000   1.0000   1.0000   1.0000   1.0000   1.0000   1.0000   1.0000
     1.0000   1.0000   1.0000   1.0000   1.0000   1.0000   1.0000   1.0000
     1.0000   1.0000   1.0000   1.0000   1.0000   1.0000   1.0000   1.0000
     1.0000   1.0000   1.0000   1.0000   1.0000   1.0000   1.0000   1.0000
     1.0000   1.0000   1.0000   1.0000   1.0000   1.0000   1.0000   1.0000
     1.0000   1.0000   1.0000   1.0000   1.0000   1.0000   1.0000   1.0000
     1.0000   1.0000   1.0000   1.0000   1.0000   1.0000   1.0000   1.0000
     1.0000   1.0000   1.0000   1.0000   1.0000   1.0000   1.0000   1.0000
     1.0000   1.0000   1.0000   1.0000   1.0000   1.0000   1.0000   1.0000
     1.0000   1.0000   1.0000   1.0000   1.0000   1.0000   1.0000   1.0000
     1.0000   1.0000   1.0000   1.0000   1.0000   1.0000   1.0000   1.0000
     1.0000   1.0000   1.0000   1.0000   1.0000   1.0000   1.0000   1.0000
     1.0000   1.0000   1.0000   1.0000   1.0000   1.0000   1.0000   1.0000
     1.0000   1.0000   1.0000   1.0000   1.0000   1.0000   1.0000   1.0000
     1.0000   1.0000   1.0000   1.0000   1.0000   1.0000   1.0000   1.0000
     1.0000   1.0000   1.0000   1.0000   1.0000   1.0000   1.0000   1.0000
     1.0000   1.0000   1.0000   1.0000   1.0000   1.0000   1.0000   1.0000
     1.0000   1.0000   1.0000   1.0000   1.0000   1.0000   1.0000   1.0000
     1.0000   1.0000   1.0000   1.0000   1.0000   1.0000   1.0000   1.0000
     1.0000   1.0000   1.0000   1.0000   1.0000   1.0000   1.0000   1.0000
     1.0000   1.0000   1.0000   1.0000   1.0000   1.0000   1.0000   1.0000
     1.0000   1.0000   1.0000   1.0000   1.0000   1.0000   1.0000   1.0000
     1.0000   1.0000   1.0000   1.0000   1.0000   1.0000   1.0000   1.0000
     1.0000   1.0000   1.0000   1.0000   0.0000   0.0000   0.0000   0.0000
     0.0000   0.0000   0.0000   0.0000   0.0000   0.0000   0.0000   0.0000
     0.0000   0.0000   0.0000   0.0000   0.0000   0.0000   0.0000   0.0000
     0.0000   0.0000   0.0000   0.0000   0.0000   0.0000   0.0000   0.0000
     0.0000   0.0000   0.0000   0.0000   0.0000   0.0000   0.0000   0.0000
     0.0000   0.0000   0.0000   0.0000   0.0000   0.0000   0.0000   0.0000
     0.0000   0.0000   0.0000   0.0000   0.0000   0.0000   0.0000   0.0000
     0.0000   0.0000   0.0000   0.0000   0.0000

          k = 0.0000 0.0000-0.5000 (270152 PWs)   bands (ev):

   -99.0391 -59.4021 -59.4021 -59.4021  -7.3816  -7.2885  -6.9517  -6.9031
    -6.9031  -6.8372  -6.8094  -6.7989  -6.7989  -6.7968  -6.6751  -6.6381
    -6.6381  -6.6110  -6.5570  -6.5570  -6.5561  -6.5527  -6.5046  -6.4640
    -6.4082  -6.4082  -6.3891  -6.3458  -6.3447  -6.3429  -6.3406  -6.3406
    -6.2829  -6.2829  -6.2422  -6.2422  -0.6858  -0.6808  -0.6728  -0.6616
    -0.6490  -0.6461  -0.6300  -0.6300  -0.6250  -0.6212  -0.6212  -0.6194
    -0.6185  -0.6185  -0.6002  -0.6002  -0.5969  -0.5945  -0.5935  -0.5830
    -0.5628  -0.5626  -0.5626  -0.5585  -0.5585  -0.5553  -0.5532  -0.5428
    -0.5428  -0.5369  -0.5369  -0.5311  -0.5272  -0.5271  -0.5271  -0.5266
    -0.5251  -0.5202  -0.5188  -0.5188  -0.5182  -0.5147  -0.5147  -0.5091
    -0.5070  -0.5070  -0.5026  -0.5004  -0.4979  -0.4968  -0.4949  -0.4949
    -0.4875  -0.4854  -0.4830  -0.4827  -0.4827  -0.4680  -0.4680  -0.4632
    -0.4365  -0.4365  -0.4355  -0.4348  -0.4222  -0.4222  -0.4217  -0.3926
    -0.3926  -0.3685  -0.3685  -0.3618  -0.3429  -0.3429  -0.3140  -0.3140
    -0.3090  -0.3040  -0.2850  -0.2816  -0.2676  -0.2625  -0.2625  -0.2605
    -0.2601  -0.2601  -0.2578  -0.2451  -0.2390  -0.2378  -0.2292  -0.2292
    -0.2284  -0.2210  -0.2210  -0.2169  -0.2169  -0.2162  -0.2146  -0.2115
    -0.2079  -0.2079  -0.2032  -0.2027  -0.1866  -0.1797  -0.1758  -0.1758
    -0.1726  -0.1698  -0.1689  -0.1674  -0.1624  -0.1624  -0.1545  -0.1483
    -0.1460  -0.1460  -0.1453  -0.1428  -0.1403  -0.1364  -0.1344  -0.1306
    -0.1301  -0.1301  -0.1261  -0.1213  -0.1198  -0.1198  -0.1189  -0.1189
    -0.1186  -0.1071  -0.1054  -0.1053  -0.1023  -0.0985  -0.0947  -0.0947
    -0.0862  -0.0731  -0.0731  -0.0241  -0.0241   0.0013   0.0589   0.0607
     0.0626   0.0669   0.0669   0.0964   0.0964   0.1366   0.1366   0.8898
     0.8898   0.8995   0.9823   0.9823   0.9828   1.0002   1.0216   1.0224
     1.0365   1.0790   1.0936   1.1263   1.1512   1.1512   1.1801   1.1801
     1.1806   1.1893   1.2065   1.5860   1.6905   1.7079   1.7079   1.9976
     2.2558   2.4043   2.4658   2.4658   2.4777   2.5223   2.5412   2.5868
     2.5922   2.5922   2.6678   2.6706   2.6706   2.6881   2.7977   2.7977
     2.9791   3.0384   3.1444   3.1444   3.1549   3.1771   3.1771   3.1856
     3.2091   3.4563   3.6480   3.6480   3.7109   3.7109   3.8493   3.8539
     3.8554   3.8554   3.8805   3.8805   3.8805   3.9070   3.9145   3.9151
     3.9189   3.9189   3.9462   3.9753   3.9759   3.9759   4.0043   4.0043
     4.0078   4.0101   4.1016   4.1016   4.1274   4.1842   4.5126   4.5554
     4.6658   4.6658   4.6686   4.6907   4.6940   4.6940   4.7088   4.7144
     4.7171   4.7235   4.7321   4.7321   4.7780   4.8060   4.8060   4.9046
     5.1647   5.1647   5.2483   5.2483   8.7373   8.7713   9.3266   9.3412
     9.5137   9.5415   9.5415   9.5558   9.5558   9.5563   9.5827   9.6665
     9.8580   9.8702   9.8702   9.8968   9.9152   9.9152  10.1347  10.1796
    10.1796  10.2000  10.2000  10.2017  10.2252  10.3042  10.3711  10.3712
    10.3765  10.5131  10.7069  10.7069  10.7166  10.7315  10.7372  10.7462
    10.7462  10.9396  10.9678  10.9678  10.9744  10.9910  11.0078  11.0305
    11.0305  11.1621  11.2717  11.2958  11.7505  11.7708  11.7708  11.8192
    11.8192  11.8270  11.8548  12.0564  12.0823

     occupation numbers 
     1.0000   1.0000   1.0000   1.0000   1.0000   1.0000   1.0000   1.0000
     1.0000   1.0000   1.0000   1.0000   1.0000   1.0000   1.0000   1.0000
     1.0000   1.0000   1.0000   1.0000   1.0000   1.0000   1.0000   1.0000
     1.0000   1.0000   1.0000   1.0000   1.0000   1.0000   1.0000   1.0000
     1.0000   1.0000   1.0000   1.0000   1.0000   1.0000   1.0000   1.0000
     1.0000   1.0000   1.0000   1.0000   1.0000   1.0000   1.0000   1.0000
     1.0000   1.0000   1.0000   1.0000   1.0000   1.0000   1.0000   1.0000
     1.0000   1.0000   1.0000   1.0000   1.0000   1.0000   1.0000   1.0000
     1.0000   1.0000   1.0000   1.0000   1.0000   1.0000   1.0000   1.0000
     1.0000   1.0000   1.0000   1.0000   1.0000   1.0000   1.0000   1.0000
     1.0000   1.0000   1.0000   1.0000   1.0000   1.0000   1.0000   1.0000
     1.0000   1.0000   1.0000   1.0000   1.0000   1.0000   1.0000   1.0000
     1.0000   1.0000   1.0000   1.0000   1.0000   1.0000   1.0000   1.0000
     1.0000   1.0000   1.0000   1.0000   1.0000   1.0000   1.0000   1.0000
     1.0000   1.0000   1.0000   1.0000   1.0000   1.0000   1.0000   1.0000
     1.0000   1.0000   1.0000   1.0000   1.0000   1.0000   1.0000   1.0000
     1.0000   1.0000   1.0000   1.0000   1.0000   1.0000   1.0000   1.0000
     1.0000   1.0000   1.0000   1.0000   1.0000   1.0000   1.0000   1.0000
     1.0000   1.0000   1.0000   1.0000   1.0000   1.0000   1.0000   1.0000
     1.0000   1.0000   1.0000   1.0000   1.0000   1.0000   1.0000   1.0000
     1.0000   1.0000   1.0000   1.0000   1.0000   1.0000   1.0000   1.0000
     1.0000   1.0000   1.0000   1.0000   1.0000   1.0000   1.0000   1.0000
     1.0000   1.0000   1.0000   1.0000   1.0000   1.0000   1.0000   1.0000
     1.0000   1.0000   1.0000   1.0000   1.0000   1.0000   1.0000   1.0000
     1.0000   1.0000   1.0000   1.0000   1.0000   1.0000   1.0000   1.0000
     1.0000   1.0000   1.0000   1.0000   1.0000   1.0000   1.0000   1.0000
     1.0000   1.0000   1.0000   1.0000   1.0000   1.0000   1.0000   1.0000
     1.0000   1.0000   1.0000   1.0000   1.0000   1.0000   1.0000   1.0000
     1.0000   1.0000   1.0000   1.0000   1.0000   1.0000   1.0000   1.0000
     1.0000   1.0000   1.0000   1.0000   1.0000   1.0000   1.0000   1.0000
     1.0000   1.0000   1.0000   1.0000   1.0000   1.0000   1.0000   1.0000
     1.0000   1.0000   1.0000   1.0000   1.0000   1.0000   1.0000   1.0000
     1.0000   1.0000   1.0000   1.0000   1.0000   1.0000   1.0000   1.0000
     1.0000   1.0000   1.0000   1.0000   1.0000   1.0000   1.0000   1.0000
     1.0000   1.0000   1.0000   1.0000   1.0000   1.0000   1.0000   1.0000
     1.0000   1.0000   1.0000   1.0000   1.0000   1.0000   1.0000   1.0000
     1.0000   1.0000   1.0000   1.0000   0.0000   0.0000   0.0000   0.0000
     0.0000   0.0000   0.0000   0.0000   0.0000   0.0000   0.0000   0.0000
     0.0000   0.0000   0.0000   0.0000   0.0000   0.0000   0.0000   0.0000
     0.0000   0.0000   0.0000   0.0000   0.0000   0.0000   0.0000   0.0000
     0.0000   0.0000   0.0000   0.0000   0.0000   0.0000   0.0000   0.0000
     0.0000   0.0000   0.0000   0.0000   0.0000   0.0000   0.0000   0.0000
     0.0000   0.0000   0.0000   0.0000   0.0000   0.0000   0.0000   0.0000
     0.0000   0.0000   0.0000   0.0000   0.0000

          k = 0.0000 0.2500 0.2500 (269929 PWs)   bands (ev):

   -99.0391 -59.4021 -59.4021 -59.4021  -7.4175  -7.1583  -7.1039  -6.9304
    -6.9093  -6.8804  -6.7716  -6.7708  -6.7405  -6.7103  -6.6894  -6.6605
    -6.6311  -6.6211  -6.5897  -6.5774  -6.5159  -6.5152  -6.4898  -6.4820
    -6.4684  -6.4587  -6.4046  -6.3553  -6.3516  -6.3275  -6.2932  -6.2920
    -6.2845  -6.2764  -6.2671  -6.2484  -0.6860  -0.6767  -0.6707  -0.6661
    -0.6636  -0.6554  -0.6528  -0.6450  -0.6435  -0.6392  -0.6342  -0.6244
    -0.5865  -0.5848  -0.5829  -0.5790  -0.5756  -0.5733  -0.5690  -0.5683
    -0.5645  -0.5615  -0.5608  -0.5590  -0.5533  -0.5517  -0.5501  -0.5453
    -0.5417  -0.5411  -0.5384  -0.5373  -0.5359  -0.5329  -0.5281  -0.5277
    -0.5252  -0.5241  -0.5238  -0.5220  -0.5187  -0.5182  -0.5148  -0.5142
    -0.5121  -0.5084  -0.5029  -0.5004  -0.4975  -0.4954  -0.4947  -0.4860
    -0.4854  -0.4830  -0.4780  -0.4736  -0.4710  -0.4608  -0.4555  -0.4492
    -0.4479  -0.4384  -0.4355  -0.4290  -0.4214  -0.4200  -0.4159  -0.4051
    -0.4001  -0.3969  -0.3741  -0.3684  -0.3634  -0.3512  -0.3499  -0.3442
    -0.3337  -0.3248  -0.3074  -0.2855  -0.2827  -0.2741  -0.2706  -0.2642
    -0.2610  -0.2550  -0.2503  -0.2502  -0.2443  -0.2426  -0.2387  -0.2261
    -0.2220  -0.2202  -0.2190  -0.2157  -0.2124  -0.2049  -0.2047  -0.2037
    -0.2010  -0.1990  -0.1933  -0.1899  -0.1873  -0.1815  -0.1722  -0.1721
    -0.1679  -0.1677  -0.1646  -0.1620  -0.1615  -0.1556  -0.1551  -0.1540
    -0.1534  -0.1435  -0.1429  -0.1419  -0.1404  -0.1352  -0.1341  -0.1319
    -0.1315  -0.1274  -0.1269  -0.1245  -0.1207  -0.1193  -0.1138  -0.1118
    -0.1084  -0.1044  -0.1033  -0.1019  -0.0921  -0.0905  -0.0874  -0.0859
    -0.0776  -0.0666  -0.0485  -0.0332  -0.0301   0.0001   0.0244   0.0396
     0.0647   0.1089   0.1116   0.1353   0.1375   0.1649   0.1732   0.5149
     0.5290   0.8706   0.8935   1.0026   1.0170   1.0342   1.0497   1.0629
     1.0950   1.0972   1.1032   1.1369   1.1570   1.1778   1.1792   1.2416
     1.2734   1.4153   1.4967   1.6333   1.7460   1.7529   1.8026   1.8586
     2.0627   2.0717   2.2501   2.2573   2.4165   2.5235   2.5746   2.6156
     2.6690   2.6783   2.7093   2.7978   2.8403   2.8542   2.8997   3.0157
     3.0847   3.1122   3.1585   3.1763   3.1805   3.2448   3.2625   3.3512
     3.3682   3.3686   3.4166   3.4455   3.4519   3.4843   3.4871   3.5089
     3.5436   3.5623   3.6121   3.6726   3.8020   3.8172   3.8224   3.8472
     3.8633   3.8767   3.9864   4.0585   4.0872   4.2092   4.2361   4.2624
     4.3267   4.3311   4.3635   4.3713   4.3812   4.3905   4.4226   4.4327
     4.4829   4.4874   4.5800   4.6065   4.6416   4.6489   4.6636   4.6762
     4.7225   4.7377   4.7800   4.8082   4.8283   4.8565   4.8745   4.9546
     5.0429   5.1223   5.3793   5.5468   8.2381   9.0570   9.0877   9.3390
     9.3410   9.3492   9.3782   9.4017   9.5375   9.5738   9.8728   9.8770
     9.9067   9.9208   9.9287   9.9337   9.9552   9.9713   9.9765   9.9818
    10.0551  10.1351  10.1454  10.1729  10.2341  10.3006  10.3085  10.3135
    10.3645  10.3887  10.4840  10.6707  10.7057  10.7347  10.7937  10.8045
    10.8284  10.8831  10.9059  10.9819  11.0271  11.0554  11.2373  11.4310
    11.4381  11.4564  11.5161  11.5278  11.6798  11.7978  11.8093  11.8343
    11.8629  11.8761  11.9402  11.9578  11.9649

     occupation numbers 
     1.0000   1.0000   1.0000   1.0000   1.0000   1.0000   1.0000   1.0000
     1.0000   1.0000   1.0000   1.0000   1.0000   1.0000   1.0000   1.0000
     1.0000   1.0000   1.0000   1.0000   1.0000   1.0000   1.0000   1.0000
     1.0000   1.0000   1.0000   1.0000   1.0000   1.0000   1.0000   1.0000
     1.0000   1.0000   1.0000   1.0000   1.0000   1.0000   1.0000   1.0000
     1.0000   1.0000   1.0000   1.0000   1.0000   1.0000   1.0000   1.0000
     1.0000   1.0000   1.0000   1.0000   1.0000   1.0000   1.0000   1.0000
     1.0000   1.0000   1.0000   1.0000   1.0000   1.0000   1.0000   1.0000
     1.0000   1.0000   1.0000   1.0000   1.0000   1.0000   1.0000   1.0000
     1.0000   1.0000   1.0000   1.0000   1.0000   1.0000   1.0000   1.0000
     1.0000   1.0000   1.0000   1.0000   1.0000   1.0000   1.0000   1.0000
     1.0000   1.0000   1.0000   1.0000   1.0000   1.0000   1.0000   1.0000
     1.0000   1.0000   1.0000   1.0000   1.0000   1.0000   1.0000   1.0000
     1.0000   1.0000   1.0000   1.0000   1.0000   1.0000   1.0000   1.0000
     1.0000   1.0000   1.0000   1.0000   1.0000   1.0000   1.0000   1.0000
     1.0000   1.0000   1.0000   1.0000   1.0000   1.0000   1.0000   1.0000
     1.0000   1.0000   1.0000   1.0000   1.0000   1.0000   1.0000   1.0000
     1.0000   1.0000   1.0000   1.0000   1.0000   1.0000   1.0000   1.0000
     1.0000   1.0000   1.0000   1.0000   1.0000   1.0000   1.0000   1.0000
     1.0000   1.0000   1.0000   1.0000   1.0000   1.0000   1.0000   1.0000
     1.0000   1.0000   1.0000   1.0000   1.0000   1.0000   1.0000   1.0000
     1.0000   1.0000   1.0000   1.0000   1.0000   1.0000   1.0000   1.0000
     1.0000   1.0000   1.0000   1.0000   1.0000   1.0000   1.0000   1.0000
     1.0000   1.0000   1.0000   1.0000   1.0000   1.0000   1.0000   1.0000
     1.0000   1.0000   1.0000   1.0000   1.0000   1.0000   1.0000   1.0000
     1.0000   1.0000   1.0000   1.0000   1.0000   1.0000   1.0000   1.0000
     1.0000   1.0000   1.0000   1.0000   1.0000   1.0000   1.0000   1.0000
     1.0000   1.0000   1.0000   1.0000   1.0000   1.0000   1.0000   1.0000
     1.0000   1.0000   1.0000   1.0000   1.0000   1.0000   1.0000   1.0000
     1.0000   1.0000   1.0000   1.0000   1.0000   1.0000   1.0000   1.0000
     1.0000   1.0000   1.0000   1.0000   1.0000   1.0000   1.0000   1.0000
     1.0000   1.0000   1.0000   1.0000   1.0000   1.0000   1.0000   1.0000
     1.0000   1.0000   1.0000   1.0000   1.0000   1.0000   1.0000   1.0000
     1.0000   1.0000   1.0000   1.0000   1.0000   1.0000   1.0000   1.0000
     1.0000   1.0000   1.0000   1.0000   1.0000   1.0000   1.0000   1.0000
     1.0000   1.0000   1.0000   1.0000   1.0000   1.0000   1.0000   1.0000
     1.0000   1.0000   1.0000   1.0000   0.0000   0.0000   0.0000   0.0000
     0.0000   0.0000   0.0000   0.0000   0.0000   0.0000   0.0000   0.0000
     0.0000   0.0000   0.0000   0.0000   0.0000   0.0000   0.0000   0.0000
     0.0000   0.0000   0.0000   0.0000   0.0000   0.0000   0.0000   0.0000
     0.0000   0.0000   0.0000   0.0000   0.0000   0.0000   0.0000   0.0000
     0.0000   0.0000   0.0000   0.0000   0.0000   0.0000   0.0000   0.0000
     0.0000   0.0000   0.0000   0.0000   0.0000   0.0000   0.0000   0.0000
     0.0000   0.0000   0.0000   0.0000   0.0000

          k = 0.0000 0.2500-0.5000 (269962 PWs)   bands (ev):

   -99.0391 -59.4021 -59.4021 -59.4021  -7.3530  -7.2546  -7.0745  -7.0022
    -6.8806  -6.8710  -6.8049  -6.7991  -6.7226  -6.7186  -6.6831  -6.6674
    -6.6424  -6.6073  -6.5812  -6.5192  -6.4956  -6.4850  -6.4676  -6.4550
    -6.4177  -6.4158  -6.3906  -6.3789  -6.3639  -6.3579  -6.3365  -6.3207
    -6.3046  -6.2975  -6.2724  -6.2516  -0.6706  -0.6661  -0.6583  -0.6499
    -0.6462  -0.6354  -0.6336  -0.6245  -0.6198  -0.6183  -0.6155  -0.6143
    -0.6112  -0.6085  -0.5994  -0.5970  -0.5936  -0.5908  -0.5878  -0.5854
    -0.5761  -0.5757  -0.5717  -0.5633  -0.5623  -0.5621  -0.5599  -0.5530
    -0.5524  -0.5468  -0.5447  -0.5399  -0.5356  -0.5347  -0.5329  -0.5325
    -0.5294  -0.5260  -0.5259  -0.5217  -0.5183  -0.5172  -0.5152  -0.5145
    -0.5128  -0.5126  -0.5025  -0.4965  -0.4938  -0.4920  -0.4904  -0.4853
    -0.4835  -0.4813  -0.4758  -0.4740  -0.4667  -0.4606  -0.4516  -0.4408
    -0.4404  -0.4329  -0.4324  -0.4324  -0.4226  -0.4109  -0.4048  -0.3967
    -0.3924  -0.3905  -0.3786  -0.3742  -0.3740  -0.3723  -0.3657  -0.3631
    -0.3594  -0.3356  -0.3221  -0.3121  -0.3040  -0.2964  -0.2817  -0.2796
    -0.2616  -0.2507  -0.2392  -0.2360  -0.2353  -0.2303  -0.2302  -0.2256
    -0.2245  -0.2213  -0.2175  -0.2127  -0.2091  -0.2076  -0.2061  -0.2027
    -0.1960  -0.1944  -0.1939  -0.1909  -0.1854  -0.1742  -0.1729  -0.1698
    -0.1678  -0.1620  -0.1618  -0.1579  -0.1539  -0.1524  -0.1503  -0.1467
    -0.1449  -0.1437  -0.1404  -0.1368  -0.1344  -0.1311  -0.1306  -0.1292
    -0.1274  -0.1265  -0.1256  -0.1232  -0.1220  -0.1151  -0.1149  -0.1100
    -0.1095  -0.1071  -0.1056  -0.1029  -0.1007  -0.0943  -0.0887  -0.0859
    -0.0738  -0.0195  -0.0136  -0.0044   0.0086   0.0144   0.0282   0.0534
     0.0668   0.0786   0.0840   0.0954   0.1292   0.1299   0.1499   0.7479
     0.7600   0.7773   0.7824   0.9537   0.9941   1.0024   1.0130   1.0412
     1.0626   1.0700   1.0928   1.1438   1.1894   1.2113   1.2589   1.2793
     1.3505   1.3617   1.3726   1.5773   1.6521   1.6819   1.7239   1.9157
     2.0602   2.0780   2.2179   2.3156   2.3457   2.3605   2.4226   2.5465
     2.5521   2.6904   2.7928   2.8710   2.8767   2.8935   2.9143   2.9815
     3.0591   3.0813   3.1029   3.1240   3.1512   3.2315   3.3594   3.4327
     3.5391   3.5442   3.5523   3.5732   3.6150   3.6160   3.6605   3.6835
     3.7003   3.7190   3.7308   3.7467   3.7866   3.8391   3.9097   3.9385
     3.9438   3.9555   3.9809   4.0365   4.1163   4.1247   4.1531   4.1696
     4.1852   4.2085   4.2110   4.2627   4.2803   4.2915   4.3130   4.3505
     4.3611   4.3960   4.4643   4.4836   4.5256   4.5288   4.6304   4.6655
     4.6693   4.7267   4.7639   4.7691   4.7753   4.8182   5.0472   5.1383
     5.1485   5.1644   5.3470   5.3751   8.8356   8.8701   9.4133   9.4417
     9.4481   9.4853   9.5665   9.5745   9.6611   9.6864   9.7070   9.7199
     9.8539   9.8839   9.8916   9.8922   9.9011   9.9122   9.9218   9.9622
     9.9797   9.9940  10.0659  10.0821  10.1198  10.1589  10.3954  10.4493
    10.4757  10.5345  10.5541  10.5804  10.6431  10.6686  10.6712  10.7125
    10.8029  10.8703  10.9409  11.0716  11.0953  11.2017  11.3238  11.3329
    11.3703  11.3800  11.3838  11.4428  11.4439  11.4592  11.5844  11.6031
    11.6037  11.6784  11.7854  11.8056  11.8111

     occupation numbers 
     1.0000   1.0000   1.0000   1.0000   1.0000   1.0000   1.0000   1.0000
     1.0000   1.0000   1.0000   1.0000   1.0000   1.0000   1.0000   1.0000
     1.0000   1.0000   1.0000   1.0000   1.0000   1.0000   1.0000   1.0000
     1.0000   1.0000   1.0000   1.0000   1.0000   1.0000   1.0000   1.0000
     1.0000   1.0000   1.0000   1.0000   1.0000   1.0000   1.0000   1.0000
     1.0000   1.0000   1.0000   1.0000   1.0000   1.0000   1.0000   1.0000
     1.0000   1.0000   1.0000   1.0000   1.0000   1.0000   1.0000   1.0000
     1.0000   1.0000   1.0000   1.0000   1.0000   1.0000   1.0000   1.0000
     1.0000   1.0000   1.0000   1.0000   1.0000   1.0000   1.0000   1.0000
     1.0000   1.0000   1.0000   1.0000   1.0000   1.0000   1.0000   1.0000
     1.0000   1.0000   1.0000   1.0000   1.0000   1.0000   1.0000   1.0000
     1.0000   1.0000   1.0000   1.0000   1.0000   1.0000   1.0000   1.0000
     1.0000   1.0000   1.0000   1.0000   1.0000   1.0000   1.0000   1.0000
     1.0000   1.0000   1.0000   1.0000   1.0000   1.0000   1.0000   1.0000
     1.0000   1.0000   1.0000   1.0000   1.0000   1.0000   1.0000   1.0000
     1.0000   1.0000   1.0000   1.0000   1.0000   1.0000   1.0000   1.0000
     1.0000   1.0000   1.0000   1.0000   1.0000   1.0000   1.0000   1.0000
     1.0000   1.0000   1.0000   1.0000   1.0000   1.0000   1.0000   1.0000
     1.0000   1.0000   1.0000   1.0000   1.0000   1.0000   1.0000   1.0000
     1.0000   1.0000   1.0000   1.0000   1.0000   1.0000   1.0000   1.0000
     1.0000   1.0000   1.0000   1.0000   1.0000   1.0000   1.0000   1.0000
     1.0000   1.0000   1.0000   1.0000   1.0000   1.0000   1.0000   1.0000
     1.0000   1.0000   1.0000   1.0000   1.0000   1.0000   1.0000   1.0000
     1.0000   1.0000   1.0000   1.0000   1.0000   1.0000   1.0000   1.0000
     1.0000   1.0000   1.0000   1.0000   1.0000   1.0000   1.0000   1.0000
     1.0000   1.0000   1.0000   1.0000   1.0000   1.0000   1.0000   1.0000
     1.0000   1.0000   1.0000   1.0000   1.0000   1.0000   1.0000   1.0000
     1.0000   1.0000   1.0000   1.0000   1.0000   1.0000   1.0000   1.0000
     1.0000   1.0000   1.0000   1.0000   1.0000   1.0000   1.0000   1.0000
     1.0000   1.0000   1.0000   1.0000   1.0000   1.0000   1.0000   1.0000
     1.0000   1.0000   1.0000   1.0000   1.0000   1.0000   1.0000   1.0000
     1.0000   1.0000   1.0000   1.0000   1.0000   1.0000   1.0000   1.0000
     1.0000   1.0000   1.0000   1.0000   1.0000   1.0000   1.0000   1.0000
     1.0000   1.0000   1.0000   1.0000   1.0000   1.0000   1.0000   1.0000
     1.0000   1.0000   1.0000   1.0000   1.0000   1.0000   1.0000   1.0000
     1.0000   1.0000   1.0000   1.0000   1.0000   1.0000   1.0000   1.0000
     1.0000   1.0000   1.0000   1.0000   0.0000   0.0000   0.0000   0.0000
     0.0000   0.0000   0.0000   0.0000   0.0000   0.0000   0.0000   0.0000
     0.0000   0.0000   0.0000   0.0000   0.0000   0.0000   0.0000   0.0000
     0.0000   0.0000   0.0000   0.0000   0.0000   0.0000   0.0000   0.0000
     0.0000   0.0000   0.0000   0.0000   0.0000   0.0000   0.0000   0.0000
     0.0000   0.0000   0.0000   0.0000   0.0000   0.0000   0.0000   0.0000
     0.0000   0.0000   0.0000   0.0000   0.0000   0.0000   0.0000   0.0000
     0.0000   0.0000   0.0000   0.0000   0.0000

          k = 0.0000-0.5000-0.5000 (269920 PWs)   bands (ev):

   -99.0391 -59.4021 -59.4021 -59.4021  -7.3051  -7.1703  -7.1703  -7.1384
    -6.8653  -6.8424  -6.7901  -6.7901  -6.7339  -6.7339  -6.7195  -6.7189
    -6.5864  -6.5864  -6.4916  -6.4771  -6.4276  -6.4206  -6.4196  -6.4196
    -6.4126  -6.4126  -6.4075  -6.4058  -6.4056  -6.4051  -6.3886  -6.3886
    -6.3288  -6.2825  -6.2825  -6.2659  -0.6558  -0.6454  -0.6449  -0.6449
    -0.6227  -0.6176  -0.6161  -0.6161  -0.6155  -0.6080  -0.6080  -0.6078
    -0.6035  -0.5994  -0.5994  -0.5947  -0.5947  -0.5916  -0.5893  -0.5891
    -0.5891  -0.5868  -0.5867  -0.5829  -0.5829  -0.5738  -0.5651  -0.5590
    -0.5590  -0.5569  -0.5534  -0.5513  -0.5446  -0.5414  -0.5414  -0.5361
    -0.5336  -0.5336  -0.5273  -0.5208  -0.5176  -0.5171  -0.5171  -0.5159
    -0.5136  -0.5045  -0.5045  -0.5006  -0.4936  -0.4775  -0.4775  -0.4758
    -0.4730  -0.4680  -0.4662  -0.4608  -0.4608  -0.4560  -0.4547  -0.4506
    -0.4506  -0.4484  -0.4306  -0.4306  -0.4280  -0.4229  -0.4229  -0.4096
    -0.4096  -0.4082  -0.4037  -0.3984  -0.3814  -0.3770  -0.3770  -0.3555
    -0.3506  -0.3455  -0.3335  -0.3335  -0.3325  -0.3128  -0.2797  -0.2797
    -0.2650  -0.2560  -0.2521  -0.2521  -0.2323  -0.2295  -0.2295  -0.2236
    -0.2199  -0.2199  -0.2153  -0.2059  -0.2041  -0.2041  -0.2010  -0.1993
    -0.1943  -0.1915  -0.1904  -0.1904  -0.1862  -0.1729  -0.1608  -0.1608
    -0.1579  -0.1579  -0.1551  -0.1541  -0.1508  -0.1469  -0.1469  -0.1407
    -0.1386  -0.1386  -0.1369  -0.1369  -0.1325  -0.1308  -0.1308  -0.1304
    -0.1298  -0.1271  -0.1206  -0.1206  -0.1157  -0.1081  -0.1066  -0.1066
    -0.1054  -0.1052  -0.1052  -0.1050  -0.0933  -0.0927  -0.0824  -0.0741
    -0.0672  -0.0572  -0.0572   0.0169   0.0169   0.0225   0.0808   0.0826
     0.0955   0.1004   0.1004   0.1194   0.1518   0.1518   0.1718   0.7774
     0.7774   0.7963   0.7963   0.7990   0.8022   0.8032   0.8052   0.9861
     1.0516   1.0516   1.0635   1.2483   1.2483   1.3088   1.4436   1.5431
     1.5726   1.5726   1.5786   1.5922   1.7139   1.7139   1.7862   1.7862
     1.7924   1.8028   1.8099   2.1496   2.1496   2.2223   2.2978   2.5676
     2.5676   2.5733   2.6487   2.9292   3.2261   3.2261   3.2507   3.2536
     3.2862   3.2862   3.2888   3.2928   3.2991   3.2991   3.2993   3.3557
     3.3557   3.4189   3.4756   3.4828   3.5919   3.6144   3.6499   3.6499
     3.6908   3.6950   3.7175   3.7175   3.7695   3.7695   3.7775   3.7794
     3.8338   3.8864   3.8864   3.8988   4.1302   4.1302   4.1708   4.1711
     4.1711   4.2030   4.2178   4.2204   4.4409   4.4409   4.4674   4.4682
     4.4819   4.4819   4.5157   4.5254   4.5254   4.5419   4.5486   4.5507
     4.5555   4.5997   4.7019   4.7019   4.7283   4.7283   4.7550   4.9391
     5.3668   5.3684   5.4232   5.4232   9.1517   9.1616   9.1616   9.2163
     9.5494   9.5685   9.5685   9.5739   9.5812   9.5813   9.5813   9.6807
     9.7273   9.7273   9.7310   9.7348  10.1248  10.1812  10.2004  10.2069
    10.2069  10.2155  10.2322  10.2322  10.3160  10.3255  10.3255  10.3493
    10.3493  10.3516  10.3593  10.4184  10.4353  10.4573  10.4573  10.4992
    10.5092  10.5092  10.5231  10.9612  11.4041  11.4041  11.4829  11.5182
    11.5268  11.5268  11.5496  11.5575  11.5730  11.5889  11.5889  11.6143
    11.6284  11.6958  11.6958  11.7061  11.8111

     occupation numbers 
     1.0000   1.0000   1.0000   1.0000   1.0000   1.0000   1.0000   1.0000
     1.0000   1.0000   1.0000   1.0000   1.0000   1.0000   1.0000   1.0000
     1.0000   1.0000   1.0000   1.0000   1.0000   1.0000   1.0000   1.0000
     1.0000   1.0000   1.0000   1.0000   1.0000   1.0000   1.0000   1.0000
     1.0000   1.0000   1.0000   1.0000   1.0000   1.0000   1.0000   1.0000
     1.0000   1.0000   1.0000   1.0000   1.0000   1.0000   1.0000   1.0000
     1.0000   1.0000   1.0000   1.0000   1.0000   1.0000   1.0000   1.0000
     1.0000   1.0000   1.0000   1.0000   1.0000   1.0000   1.0000   1.0000
     1.0000   1.0000   1.0000   1.0000   1.0000   1.0000   1.0000   1.0000
     1.0000   1.0000   1.0000   1.0000   1.0000   1.0000   1.0000   1.0000
     1.0000   1.0000   1.0000   1.0000   1.0000   1.0000   1.0000   1.0000
     1.0000   1.0000   1.0000   1.0000   1.0000   1.0000   1.0000   1.0000
     1.0000   1.0000   1.0000   1.0000   1.0000   1.0000   1.0000   1.0000
     1.0000   1.0000   1.0000   1.0000   1.0000   1.0000   1.0000   1.0000
     1.0000   1.0000   1.0000   1.0000   1.0000   1.0000   1.0000   1.0000
     1.0000   1.0000   1.0000   1.0000   1.0000   1.0000   1.0000   1.0000
     1.0000   1.0000   1.0000   1.0000   1.0000   1.0000   1.0000   1.0000
     1.0000   1.0000   1.0000   1.0000   1.0000   1.0000   1.0000   1.0000
     1.0000   1.0000   1.0000   1.0000   1.0000   1.0000   1.0000   1.0000
     1.0000   1.0000   1.0000   1.0000   1.0000   1.0000   1.0000   1.0000
     1.0000   1.0000   1.0000   1.0000   1.0000   1.0000   1.0000   1.0000
     1.0000   1.0000   1.0000   1.0000   1.0000   1.0000   1.0000   1.0000
     1.0000   1.0000   1.0000   1.0000   1.0000   1.0000   1.0000   1.0000
     1.0000   1.0000   1.0000   1.0000   1.0000   1.0000   1.0000   1.0000
     1.0000   1.0000   1.0000   1.0000   1.0000   1.0000   1.0000   1.0000
     1.0000   1.0000   1.0000   1.0000   1.0000   1.0000   1.0000   1.0000
     1.0000   1.0000   1.0000   1.0000   1.0000   1.0000   1.0000   1.0000
     1.0000   1.0000   1.0000   1.0000   1.0000   1.0000   1.0000   1.0000
     1.0000   1.0000   1.0000   1.0000   1.0000   1.0000   1.0000   1.0000
     1.0000   1.0000   1.0000   1.0000   1.0000   1.0000   1.0000   1.0000
     1.0000   1.0000   1.0000   1.0000   1.0000   1.0000   1.0000   1.0000
     1.0000   1.0000   1.0000   1.0000   1.0000   1.0000   1.0000   1.0000
     1.0000   1.0000   1.0000   1.0000   1.0000   1.0000   1.0000   1.0000
     1.0000   1.0000   1.0000   1.0000   1.0000   1.0000   1.0000   1.0000
     1.0000   1.0000   1.0000   1.0000   1.0000   1.0000   1.0000   1.0000
     1.0000   1.0000   1.0000   1.0000   1.0000   1.0000   1.0000   1.0000
     1.0000   1.0000   1.0000   1.0000   0.0000   0.0000   0.0000   0.0000
     0.0000   0.0000   0.0000   0.0000   0.0000   0.0000   0.0000   0.0000
     0.0000   0.0000   0.0000   0.0000   0.0000   0.0000   0.0000   0.0000
     0.0000   0.0000   0.0000   0.0000   0.0000   0.0000   0.0000   0.0000
     0.0000   0.0000   0.0000   0.0000   0.0000   0.0000   0.0000   0.0000
     0.0000   0.0000   0.0000   0.0000   0.0000   0.0000   0.0000   0.0000
     0.0000   0.0000   0.0000   0.0000   0.0000   0.0000   0.0000   0.0000
     0.0000   0.0000   0.0000   0.0000   0.0000

          k = 0.2500 0.2500 0.2500 (269935 PWs)   bands (ev):

   -99.0391 -59.4021 -59.4021 -59.4021  -7.3856  -7.1491  -7.0766  -7.0766
    -6.9069  -6.8672  -6.8672  -6.7772  -6.7082  -6.6961  -6.6961  -6.6040
    -6.6040  -6.5850  -6.5313  -6.5296  -6.5296  -6.5077  -6.5077  -6.5065
    -6.4534  -6.4070  -6.4070  -6.3518  -6.3518  -6.3498  -6.2986  -6.2983
    -6.2983  -6.2884  -6.2884  -6.2881  -0.6733  -0.6634  -0.6634  -0.6581
    -0.6485  -0.6485  -0.6467  -0.6325  -0.6325  -0.6289  -0.6257  -0.6257
    -0.5881  -0.5835  -0.5835  -0.5823  -0.5799  -0.5799  -0.5764  -0.5764
    -0.5740  -0.5676  -0.5676  -0.5617  -0.5599  -0.5599  -0.5523  -0.5516
    -0.5516  -0.5508  -0.5421  -0.5421  -0.5392  -0.5383  -0.5383  -0.5345
    -0.5342  -0.5274  -0.5274  -0.5211  -0.5211  -0.5210  -0.5207  -0.5181
    -0.5181  -0.5085  -0.5085  -0.5083  -0.4980  -0.4980  -0.4978  -0.4842
    -0.4842  -0.4812  -0.4812  -0.4617  -0.4611  -0.4513  -0.4513  -0.4443
    -0.4352  -0.4352  -0.4244  -0.4242  -0.4242  -0.4076  -0.4049  -0.4049
    -0.3875  -0.3829  -0.3829  -0.3622  -0.3538  -0.3528  -0.3528  -0.3468
    -0.3468  -0.3465  -0.3381  -0.3319  -0.3319  -0.2797  -0.2797  -0.2718
    -0.2692  -0.2645  -0.2645  -0.2517  -0.2444  -0.2444  -0.2314  -0.2269
    -0.2269  -0.2189  -0.2189  -0.2123  -0.2102  -0.2059  -0.2059  -0.1997
    -0.1997  -0.1894  -0.1872  -0.1872  -0.1841  -0.1721  -0.1721  -0.1700
    -0.1618  -0.1618  -0.1614  -0.1569  -0.1569  -0.1553  -0.1540  -0.1540
    -0.1425  -0.1378  -0.1378  -0.1369  -0.1312  -0.1312  -0.1306  -0.1292
    -0.1292  -0.1233  -0.1213  -0.1191  -0.1185  -0.1185  -0.1118  -0.1118
    -0.1073  -0.1073  -0.0966  -0.0932  -0.0932  -0.0894  -0.0868  -0.0868
    -0.0590  -0.0478  -0.0478  -0.0052   0.0040   0.0040   0.0270   0.0414
     0.0414   0.1046   0.1046   0.1171   0.1279   0.1279   0.1289   0.6712
     0.6712   0.7073   0.9218   0.9631   0.9631   1.0468   1.0468   1.0483
     1.0857   1.0857   1.0982   1.2027   1.2027   1.2076   1.2753   1.2834
     1.2834   1.4404   1.4634   1.4634   1.4716   1.7147   1.8207   1.8207
     2.1037   2.1037   2.2064   2.3506   2.3506   2.4127   2.4819   2.4819
     2.7821   2.7821   2.7878   2.8062   2.8546   2.8546   2.8730   3.0840
     3.0840   3.1832   3.1832   3.1842   3.2496   3.3188   3.3188   3.3922
     3.3922   3.4090   3.4222   3.5044   3.5044   3.5531   3.5736   3.5736
     3.5748   3.5877   3.6051   3.6051   3.7183   3.7183   3.8540   3.8956
     3.8956   4.0596   4.0816   4.0816   4.1310   4.1313   4.1313   4.2110
     4.2110   4.2321   4.2618   4.2953   4.2953   4.3428   4.3535   4.3535
     4.3956   4.3956   4.4114   4.4833   4.5484   4.5484   4.5583   4.7992
     4.8270   4.8270   4.8699   4.8699   4.8929   4.8929   5.0046   5.0521
     5.1093   5.1093   5.4536   5.4536   8.4042   8.9090   9.4103   9.4103
     9.4175   9.4794   9.4794   9.4832   9.5017   9.5017   9.5597   9.6275
     9.6275   9.6951   9.8956   9.8956   9.9166  10.1156  10.1156  10.1290
    10.1808  10.1808  10.2311  10.3284  10.3284  10.3545  10.3600  10.3600
    10.4182  10.4182  10.4195  10.4451  10.4451  10.4528  10.4721  10.4982
    10.4982  10.8502  11.1418  11.1519  11.1519  11.3718  11.4351  11.4351
    11.4884  11.4884  11.5456  11.5456  11.5478  11.5691  11.6241  11.6241
    11.7402  11.8715  11.9404  11.9404  11.9604

     occupation numbers 
     1.0000   1.0000   1.0000   1.0000   1.0000   1.0000   1.0000   1.0000
     1.0000   1.0000   1.0000   1.0000   1.0000   1.0000   1.0000   1.0000
     1.0000   1.0000   1.0000   1.0000   1.0000   1.0000   1.0000   1.0000
     1.0000   1.0000   1.0000   1.0000   1.0000   1.0000   1.0000   1.0000
     1.0000   1.0000   1.0000   1.0000   1.0000   1.0000   1.0000   1.0000
     1.0000   1.0000   1.0000   1.0000   1.0000   1.0000   1.0000   1.0000
     1.0000   1.0000   1.0000   1.0000   1.0000   1.0000   1.0000   1.0000
     1.0000   1.0000   1.0000   1.0000   1.0000   1.0000   1.0000   1.0000
     1.0000   1.0000   1.0000   1.0000   1.0000   1.0000   1.0000   1.0000
     1.0000   1.0000   1.0000   1.0000   1.0000   1.0000   1.0000   1.0000
     1.0000   1.0000   1.0000   1.0000   1.0000   1.0000   1.0000   1.0000
     1.0000   1.0000   1.0000   1.0000   1.0000   1.0000   1.0000   1.0000
     1.0000   1.0000   1.0000   1.0000   1.0000   1.0000   1.0000   1.0000
     1.0000   1.0000   1.0000   1.0000   1.0000   1.0000   1.0000   1.0000
     1.0000   1.0000   1.0000   1.0000   1.0000   1.0000   1.0000   1.0000
     1.0000   1.0000   1.0000   1.0000   1.0000   1.0000   1.0000   1.0000
     1.0000   1.0000   1.0000   1.0000   1.0000   1.0000   1.0000   1.0000
     1.0000   1.0000   1.0000   1.0000   1.0000   1.0000   1.0000   1.0000
     1.0000   1.0000   1.0000   1.0000   1.0000   1.0000   1.0000   1.0000
     1.0000   1.0000   1.0000   1.0000   1.0000   1.0000   1.0000   1.0000
     1.0000   1.0000   1.0000   1.0000   1.0000   1.0000   1.0000   1.0000
     1.0000   1.0000   1.0000   1.0000   1.0000   1.0000   1.0000   1.0000
     1.0000   1.0000   1.0000   1.0000   1.0000   1.0000   1.0000   1.0000
     1.0000   1.0000   1.0000   1.0000   1.0000   1.0000   1.0000   1.0000
     1.0000   1.0000   1.0000   1.0000   1.0000   1.0000   1.0000   1.0000
     1.0000   1.0000   1.0000   1.0000   1.0000   1.0000   1.0000   1.0000
     1.0000   1.0000   1.0000   1.0000   1.0000   1.0000   1.0000   1.0000
     1.0000   1.0000   1.0000   1.0000   1.0000   1.0000   1.0000   1.0000
     1.0000   1.0000   1.0000   1.0000   1.0000   1.0000   1.0000   1.0000
     1.0000   1.0000   1.0000   1.0000   1.0000   1.0000   1.0000   1.0000
     1.0000   1.0000   1.0000   1.0000   1.0000   1.0000   1.0000   1.0000
     1.0000   1.0000   1.0000   1.0000   1.0000   1.0000   1.0000   1.0000
     1.0000   1.0000   1.0000   1.0000   1.0000   1.0000   1.0000   1.0000
     1.0000   1.0000   1.0000   1.0000   1.0000   1.0000   1.0000   1.0000
     1.0000   1.0000   1.0000   1.0000   1.0000   1.0000   1.0000   1.0000
     1.0000   1.0000   1.0000   1.0000   1.0000   1.0000   1.0000   1.0000
     1.0000   1.0000   1.0000   1.0000   0.0000   0.0000   0.0000   0.0000
     0.0000   0.0000   0.0000   0.0000   0.0000   0.0000   0.0000   0.0000
     0.0000   0.0000   0.0000   0.0000   0.0000   0.0000   0.0000   0.0000
     0.0000   0.0000   0.0000   0.0000   0.0000   0.0000   0.0000   0.0000
     0.0000   0.0000   0.0000   0.0000   0.0000   0.0000   0.0000   0.0000
     0.0000   0.0000   0.0000   0.0000   0.0000   0.0000   0.0000   0.0000
     0.0000   0.0000   0.0000   0.0000   0.0000   0.0000   0.0000   0.0000
     0.0000   0.0000   0.0000   0.0000   0.0000

          k = 0.2500 0.2500-0.5000 (269988 PWs)   bands (ev):

   -99.0391 -59.4021 -59.4021 -59.4021  -7.3263  -7.2217  -7.0737  -7.0185
    -6.9807  -6.9643  -6.8446  -6.7978  -6.7244  -6.6898  -6.6566  -6.5873
    -6.5850  -6.5662  -6.5146  -6.5139  -6.5115  -6.4837  -6.4535  -6.4371
    -6.4269  -6.4119  -6.3939  -6.3898  -6.3769  -6.3597  -6.3315  -6.3306
    -6.3210  -6.3190  -6.2906  -6.2902  -0.6602  -0.6576  -0.6414  -0.6362
    -0.6355  -0.6353  -0.6248  -0.6237  -0.6182  -0.6168  -0.6100  -0.6084
    -0.6070  -0.6036  -0.5975  -0.5939  -0.5882  -0.5878  -0.5854  -0.5838
    -0.5775  -0.5775  -0.5754  -0.5745  -0.5711  -0.5699  -0.5642  -0.5632
    -0.5582  -0.5574  -0.5523  -0.5497  -0.5477  -0.5466  -0.5415  -0.5393
    -0.5366  -0.5351  -0.5278  -0.5262  -0.5245  -0.5236  -0.5196  -0.5179
    -0.5173  -0.5142  -0.5118  -0.4958  -0.4921  -0.4866  -0.4792  -0.4791
    -0.4764  -0.4750  -0.4704  -0.4633  -0.4578  -0.4499  -0.4499  -0.4399
    -0.4330  -0.4293  -0.4275  -0.4237  -0.4201  -0.4149  -0.4121  -0.4031
    -0.4024  -0.3960  -0.3934  -0.3823  -0.3784  -0.3697  -0.3651  -0.3448
    -0.3418  -0.3212  -0.3101  -0.3046  -0.3032  -0.2976  -0.2946  -0.2904
    -0.2899  -0.2777  -0.2776  -0.2592  -0.2572  -0.2486  -0.2392  -0.2389
    -0.2273  -0.2225  -0.2170  -0.2159  -0.2089  -0.2088  -0.2032  -0.1987
    -0.1944  -0.1866  -0.1847  -0.1827  -0.1803  -0.1735  -0.1703  -0.1694
    -0.1627  -0.1585  -0.1576  -0.1554  -0.1547  -0.1522  -0.1470  -0.1436
    -0.1357  -0.1348  -0.1333  -0.1323  -0.1294  -0.1288  -0.1253  -0.1235
    -0.1209  -0.1194  -0.1175  -0.1168  -0.1144  -0.1117  -0.1090  -0.1070
    -0.1065  -0.1041  -0.0962  -0.0953  -0.0948  -0.0894  -0.0890  -0.0691
    -0.0661  -0.0557  -0.0353  -0.0066   0.0122   0.0147   0.0341   0.0570
     0.0738   0.0797   0.0806   0.0917   0.1136   0.1297   0.1308   0.7109
     0.7141   0.9027   0.9320   0.9663   0.9698   0.9967   1.0271   1.0417
     1.0528   1.0896   1.1257   1.1374   1.1695   1.1957   1.2068   1.2123
     1.2300   1.3954   1.4973   1.5940   1.6349   1.7308   1.7805   1.7867
     1.8121   1.9455   2.0590   2.1912   2.4275   2.5100   2.7244   2.7361
     2.7582   2.7678   2.8094   2.8183   2.8580   2.9180   2.9309   2.9515
     2.9753   3.0300   3.0858   3.1124   3.1910   3.2556   3.4138   3.4738
     3.5049   3.5633   3.6085   3.6239   3.6255   3.6305   3.6807   3.6950
     3.7127   3.7412   3.7737   3.7941   3.8351   3.8375   3.8562   3.8702
     3.8744   3.8878   3.9031   3.9159   3.9199   3.9648   4.0081   4.0166
     4.0170   4.0694   4.1879   4.2108   4.2134   4.2770   4.3595   4.3757
     4.4027   4.4202   4.4303   4.4399   4.5697   4.5722   4.5982   4.6119
     4.6879   4.7214   4.9779   4.9970   5.0612   5.0855   5.0990   5.1354
     5.1578   5.2487   5.3097   5.3165   8.8602   8.8938   9.1432   9.1629
     9.4393   9.4677   9.4732   9.4937   9.6169   9.6364   9.7481   9.7685
     9.7891   9.7907   9.8524   9.8601   9.8704   9.8815   9.9446   9.9707
    10.0721  10.0895  10.0939  10.1138  10.1361  10.1376  10.1478  10.2206
    10.3404  10.3530  10.5084  10.5209  10.5257  10.6063  10.8152  10.8335
    10.8507  10.9534  11.0746  11.0822  11.0985  11.1826  11.3681  11.4195
    11.4527  11.5416  11.5884  11.6216  11.6902  11.7079  11.7167  11.7224
    11.7519  11.7520  11.7711  11.7908  11.7921

     occupation numbers 
     1.0000   1.0000   1.0000   1.0000   1.0000   1.0000   1.0000   1.0000
     1.0000   1.0000   1.0000   1.0000   1.0000   1.0000   1.0000   1.0000
     1.0000   1.0000   1.0000   1.0000   1.0000   1.0000   1.0000   1.0000
[...]
     9.4583   9.4834   9.4916   9.5265   9.6383   9.6547   9.7680   9.7848
     9.8135   9.8148   9.8697   9.8759   9.8935   9.9054   9.9587   9.9882
    10.0935  10.1051  10.1103  10.1260  10.1505  10.1649  10.1676  10.2601
    10.3623  10.3680  10.5245  10.5334  10.5373  10.6577  10.8366  10.8590
    10.8704  10.9855  11.0939  11.1025  11.1160  11.2352  11.3933  11.4348
    11.4670  11.5742  11.6162  11.6390  11.7128  11.7274  11.7343  11.7380
    11.7624  11.7699  11.7942  11.8103  11.8148

     occupation numbers 
     1.0000   1.0000   1.0000   1.0000   1.0000   1.0000   1.0000   1.0000
     1.0000   1.0000   1.0000   1.0000   1.0000   1.0000   1.0000   1.0000
     1.0000   1.0000   1.0000   1.0000   1.0000   1.0000   1.0000   1.0000
     1.0000   1.0000   1.0000   1.0000   1.0000   1.0000   1.0000   1.0000
     1.0000   1.0000   1.0000   1.0000   1.0000   1.0000   1.0000   1.0000
     1.0000   1.0000   1.0000   1.0000   1.0000   1.0000   1.0000   1.0000
     1.0000   1.0000   1.0000   1.0000   1.0000   1.0000   1.0000   1.0000
     1.0000   1.0000   1.0000   1.0000   1.0000   1.0000   1.0000   1.0000
     1.0000   1.0000   1.0000   1.0000   1.0000   1.0000   1.0000   1.0000
     1.0000   1.0000   1.0000   1.0000   1.0000   1.0000   1.0000   1.0000
     1.0000   1.0000   1.0000   1.0000   1.0000   1.0000   1.0000   1.0000
     1.0000   1.0000   1.0000   1.0000   1.0000   1.0000   1.0000   1.0000
     1.0000   1.0000   1.0000   1.0000   1.0000   1.0000   1.0000   1.0000
     1.0000   1.0000   1.0000   1.0000   1.0000   1.0000   1.0000   1.0000
     1.0000   1.0000   1.0000   1.0000   1.0000   1.0000   1.0000   1.0000
     1.0000   1.0000   1.0000   1.0000   1.0000   1.0000   1.0000   1.0000
     1.0000   1.0000   1.0000   1.0000   1.0000   1.0000   1.0000   1.0000
     1.0000   1.0000   1.0000   1.0000   1.0000   1.0000   1.0000   1.0000
     1.0000   1.0000   1.0000   1.0000   1.0000   1.0000   1.0000   1.0000
     1.0000   1.0000   1.0000   1.0000   1.0000   1.0000   1.0000   1.0000
     1.0000   1.0000   1.0000   1.0000   1.0000   1.0000   1.0000   1.0000
     1.0000   1.0000   1.0000   1.0000   1.0000   1.0000   1.0000   1.0000
     1.0000   1.0000   1.0000   1.0000   1.0000   1.0000   1.0000   1.0000
     1.0000   1.0000   1.0000   1.0000   1.0000   1.0000   1.0000   1.0000
     1.0000   1.0000   1.0000   1.0000   1.0000   1.0000   1.0000   1.0000
     1.0000   1.0000   1.0000   1.0000   1.0000   1.0000   1.0000   1.0000
     1.0000   1.0000   1.0000   1.0000   1.0000   1.0000   1.0000   1.0000
     1.0000   1.0000   1.0000   1.0000   1.0000   1.0000   1.0000   1.0000
     1.0000   1.0000   1.0000   1.0000   1.0000   1.0000   1.0000   1.0000
     1.0000   1.0000   1.0000   1.0000   1.0000   1.0000   1.0000   1.0000
     1.0000   1.0000   1.0000   1.0000   1.0000   1.0000   1.0000   1.0000
     1.0000   1.0000   1.0000   1.0000   1.0000   1.0000   1.0000   1.0000
     1.0000   1.0000   1.0000   1.0000   1.0000   1.0000   1.0000   1.0000
     1.0000   1.0000   1.0000   1.0000   1.0000   1.0000   1.0000   1.0000
     1.0000   1.0000   1.0000   1.0000   1.0000   1.0000   1.0000   1.0000
     1.0000   1.0000   1.0000   1.0000   1.0000   1.0000   1.0000   1.0000
     1.0000   0.0000   0.0000   0.0000   0.0000   0.0000   0.0000   0.0000
     0.0000   0.0000   0.0000   0.0000   0.0000   0.0000   0.0000   0.0000
     0.0000   0.0000   0.0000   0.0000   0.0000   0.0000   0.0000   0.0000
     0.0000   0.0000   0.0000   0.0000   0.0000   0.0000   0.0000   0.0000
     0.0000   0.0000   0.0000   0.0000   0.0000   0.0000   0.0000   0.0000
     0.0000   0.0000   0.0000   0.0000   0.0000   0.0000   0.0000   0.0000
     0.0000   0.0000   0.0000   0.0000   0.0000   0.0000   0.0000   0.0000
     0.0000   0.0000   0.0000   0.0000   0.0000

          k = 0.2500-0.5000-0.5000 (269956 PWs)   bands (ev):

   -97.3202 -57.7248 -57.7248 -57.7248  -7.1531  -7.1075  -7.1075  -7.0902
    -6.9189  -6.8832  -6.8832  -6.8670  -6.5829  -6.5515  -6.5515  -6.5354
    -6.4429  -6.4429  -6.4373  -6.4177  -6.4139  -6.4098  -6.4015  -6.4015
    -6.4006  -6.4006  -6.3907  -6.3900  -6.3887  -6.3874  -6.3769  -6.3769
    -6.3214  -6.2996  -6.2996  -6.2851  -0.6331  -0.6286  -0.6286  -0.6264
    -0.6111  -0.6064  -0.6041  -0.6041  -0.6022  -0.5971  -0.5971  -0.5963
    -0.5880  -0.5880  -0.5862  -0.5859  -0.5859  -0.5830  -0.5821  -0.5803
    -0.5803  -0.5759  -0.5733  -0.5721  -0.5721  -0.5664  -0.5625  -0.5587
    -0.5542  -0.5542  -0.5516  -0.5516  -0.5516  -0.5509  -0.5447  -0.5420
    -0.5374  -0.5374  -0.5348  -0.5256  -0.5256  -0.5253  -0.5201  -0.5187
    -0.5140  -0.5052  -0.5048  -0.5048  -0.4930  -0.4735  -0.4687  -0.4687
    -0.4532  -0.4466  -0.4463  -0.4463  -0.4412  -0.4386  -0.4342  -0.4326
    -0.4326  -0.4109  -0.4109  -0.4053  -0.4053  -0.4032  -0.4014  -0.3993
    -0.3875  -0.3831  -0.3804  -0.3804  -0.3684  -0.3678  -0.3678  -0.3528
    -0.3393  -0.3387  -0.3312  -0.3310  -0.3310  -0.2966  -0.2862  -0.2862
    -0.2734  -0.2720  -0.2720  -0.2700  -0.2604  -0.2528  -0.2528  -0.2416
    -0.2341  -0.2126  -0.2078  -0.2078  -0.2058  -0.1963  -0.1963  -0.1904
    -0.1874  -0.1761  -0.1761  -0.1745  -0.1727  -0.1720  -0.1628  -0.1628
    -0.1516  -0.1516  -0.1509  -0.1490  -0.1478  -0.1478  -0.1356  -0.1306
    -0.1294  -0.1294  -0.1290  -0.1225  -0.1225  -0.1220  -0.1168  -0.1140
    -0.1140  -0.1134  -0.1090  -0.1075  -0.1075  -0.1045  -0.1045  -0.1012
    -0.0998  -0.0937  -0.0937  -0.0898  -0.0873  -0.0764  -0.0623  -0.0543
    -0.0480  -0.0384  -0.0384   0.0116   0.0116   0.0229   0.0503   0.0534
     0.0612   0.0698   0.0698   0.0801   0.1086   0.1086   0.1293   0.8963
     0.8963   0.9333   0.9388   0.9389   0.9389   0.9412   0.9624   1.0527
     1.0907   1.0907   1.0914   1.3437   1.3437   1.3718   1.4059   1.4490
     1.4581   1.4581   1.4646   1.4707   1.4707   1.4722   1.5353   2.1846
     2.1901   2.1901   2.2689   2.5817   2.7105   2.7106   2.7390   2.8673
     2.8675   2.8675   2.9189   3.1318   3.2487   3.2487   3.2564   3.2718
     3.2786   3.2849   3.2849   3.2901   3.2901   3.2933   3.2947   3.3121
     3.3121   3.3268   3.3518   3.5449   3.6119   3.6194   3.6194   3.7233
     3.8380   3.8504   3.8504   3.8571   3.8637   3.8637   3.8730   3.8730
     3.8748   3.8781   3.9044   3.9926   4.0271   4.0671   4.0671   4.0730
     4.1447   4.1447   4.1593   4.1890   4.1890   4.2193   4.2741   4.4168
     4.5064   4.5334   4.5349   4.5349   4.8486   4.9108   4.9108   4.9256
     4.9506   4.9552   4.9565   4.9565   5.0635   5.1418   5.1418   5.3143
     5.3512   5.8718   5.9379   5.9379   9.0536   9.0682   9.0682   9.1140
     9.1796   9.1811   9.1811   9.2725   9.7898   9.7898   9.7927   9.8132
     9.8847   9.8991   9.8991   9.9196   9.9257   9.9614   9.9709   9.9709
     9.9774   9.9850   9.9850  10.0106  10.1131  10.1399  10.1399  10.1476
    10.1525  10.1525  10.1582  10.4242  10.8940  10.9503  10.9563  10.9563
    10.9648  10.9648  10.9753  11.1609  11.4374  11.4374  11.5265  11.5421
    11.5421  11.5480  11.6181  11.6538  11.6649  11.6764  11.6764  11.6828
    11.7184  11.7383  11.7383  11.8868  11.9081

     occupation numbers 
     1.0000   1.0000   1.0000   1.0000   1.0000   1.0000   1.0000   1.0000
     1.0000   1.0000   1.0000   1.0000   1.0000   1.0000   1.0000   1.0000
     1.0000   1.0000   1.0000   1.0000   1.0000   1.0000   1.0000   1.0000
     1.0000   1.0000   1.0000   1.0000   1.0000   1.0000   1.0000   1.0000
     1.0000   1.0000   1.0000   1.0000   1.0000   1.0000   1.0000   1.0000
     1.0000   1.0000   1.0000   1.0000   1.0000   1.0000   1.0000   1.0000
     1.0000   1.0000   1.0000   1.0000   1.0000   1.0000   1.0000   1.0000
     1.0000   1.0000   1.0000   1.0000   1.0000   1.0000   1.0000   1.0000
     1.0000   1.0000   1.0000   1.0000   1.0000   1.0000   1.0000   1.0000
     1.0000   1.0000   1.0000   1.0000   1.0000   1.0000   1.0000   1.0000
     1.0000   1.0000   1.0000   1.0000   1.0000   1.0000   1.0000   1.0000
     1.0000   1.0000   1.0000   1.0000   1.0000   1.0000   1.0000   1.0000
     1.0000   1.0000   1.0000   1.0000   1.0000   1.0000   1.0000   1.0000
     1.0000   1.0000   1.0000   1.0000   1.0000   1.0000   1.0000   1.0000
     1.0000   1.0000   1.0000   1.0000   1.0000   1.0000   1.0000   1.0000
     1.0000   1.0000   1.0000   1.0000   1.0000   1.0000   1.0000   1.0000
     1.0000   1.0000   1.0000   1.0000   1.0000   1.0000   1.0000   1.0000
     1.0000   1.0000   1.0000   1.0000   1.0000   1.0000   1.0000   1.0000
     1.0000   1.0000   1.0000   1.0000   1.0000   1.0000   1.0000   1.0000
     1.0000   1.0000   1.0000   1.0000   1.0000   1.0000   1.0000   1.0000
     1.0000   1.0000   1.0000   1.0000   1.0000   1.0000   1.0000   1.0000
     1.0000   1.0000   1.0000   1.0000   1.0000   1.0000   1.0000   1.0000
     1.0000   1.0000   1.0000   1.0000   1.0000   1.0000   1.0000   1.0000
     1.0000   1.0000   1.0000   1.0000   1.0000   1.0000   1.0000   1.0000
     1.0000   1.0000   1.0000   1.0000   1.0000   1.0000   1.0000   1.0000
     1.0000   1.0000   1.0000   1.0000   1.0000   1.0000   1.0000   1.0000
     1.0000   1.0000   1.0000   1.0000   1.0000   1.0000   1.0000   1.0000
     1.0000   1.0000   1.0000   1.0000   1.0000   1.0000   1.0000   1.0000
     1.0000   1.0000   1.0000   1.0000   1.0000   1.0000   1.0000   1.0000
     1.0000   1.0000   1.0000   1.0000   1.0000   1.0000   1.0000   1.0000
     1.0000   1.0000   1.0000   1.0000   1.0000   1.0000   1.0000   1.0000
     1.0000   1.0000   1.0000   1.0000   1.0000   1.0000   1.0000   1.0000
     1.0000   1.0000   1.0000   1.0000   1.0000   1.0000   1.0000   1.0000
     1.0000   1.0000   1.0000   1.0000   1.0000   1.0000   1.0000   1.0000
     1.0000   1.0000   1.0000   1.0000   1.0000   1.0000   1.0000   1.0000
     1.0000   1.0000   1.0000   1.0000   1.0000   1.0000   1.0000   1.0000
     1.0000   0.0000   0.0000   0.0000   0.0000   0.0000   0.0000   0.0000
     0.0000   0.0000   0.0000   0.0000   0.0000   0.0000   0.0000   0.0000
     0.0000   0.0000   0.0000   0.0000   0.0000   0.0000   0.0000   0.0000
     0.0000   0.0000   0.0000   0.0000   0.0000   0.0000   0.0000   0.0000
     0.0000   0.0000   0.0000   0.0000   0.0000   0.0000   0.0000   0.0000
     0.0000   0.0000   0.0000   0.0000   0.0000   0.0000   0.0000   0.0000
     0.0000   0.0000   0.0000   0.0000   0.0000   0.0000   0.0000   0.0000
     0.0000   0.0000   0.0000   0.0000   0.0000

          k =-0.5000-0.5000-0.5000 (269968 PWs)   bands (ev):

   -97.3202 -57.7248 -57.7248 -57.7248  -7.0899  -7.0297  -7.0297  -7.0297
    -7.0077  -7.0077  -7.0077  -6.9959  -6.4542  -6.4491  -6.4491  -6.4491
    -6.4113  -6.4113  -6.4095  -6.4095  -6.4095  -6.4057  -6.4057  -6.4057
    -6.3935  -6.3935  -6.3935  -6.3921  -6.3921  -6.3921  -6.3882  -6.3882
    -6.3868  -6.3761  -6.3761  -6.3761  -0.6122  -0.6122  -0.6122  -0.6084
    -0.6040  -0.6040  -0.6040  -0.5992  -0.5992  -0.5955  -0.5955  -0.5955
    -0.5876  -0.5861  -0.5861  -0.5861  -0.5860  -0.5860  -0.5860  -0.5819
    -0.5819  -0.5776  -0.5776  -0.5776  -0.5679  -0.5679  -0.5679  -0.5628
    -0.5628  -0.5628  -0.5590  -0.5531  -0.5531  -0.5531  -0.5512  -0.5512
    -0.5512  -0.5459  -0.5459  -0.5459  -0.5412  -0.5373  -0.5373  -0.5231
    -0.5231  -0.5127  -0.5127  -0.5127  -0.4742  -0.4424  -0.4424  -0.4424
    -0.4394  -0.4394  -0.4394  -0.4281  -0.4281  -0.4211  -0.4211  -0.4211
    -0.4201  -0.4201  -0.4145  -0.4145  -0.4145  -0.4079  -0.4079  -0.4079
    -0.4068  -0.3747  -0.3747  -0.3747  -0.3284  -0.3256  -0.3256  -0.3256
    -0.3185  -0.3185  -0.3185  -0.3147  -0.3147  -0.3147  -0.3088  -0.3088
    -0.3088  -0.3075  -0.3075  -0.2941  -0.2941  -0.2898  -0.2898  -0.2898
    -0.2890  -0.2010  -0.2010  -0.2010  -0.1976  -0.1976  -0.1976  -0.1962
    -0.1962  -0.1718  -0.1718  -0.1718  -0.1698  -0.1698  -0.1698  -0.1640
    -0.1484  -0.1484  -0.1484  -0.1476  -0.1476  -0.1476  -0.1312  -0.1312
    -0.1162  -0.1162  -0.1162  -0.1136  -0.1136  -0.1136  -0.1124  -0.1124
    -0.1124  -0.1095  -0.1095  -0.1095  -0.1032  -0.1032  -0.1032  -0.1006
    -0.0885  -0.0885  -0.0416  -0.0219  -0.0219  -0.0117  -0.0117  -0.0117
    -0.0107  -0.0107  -0.0107  -0.0013  -0.0013  -0.0013   0.0035   0.0035
     0.0035   0.0036   0.0036   0.0173   0.0234   0.0234   0.0234   1.0519
     1.0519   1.0519   1.1562   1.1562   1.1820   1.1820   1.1820   1.1974
     1.1974   1.2032   1.2032   1.2032   1.2042   1.2042   1.2042   1.2179
     1.2179   1.2179   1.2235   1.2235   1.2235   1.2243   1.3706   2.4601
     2.4602   2.4602   2.7934   2.7934   2.7934   2.7951   2.8002   2.8002
     2.8572   3.0365   3.0365   3.0365   3.2283   3.2283   3.2283   3.2517
     3.2517   3.2517   3.2577   3.2647   3.2647   3.2657   3.2657   3.2657
     3.2813   3.2813   3.2813   3.2821   3.2821   3.2821   3.2872   3.6509
     3.6509   3.6509   3.8352   3.8352   3.9988   3.9988   3.9988   4.0114
     4.0340   4.0340   4.0340   4.0416   4.0416   4.0416   4.0437   4.0437
     4.0437   4.0542   4.0542   4.0542   4.0555   4.0555   4.0640   4.4529
     4.4529   4.5340   4.5340   4.5340   5.1129   5.1129   5.1129   5.1241
     5.1241   5.1280   5.1280   5.1280   5.1324   5.1324   5.1324   5.2156
     5.2156   5.9474   5.9474   5.9474   8.9603   8.9603   8.9603   8.9718
     8.9896   8.9896   8.9896   9.1077   9.8547   9.8547   9.8730   9.8730
     9.8730   9.8894   9.9059   9.9059   9.9059   9.9095   9.9095   9.9095
     9.9161   9.9161   9.9161   9.9213   9.9213   9.9278   9.9278   9.9278
     9.9509   9.9509   9.9509  10.3110  11.3619  11.3619  11.3619  11.4626
    11.4626  11.4626  11.4967  11.4967  11.5049  11.5049  11.5049  11.5052
    11.5053  11.5053  11.5053  11.5243  11.5243  11.5243  11.5501  11.5501
    11.6089  11.6089  11.6089  12.2210  12.4007

     occupation numbers 
     1.0000   1.0000   1.0000   1.0000   1.0000   1.0000   1.0000   1.0000
     1.0000   1.0000   1.0000   1.0000   1.0000   1.0000   1.0000   1.0000
     1.0000   1.0000   1.0000   1.0000   1.0000   1.0000   1.0000   1.0000
     1.0000   1.0000   1.0000   1.0000   1.0000   1.0000   1.0000   1.0000
     1.0000   1.0000   1.0000   1.0000   1.0000   1.0000   1.0000   1.0000
     1.0000   1.0000   1.0000   1.0000   1.0000   1.0000   1.0000   1.0000
     1.0000   1.0000   1.0000   1.0000   1.0000   1.0000   1.0000   1.0000
     1.0000   1.0000   1.0000   1.0000   1.0000   1.0000   1.0000   1.0000
     1.0000   1.0000   1.0000   1.0000   1.0000   1.0000   1.0000   1.0000
     1.0000   1.0000   1.0000   1.0000   1.0000   1.0000   1.0000   1.0000
     1.0000   1.0000   1.0000   1.0000   1.0000   1.0000   1.0000   1.0000
     1.0000   1.0000   1.0000   1.0000   1.0000   1.0000   1.0000   1.0000
     1.0000   1.0000   1.0000   1.0000   1.0000   1.0000   1.0000   1.0000
     1.0000   1.0000   1.0000   1.0000   1.0000   1.0000   1.0000   1.0000
     1.0000   1.0000   1.0000   1.0000   1.0000   1.0000   1.0000   1.0000
     1.0000   1.0000   1.0000   1.0000   1.0000   1.0000   1.0000   1.0000
     1.0000   1.0000   1.0000   1.0000   1.0000   1.0000   1.0000   1.0000
     1.0000   1.0000   1.0000   1.0000   1.0000   1.0000   1.0000   1.0000
     1.0000   1.0000   1.0000   1.0000   1.0000   1.0000   1.0000   1.0000
     1.0000   1.0000   1.0000   1.0000   1.0000   1.0000   1.0000   1.0000
     1.0000   1.0000   1.0000   1.0000   1.0000   1.0000   1.0000   1.0000
     1.0000   1.0000   1.0000   1.0000   1.0000   1.0000   1.0000   1.0000
     1.0000   1.0000   1.0000   1.0000   1.0000   1.0000   1.0000   1.0000
     1.0000   1.0000   1.0000   1.0000   1.0000   1.0000   1.0000   1.0000
     1.0000   1.0000   1.0000   1.0000   1.0000   1.0000   1.0000   1.0000
     1.0000   1.0000   1.0000   1.0000   1.0000   1.0000   1.0000   1.0000
     1.0000   1.0000   1.0000   1.0000   1.0000   1.0000   1.0000   1.0000
     1.0000   1.0000   1.0000   1.0000   1.0000   1.0000   1.0000   1.0000
     1.0000   1.0000   1.0000   1.0000   1.0000   1.0000   1.0000   1.0000
     1.0000   1.0000   1.0000   1.0000   1.0000   1.0000   1.0000   1.0000
     1.0000   1.0000   1.0000   1.0000   1.0000   1.0000   1.0000   1.0000
     1.0000   1.0000   1.0000   1.0000   1.0000   1.0000   1.0000   1.0000
     1.0000   1.0000   1.0000   1.0000   1.0000   1.0000   1.0000   1.0000
     1.0000   1.0000   1.0000   1.0000   1.0000   1.0000   1.0000   1.0000
     1.0000   1.0000   1.0000   1.0000   1.0000   1.0000   1.0000   1.0000
     1.0000   1.0000   1.0000   1.0000   1.0000   1.0000   1.0000   1.0000
     1.0000   0.0000   0.0000   0.0000   0.0000   0.0000   0.0000   0.0000
     0.0000   0.0000   0.0000   0.0000   0.0000   0.0000   0.0000   0.0000
     0.0000   0.0000   0.0000   0.0000   0.0000   0.0000   0.0000   0.0000
     0.0000   0.0000   0.0000   0.0000   0.0000   0.0000   0.0000   0.0000
     0.0000   0.0000   0.0000   0.0000   0.0000   0.0000   0.0000   0.0000
     0.0000   0.0000   0.0000   0.0000   0.0000   0.0000   0.0000   0.0000
     0.0000   0.0000   0.0000   0.0000   0.0000   0.0000   0.0000   0.0000
     0.0000   0.0000   0.0000   0.0000   0.0000

     the Fermi energy is     5.6534 ev
     (compare with:     5.6534 eV, computed in scf)

     Writing all to output data dir ./out/Ni_qp1.save/
 
     init_run     :      6.77s CPU      9.46s WALL (       1 calls)
     electrons    :    134.19s CPU    135.56s WALL (       1 calls)

     Called by init_run:
     wfcinit      :      0.00s CPU      2.19s WALL (       1 calls)
     wfcinit:atom :      0.03s CPU      0.03s WALL (       2 calls)
     wfcinit:wfcr :      2.51s CPU      2.62s WALL (       2 calls)
     potinit      :      0.59s CPU      0.83s WALL (       1 calls)
     hinit0       :      0.40s CPU      0.47s WALL (       1 calls)

     Called by electrons:
     c_bands      :    133.91s CPU    135.26s WALL (       1 calls)
     v_of_rho     :      0.33s CPU      0.40s WALL (       1 calls)
     v_h          :      0.01s CPU      0.01s WALL (       1 calls)
     v_xc         :      0.32s CPU      0.39s WALL (       1 calls)
     newd         :      0.06s CPU      0.07s WALL (       1 calls)
     PAW_pot      :      0.08s CPU      0.09s WALL (       1 calls)

     Called by c_bands:
     init_us_2    :      0.06s CPU      0.08s WALL (       2 calls)
     init_us_2:cp :      0.06s CPU      0.08s WALL (       2 calls)
     cegterg      :    128.60s CPU    129.81s WALL (      12 calls)

     Called by sum_band:

     Called by *egterg:
     cdiaghg      :     15.12s CPU     15.22s WALL (     242 calls)
     cegterg:over :     12.34s CPU     12.42s WALL (     240 calls)
     cegterg:upda :     11.22s CPU     11.28s WALL (     240 calls)
     cegterg:last :     19.87s CPU     19.99s WALL (      67 calls)
     cdiaghg:chol :      0.99s CPU      0.99s WALL (     242 calls)
     cdiaghg:inve :      1.42s CPU      1.42s WALL (     242 calls)
     cdiaghg:para :      2.31s CPU      2.33s WALL (     484 calls)
     h_psi        :     56.53s CPU     57.19s WALL (     254 calls)
     s_psi        :     13.16s CPU     13.24s WALL (     254 calls)
     g_psi        :      0.40s CPU      0.41s WALL (     240 calls)

     Called by h_psi:
     h_psi:calbec :     12.69s CPU     12.79s WALL (     254 calls)
     vloc_psi     :     30.04s CPU     30.36s WALL (     254 calls)
     add_vuspsi   :     13.20s CPU     13.30s WALL (     254 calls)

     General routines
     calbec       :     12.69s CPU     12.79s WALL (     254 calls)
     fft          :      0.53s CPU      0.67s WALL (      21 calls)
     fftw         :     27.88s CPU     28.19s WALL (   52054 calls)
 
     Parallel routines

     PAW routines
     PAW_pot      :      0.08s CPU      0.09s WALL (       1 calls)
 
     PWSCF        :   2m28.48s CPU   3m13.62s WALL

 
   This run was terminated on:  11: 5:17   5Jul2024            

=------------------------------------------------------------------------------=
   JOB DONE.
=------------------------------------------------------------------------------=
