
     Program PWSCF v.7.2 starts on 18Jul2024 at  2:53:42 

     This program is part of the open-source Quantum ESPRESSO suite
     for quantum simulation of materials; please cite
         "P. Giannozzi et al., J. Phys.:Condens. Matter 21 395502 (2009);
         "P. Giannozzi et al., J. Phys.:Condens. Matter 29 465901 (2017);
         "P. Giannozzi et al., J. Chem. Phys. 152 154105 (2020);
          URL http://www.quantum-espresso.org", 
     in publications or presentations arising from this work. More details at
     http://www.quantum-espresso.org/quote

     Parallel version (MPI), running on  1456 processors

     MPI processes distributed on    13 nodes
     221965 MiB available memory on the printing compute node when the environment starts
 
     Reading input from 2.Cu_vac_in_ZnS.nscf.q0.unrlxd.U6.in

     Current dimensions of program PWSCF are:
     Max number of different atomic species (ntypx) = 10
     Max number of k-points (npk) =  40000
     Max angular momentum in pseudopotentials (lmaxx) =  4

     Atomic positions and unit cell read from directory:
     ./out/Cu_vac_q0_U6_unrlxd.save/
 
     file S.pbe-n-kjpaw_psl.1.0.0.UPF: wavefunction(s)  3S 3P renormalized
     file Zn.pbe-dnl-kjpaw_psl.1.0.0.UPF: wavefunction(s)  4S 3D renormalized
     file Cu.pbe-spn-kjpaw_psl.1.0.0.UPF: wavefunction(s)  4S 3P 3D renormalized
     [opt_tetra]  Optimized tetrahedron method is used.
 
     K-points division:     npool     =      13
     R & G space division:  proc/nbgrp/npool/nimage =     112
     Subspace diagonalization in iterative solution of the eigenvalue problem:
     one sub-group per band group will be used
     scalapack distributed-memory algorithm (size of sub-group:  3*  3 procs)

 
     Parallelization info
     --------------------
     sticks:   dense  smooth     PW     G-vecs:    dense   smooth      PW
     Min         180     180     46                19282    19282    2562
     Max         181     181     47                19291    19291    2573
     Sum       20217   20217   5249              2160009  2160009  287777
 
     Using Slab Decomposition
 


     bravais-lattice index     =            1
     lattice parameter (alat)  =      20.5686  a.u.
     unit-cell volume          =    8701.8437 (a.u.)^3
     number of atoms/cell      =           63
     number of atomic types    =            3
     number of electrons       =       577.00
     number of Kohn-Sham states=          347
     kinetic-energy cutoff     =     150.0000  Ry
     charge density cutoff     =     600.0000  Ry
     Exchange-correlation= SLA  PW   PBX  PBC
                           (   1   4   3   4   0   0   0)
     Hubbard projectors: ortho-atomic
     Hubbard parameters of DFT+U (Dudarev formulation) in eV:
     U(Zn-3d) =  7.0000
     U(Cu-3d) =  6.0000

     Internal variables: lda_plus_u = T, lda_plus_u_kind = 0

     celldm(1)=  20.568554  celldm(2)=   0.000000  celldm(3)=   0.000000
     celldm(4)=   0.000000  celldm(5)=   0.000000  celldm(6)=   0.000000

     crystal axes: (cart. coord. in units of alat)
               a(1) = (   1.000000   0.000000   0.000000 )  
               a(2) = (   0.000000   1.000000   0.000000 )  
               a(3) = (   0.000000   0.000000   1.000000 )  

     reciprocal axes: (cart. coord. in units 2 pi/alat)
               b(1) = (  1.000000  0.000000  0.000000 )  
               b(2) = (  0.000000  1.000000  0.000000 )  
               b(3) = (  0.000000  0.000000  1.000000 )  


     PseudoPot. # 1 for S  read from file:
     /arf/home/amuhaymin/pseudo/S.pbe-n-kjpaw_psl.1.0.0.UPF
     MD5 check sum: fb45dfebcf3e72a4e1bd4a866ec2e262
     Pseudo is Projector augmented-wave + core cor, Zval =  6.0
     Generated using &quot;atomic&quot; code by A. Dal Corso  v.6.3
     Shape of augmentation charge: PSQ
     Using radial grid of 1151 points,  6 beta functions with: 
                l(1) =   0
                l(2) =   0
                l(3) =   1
                l(4) =   1
                l(5) =   2
                l(6) =   2
     Q(r) pseudized with 0 coefficients 


     PseudoPot. # 2 for Zn read from file:
     /arf/home/amuhaymin/pseudo/Zn.pbe-dnl-kjpaw_psl.1.0.0.UPF
     MD5 check sum: c608214d9520ac179f507641260889e3
     Pseudo is Projector augmented-wave + core cor, Zval = 12.0
     Generated using &quot;atomic&quot; code by A. Dal Corso  v.6.2.2
     Shape of augmentation charge: PSQ
     Using radial grid of 1201 points,  6 beta functions with: 
                l(1) =   0
                l(2) =   0
                l(3) =   1
                l(4) =   1
                l(5) =   2
                l(6) =   2
     Q(r) pseudized with 0 coefficients 


     PseudoPot. # 3 for Cu read from file:
     /arf/home/amuhaymin/pseudo/Cu.pbe-spn-kjpaw_psl.1.0.0.UPF
     MD5 check sum: e7cbaad2f97193e5fe23251a619a52b0
     Pseudo is Projector augmented-wave + core cor, Zval = 19.0
     Generated using &quot;atomic&quot; code by A. Dal Corso  v.6.3
     Shape of augmentation charge: PSQ
     Using radial grid of 1199 points,  6 beta functions with: 
                l(1) =   0
                l(2) =   0
                l(3) =   1
                l(4) =   1
                l(5) =   2
                l(6) =   2
     Q(r) pseudized with 0 coefficients 


     atomic species   valence    mass     pseudopotential
        S              6.00    32.06500     S ( 1.00)
        Zn            12.00    65.38000     Zn( 1.00)
        Cu            19.00    63.54600     Cu( 1.00)

     Starting magnetic structure 
     atomic species   magnetization
        S            0.000
        Zn           0.000
        Cu           0.053

      6 Sym. Ops. (no inversion) found


                                    s                        frac. trans.

      isym =  1     identity                                     

 cryst.   s( 1) = (     1          0          0      )
                  (     0          1          0      )
                  (     0          0          1      )

 cart.    s( 1) = (  1.0000000  0.0000000  0.0000000 )
                  (  0.0000000  1.0000000  0.0000000 )
                  (  0.0000000  0.0000000  1.0000000 )


      isym =  2     120 deg rotation - cart. axis [-1,-1,-1]     

 cryst.   s( 2) = (     0          0          1      )
                  (     1          0          0      )
                  (     0          1          0      )

 cart.    s( 2) = (  0.0000000  1.0000000  0.0000000 )
                  (  0.0000000  0.0000000  1.0000000 )
                  (  1.0000000  0.0000000  0.0000000 )


      isym =  3     120 deg rotation - cart. axis [1,1,1]        

 cryst.   s( 3) = (     0          1          0      )
                  (     0          0          1      )
                  (     1          0          0      )

 cart.    s( 3) = (  0.0000000  0.0000000  1.0000000 )
                  (  1.0000000  0.0000000  0.0000000 )
                  (  0.0000000  1.0000000  0.0000000 )


      isym =  4     inv. 180 deg rotation - cart. axis [1,-1,0]  

 cryst.   s( 4) = (     0          1          0      )
                  (     1          0          0      )
                  (     0          0          1      )

 cart.    s( 4) = (  0.0000000  1.0000000  0.0000000 )
                  (  1.0000000  0.0000000  0.0000000 )
                  (  0.0000000  0.0000000  1.0000000 )


      isym =  5     inv. 180 deg rotation - cart. axis [-1,0,1]  

 cryst.   s( 5) = (     0          0          1      )
                  (     0          1          0      )
                  (     1          0          0      )

 cart.    s( 5) = (  0.0000000  0.0000000  1.0000000 )
                  (  0.0000000  1.0000000  0.0000000 )
                  (  1.0000000  0.0000000  0.0000000 )


      isym =  6     inv. 180 deg rotation - cart. axis [0,1,-1]  

 cryst.   s( 6) = (     1          0          0      )
                  (     0          0          1      )
                  (     0          1          0      )

 cart.    s( 6) = (  1.0000000  0.0000000  0.0000000 )
                  (  0.0000000  0.0000000  1.0000000 )
                  (  0.0000000  1.0000000  0.0000000 )


     point group C_3v (3m)  
     there are  3 classes
     the character table:

       E     2C3   3s_v 
A_1    1.00  1.00  1.00
A_2    1.00  1.00 -1.00
E      2.00 -1.00  0.00

     the symmetry operations in each class and the name of the first element:

     E        1
          identity                                               
     2C3      2    3
          120 deg rotation - cart. axis [-1,-1,-1]               
     3s_v     4    5    6
          inv. 180 deg rotation - cart. axis [1,-1,0]            

   Cartesian axes

     site n.     atom                  positions (alat units)
         1           Zn  tau(   1) = (   0.0000000   0.0000000   0.0000000  )
         2           Zn  tau(   2) = (   0.0000000   0.2500000   0.2500000  )
         3           Zn  tau(   3) = (   0.2500000   0.0000000   0.2500000  )
         4           Zn  tau(   4) = (   0.2500000   0.2500000   0.0000000  )
         5           S   tau(   5) = (   0.1250000   0.3750000   0.3750000  )
         6           S   tau(   6) = (   0.1250000   0.1250000   0.1250000  )
         7           S   tau(   7) = (   0.3750000   0.3750000   0.1250000  )
         8           S   tau(   8) = (   0.3750000   0.1250000   0.3750000  )
         9           Zn  tau(   9) = (   0.0000000   0.0000000   0.5000000  )
        10           Zn  tau(  10) = (   0.0000000   0.2500000   0.7500000  )
        11           Zn  tau(  11) = (   0.2500000   0.0000000   0.7500000  )
        12           Zn  tau(  12) = (   0.2500000   0.2500000   0.5000000  )
        13           S   tau(  13) = (   0.1250000   0.3750000   0.8750000  )
        14           S   tau(  14) = (   0.1250000   0.1250000   0.6250000  )
        15           S   tau(  15) = (   0.3750000   0.3750000   0.6250000  )
        16           S   tau(  16) = (   0.3750000   0.1250000   0.8750000  )
        17           Zn  tau(  17) = (   0.0000000   0.5000000   0.0000000  )
        18           Zn  tau(  18) = (   0.0000000   0.7500000   0.2500000  )
        19           Zn  tau(  19) = (   0.2500000   0.5000000   0.2500000  )
        20           Zn  tau(  20) = (   0.2500000   0.7500000   0.0000000  )
        21           S   tau(  21) = (   0.1250000   0.8750000   0.3750000  )
        22           S   tau(  22) = (   0.1250000   0.6250000   0.1250000  )
        23           S   tau(  23) = (   0.3750000   0.8750000   0.1250000  )
        24           S   tau(  24) = (   0.3750000   0.6250000   0.3750000  )
        25           Zn  tau(  25) = (   0.0000000   0.5000000   0.5000000  )
        26           Zn  tau(  26) = (   0.0000000   0.7500000   0.7500000  )
        27           Zn  tau(  27) = (   0.2500000   0.5000000   0.7500000  )
        28           Zn  tau(  28) = (   0.2500000   0.7500000   0.5000000  )
        29           S   tau(  29) = (   0.1250000   0.8750000   0.8750000  )
        30           S   tau(  30) = (   0.1250000   0.6250000   0.6250000  )
        31           S   tau(  31) = (   0.3750000   0.8750000   0.6250000  )
        32           S   tau(  32) = (   0.3750000   0.6250000   0.8750000  )
        33           Zn  tau(  33) = (   0.5000000   0.0000000   0.0000000  )
        34           Zn  tau(  34) = (   0.5000000   0.2500000   0.2500000  )
        35           Zn  tau(  35) = (   0.7500000   0.0000000   0.2500000  )
        36           Zn  tau(  36) = (   0.7500000   0.2500000   0.0000000  )
        37           S   tau(  37) = (   0.6250000   0.3750000   0.3750000  )
        38           S   tau(  38) = (   0.6250000   0.1250000   0.1250000  )
        39           S   tau(  39) = (   0.8750000   0.3750000   0.1250000  )
        40           S   tau(  40) = (   0.8750000   0.1250000   0.3750000  )
        41           Zn  tau(  41) = (   0.5000000   0.0000000   0.5000000  )
        42           Zn  tau(  42) = (   0.5000000   0.2500000   0.7500000  )
        43           Zn  tau(  43) = (   0.7500000   0.0000000   0.7500000  )
        44           Zn  tau(  44) = (   0.7500000   0.2500000   0.5000000  )
        45           S   tau(  45) = (   0.6250000   0.3750000   0.8750000  )
        46           S   tau(  46) = (   0.6250000   0.1250000   0.6250000  )
        47           S   tau(  47) = (   0.8750000   0.3750000   0.6250000  )
        48           S   tau(  48) = (   0.8750000   0.1250000   0.8750000  )
        49           Zn  tau(  49) = (   0.5000000   0.5000000   0.0000000  )
        50           Zn  tau(  50) = (   0.5000000   0.7500000   0.2500000  )
        51           Zn  tau(  51) = (   0.7500000   0.5000000   0.2500000  )
        52           Zn  tau(  52) = (   0.7500000   0.7500000   0.0000000  )
        53           S   tau(  53) = (   0.6250000   0.8750000   0.3750000  )
        54           S   tau(  54) = (   0.6250000   0.6250000   0.1250000  )
        55           S   tau(  55) = (   0.8750000   0.8750000   0.1250000  )
        56           S   tau(  56) = (   0.8750000   0.6250000   0.3750000  )
        57           Cu  tau(  57) = (   0.5000000   0.5000000   0.5000000  )
        58           Zn  tau(  58) = (   0.5000000   0.7500000   0.7500000  )
        59           Zn  tau(  59) = (   0.7500000   0.5000000   0.7500000  )
        60           Zn  tau(  60) = (   0.7500000   0.7500000   0.5000000  )
        61           S   tau(  61) = (   0.6250000   0.8750000   0.8750000  )
        62           S   tau(  62) = (   0.8750000   0.8750000   0.6250000  )
        63           S   tau(  63) = (   0.8750000   0.6250000   0.8750000  )

   Crystallographic axes

     site n.     atom                  positions (cryst. coord.)
         1           Zn  tau(   1) = (  0.0000000  0.0000000  0.0000000  )
         2           Zn  tau(   2) = (  0.0000000  0.2500000  0.2500000  )
         3           Zn  tau(   3) = (  0.2500000  0.0000000  0.2500000  )
         4           Zn  tau(   4) = (  0.2500000  0.2500000  0.0000000  )
         5           S   tau(   5) = (  0.1250000  0.3750000  0.3750000  )
         6           S   tau(   6) = (  0.1250000  0.1250000  0.1250000  )
         7           S   tau(   7) = (  0.3750000  0.3750000  0.1250000  )
         8           S   tau(   8) = (  0.3750000  0.1250000  0.3750000  )
         9           Zn  tau(   9) = (  0.0000000  0.0000000  0.5000000  )
        10           Zn  tau(  10) = (  0.0000000  0.2500000  0.7500000  )
        11           Zn  tau(  11) = (  0.2500000  0.0000000  0.7500000  )
        12           Zn  tau(  12) = (  0.2500000  0.2500000  0.5000000  )
        13           S   tau(  13) = (  0.1250000  0.3750000  0.8750000  )
        14           S   tau(  14) = (  0.1250000  0.1250000  0.6250000  )
        15           S   tau(  15) = (  0.3750000  0.3750000  0.6250000  )
        16           S   tau(  16) = (  0.3750000  0.1250000  0.8750000  )
        17           Zn  tau(  17) = (  0.0000000  0.5000000  0.0000000  )
        18           Zn  tau(  18) = (  0.0000000  0.7500000  0.2500000  )
        19           Zn  tau(  19) = (  0.2500000  0.5000000  0.2500000  )
        20           Zn  tau(  20) = (  0.2500000  0.7500000  0.0000000  )
        21           S   tau(  21) = (  0.1250000  0.8750000  0.3750000  )
        22           S   tau(  22) = (  0.1250000  0.6250000  0.1250000  )
        23           S   tau(  23) = (  0.3750000  0.8750000  0.1250000  )
        24           S   tau(  24) = (  0.3750000  0.6250000  0.3750000  )
        25           Zn  tau(  25) = (  0.0000000  0.5000000  0.5000000  )
        26           Zn  tau(  26) = (  0.0000000  0.7500000  0.7500000  )
        27           Zn  tau(  27) = (  0.2500000  0.5000000  0.7500000  )
        28           Zn  tau(  28) = (  0.2500000  0.7500000  0.5000000  )
        29           S   tau(  29) = (  0.1250000  0.8750000  0.8750000  )
        30           S   tau(  30) = (  0.1250000  0.6250000  0.6250000  )
        31           S   tau(  31) = (  0.3750000  0.8750000  0.6250000  )
        32           S   tau(  32) = (  0.3750000  0.6250000  0.8750000  )
        33           Zn  tau(  33) = (  0.5000000  0.0000000  0.0000000  )
        34           Zn  tau(  34) = (  0.5000000  0.2500000  0.2500000  )
        35           Zn  tau(  35) = (  0.7500000  0.0000000  0.2500000  )
        36           Zn  tau(  36) = (  0.7500000  0.2500000  0.0000000  )
        37           S   tau(  37) = (  0.6250000  0.3750000  0.3750000  )
        38           S   tau(  38) = (  0.6250000  0.1250000  0.1250000  )
        39           S   tau(  39) = (  0.8750000  0.3750000  0.1250000  )
        40           S   tau(  40) = (  0.8750000  0.1250000  0.3750000  )
        41           Zn  tau(  41) = (  0.5000000  0.0000000  0.5000000  )
        42           Zn  tau(  42) = (  0.5000000  0.2500000  0.7500000  )
        43           Zn  tau(  43) = (  0.7500000  0.0000000  0.7500000  )
        44           Zn  tau(  44) = (  0.7500000  0.2500000  0.5000000  )
        45           S   tau(  45) = (  0.6250000  0.3750000  0.8750000  )
        46           S   tau(  46) = (  0.6250000  0.1250000  0.6250000  )
        47           S   tau(  47) = (  0.8750000  0.3750000  0.6250000  )
        48           S   tau(  48) = (  0.8750000  0.1250000  0.8750000  )
        49           Zn  tau(  49) = (  0.5000000  0.5000000  0.0000000  )
        50           Zn  tau(  50) = (  0.5000000  0.7500000  0.2500000  )
        51           Zn  tau(  51) = (  0.7500000  0.5000000  0.2500000  )
        52           Zn  tau(  52) = (  0.7500000  0.7500000  0.0000000  )
        53           S   tau(  53) = (  0.6250000  0.8750000  0.3750000  )
        54           S   tau(  54) = (  0.6250000  0.6250000  0.1250000  )
        55           S   tau(  55) = (  0.8750000  0.8750000  0.1250000  )
        56           S   tau(  56) = (  0.8750000  0.6250000  0.3750000  )
        57           Cu  tau(  57) = (  0.5000000  0.5000000  0.5000000  )
        58           Zn  tau(  58) = (  0.5000000  0.7500000  0.7500000  )
        59           Zn  tau(  59) = (  0.7500000  0.5000000  0.7500000  )
        60           Zn  tau(  60) = (  0.7500000  0.7500000  0.5000000  )
        61           S   tau(  61) = (  0.6250000  0.8750000  0.8750000  )
        62           S   tau(  62) = (  0.8750000  0.8750000  0.6250000  )
        63           S   tau(  63) = (  0.8750000  0.6250000  0.8750000  )

     number of k points=    13 (tetrahedron method)
                       cart. coord. in units 2pi/alat
        k(    1) = (   0.0000000   0.0000000   0.0000000), wk =   0.0156250
        k(    2) = (   0.0000000   0.0000000   0.2500000), wk =   0.0937500
        k(    3) = (   0.0000000   0.0000000  -0.5000000), wk =   0.0468750
        k(    4) = (   0.0000000   0.2500000   0.2500000), wk =   0.0937500
        k(    5) = (   0.0000000   0.2500000  -0.5000000), wk =   0.1875000
        k(    6) = (   0.0000000  -0.5000000  -0.5000000), wk =   0.0468750
        k(    7) = (   0.2500000   0.2500000   0.2500000), wk =   0.0312500
        k(    8) = (   0.2500000   0.2500000  -0.5000000), wk =   0.0937500
        k(    9) = (   0.2500000  -0.5000000  -0.5000000), wk =   0.0937500
        k(   10) = (  -0.5000000  -0.5000000  -0.5000000), wk =   0.0156250
        k(   11) = (  -0.2500000   0.0000000   0.2500000), wk =   0.0937500
        k(   12) = (   0.2500000  -0.2500000   0.2500000), wk =   0.0937500
        k(   13) = (   0.2500000  -0.2500000  -0.5000000), wk =   0.0937500

                       cryst. coord.
        k(    1) = (   0.0000000   0.0000000   0.0000000), wk =   0.0156250
        k(    2) = (   0.0000000   0.0000000   0.2500000), wk =   0.0937500
        k(    3) = (   0.0000000   0.0000000  -0.5000000), wk =   0.0468750
        k(    4) = (   0.0000000   0.2500000   0.2500000), wk =   0.0937500
        k(    5) = (   0.0000000   0.2500000  -0.5000000), wk =   0.1875000
        k(    6) = (   0.0000000  -0.5000000  -0.5000000), wk =   0.0468750
        k(    7) = (   0.2500000   0.2500000   0.2500000), wk =   0.0312500
        k(    8) = (   0.2500000   0.2500000  -0.5000000), wk =   0.0937500
        k(    9) = (   0.2500000  -0.5000000  -0.5000000), wk =   0.0937500
        k(   10) = (  -0.5000000  -0.5000000  -0.5000000), wk =   0.0156250
        k(   11) = (  -0.2500000   0.0000000   0.2500000), wk =   0.0937500
        k(   12) = (   0.2500000  -0.2500000   0.2500000), wk =   0.0937500
        k(   13) = (   0.2500000  -0.2500000  -0.5000000), wk =   0.0937500

     Dense  grid:  2160009 G-vectors     FFT dimensions: ( 162, 162, 162)

     Dynamical RAM for                 wfc:      12.76 MB

     Dynamical RAM for     wfc (w. buffer):      38.28 MB

     Dynamical RAM for             U proj.:       5.88 MB

     Dynamical RAM for  U proj. (w. buff.):      17.65 MB

     Dynamical RAM for           str. fact:       0.88 MB

     Dynamical RAM for           local pot:       0.00 MB

     Dynamical RAM for          nlocal pot:      41.70 MB

     Dynamical RAM for                qrad:       5.90 MB

     Dynamical RAM for          rho,v,vnew:       4.17 MB

     Dynamical RAM for           G-vectors:       1.25 MB

     Dynamical RAM for          h,s,v(r/c):       2.44 MB

     Dynamical RAM for          <psi|beta>:       6.00 MB

     Dynamical RAM for                 psi:      25.52 MB

     Dynamical RAM for                hpsi:      25.52 MB

     Dynamical RAM for                spsi:      25.52 MB

     Dynamical RAM for      wfcinit/wfcrot:      34.28 MB

     Dynamical RAM for           addusdens:       5.48 MB

     Estimated static dynamical RAM per process >     113.41 MB

     Estimated max dynamical RAM per process >     198.42 MB

     Estimated total dynamical RAM >     282.13 GB
     Generating pointlists ...
     new r_m :   0.0893 (alat units)  1.8370 (a.u.) for type    1
     new r_m :   0.0893 (alat units)  1.8370 (a.u.) for type    2
     new r_m :   0.0893 (alat units)  1.8370 (a.u.) for type    3

     The potential is recalculated from file :
     ./out/Cu_vac_q0_U6_unrlxd.save/charge-density


     HUBBARD ENERGY =    0.2756  (Ry)

     STARTING HUBBARD OCCUPATIONS:

     =================== HUBBARD OCCUPATIONS ===================
     ------------------------ ATOM    1 ------------------------
     Tr[ns(  1)] (up, down, total) =   4.98372  4.98369  9.96740
     Atomic magnetic moment for atom   1 =   0.00003
     SPIN  1
     eigenvalues:
       0.996  0.996  0.996  0.998  0.998
     eigenvectors (columns):
       0.000 -0.006  0.003 -0.164 -0.986
       0.577 -0.023  0.816 -0.004  0.004
       0.577 -0.695 -0.428  0.005  0.002
      -0.000  0.003  0.006  0.986 -0.164
      -0.577 -0.718  0.388  0.001  0.006
     occupation matrix ns (before diag.):
       0.998 -0.000 -0.000  0.000 -0.000
      -0.000  0.996 -0.000 -0.000  0.000
      -0.000 -0.000  0.996  0.000  0.000
       0.000 -0.000  0.000  0.998 -0.000
      -0.000  0.000  0.000 -0.000  0.996
     SPIN  2
     eigenvalues:
       0.996  0.996  0.996  0.998  0.998
     eigenvectors (columns):
       0.000  0.005 -0.003 -0.237 -0.971
       0.577 -0.040 -0.816 -0.004  0.003
       0.577  0.726  0.373  0.005  0.001
      -0.000 -0.003 -0.005  0.971 -0.237
      -0.577  0.686 -0.442  0.001  0.005
     occupation matrix ns (before diag.):
       0.998 -0.000 -0.000  0.000 -0.000
      -0.000  0.996 -0.000 -0.000  0.000
      -0.000 -0.000  0.996  0.000  0.000
       0.000 -0.000  0.000  0.998 -0.000
      -0.000  0.000  0.000 -0.000  0.996
     ------------------------ ATOM    2 ------------------------
     Tr[ns(  2)] (up, down, total) =   4.98371  4.98368  9.96740
     Atomic magnetic moment for atom   2 =   0.00003
     SPIN  1
     eigenvalues:
       0.996  0.996  0.996  0.998  0.998
     eigenvectors (columns):
       0.001 -0.005 -0.000 -0.500  0.866
       0.618 -0.707  0.344  0.001 -0.004
       0.486 -0.000 -0.874  0.002 -0.000
      -0.002 -0.003  0.001  0.866  0.500
      -0.618 -0.707 -0.344 -0.001 -0.004
     occupation matrix ns (before diag.):
       0.998 -0.000 -0.000  0.000 -0.000
      -0.000  0.996 -0.000 -0.000  0.000
      -0.000 -0.000  0.996  0.000  0.000
       0.000 -0.000  0.000  0.998 -0.000
      -0.000  0.000  0.000 -0.000  0.996
     SPIN  2
     eigenvalues:
       0.996  0.996  0.996  0.998  0.998
     eigenvectors (columns):
       0.001 -0.005 -0.000 -0.500  0.866
       0.615 -0.707  0.348  0.001 -0.004
       0.492 -0.000 -0.870  0.001 -0.000
      -0.002 -0.003  0.000  0.866  0.500
      -0.615 -0.707 -0.348 -0.001 -0.004
     occupation matrix ns (before diag.):
       0.998 -0.000 -0.000  0.000 -0.000
      -0.000  0.996 -0.000 -0.000  0.000
      -0.000 -0.000  0.996  0.000  0.000
       0.000 -0.000  0.000  0.998 -0.000
      -0.000  0.000  0.000 -0.000  0.996
     ------------------------ ATOM    3 ------------------------
     Tr[ns(  3)] (up, down, total) =   4.98371  4.98368  9.96740
     Atomic magnetic moment for atom   3 =   0.00003
     SPIN  1
     eigenvalues:
       0.996  0.996  0.996  0.998  0.998
     eigenvectors (columns):
       0.001 -0.005 -0.000 -0.500  0.866
       0.486 -0.000 -0.874  0.002 -0.000
       0.618 -0.707  0.344  0.001 -0.004
       0.002  0.003 -0.001 -0.866 -0.500
      -0.618 -0.707 -0.344 -0.001 -0.004
     occupation matrix ns (before diag.):
       0.998 -0.000 -0.000 -0.000 -0.000
      -0.000  0.996 -0.000 -0.000  0.000
      -0.000 -0.000  0.996  0.000  0.000
      -0.000 -0.000  0.000  0.998  0.000
      -0.000  0.000  0.000  0.000  0.996
     SPIN  2
     eigenvalues:
       0.996  0.996  0.996  0.998  0.998
     eigenvectors (columns):
       0.001 -0.005 -0.000 -0.500  0.866
       0.492 -0.000 -0.870  0.001 -0.000
       0.615 -0.707  0.348  0.001 -0.004
       0.002  0.003 -0.000 -0.866 -0.500
      -0.615 -0.707 -0.348 -0.001 -0.004
     occupation matrix ns (before diag.):
       0.998 -0.000 -0.000 -0.000 -0.000
      -0.000  0.996 -0.000 -0.000  0.000
      -0.000 -0.000  0.996  0.000  0.000
      -0.000 -0.000  0.000  0.998  0.000
      -0.000  0.000  0.000  0.000  0.996
     ------------------------ ATOM    4 ------------------------
     Tr[ns(  4)] (up, down, total) =   4.98371  4.98368  9.96740
     Atomic magnetic moment for atom   4 =   0.00003
     SPIN  1
     eigenvalues:
       0.996  0.996  0.996  0.998  0.998
     eigenvectors (columns):
      -0.003  0.000  0.001 -1.000  0.000
       0.618  0.707  0.344 -0.001 -0.004
       0.618 -0.707  0.344 -0.001  0.004
      -0.000  0.005  0.000  0.000  1.000
      -0.486 -0.000  0.874  0.002 -0.000
     occupation matrix ns (before diag.):
       0.998  0.000  0.000  0.000 -0.000
       0.000  0.996 -0.000 -0.000  0.000
       0.000 -0.000  0.996  0.000  0.000
       0.000 -0.000  0.000  0.998 -0.000
      -0.000  0.000  0.000 -0.000  0.996
     SPIN  2
     eigenvalues:
       0.996  0.996  0.996  0.998  0.998
     eigenvectors (columns):
       0.002 -0.000 -0.000 -1.000  0.000
      -0.615  0.707 -0.348 -0.001 -0.004
      -0.615 -0.707 -0.348 -0.001  0.004
       0.000  0.006 -0.000  0.000  1.000
       0.492 -0.000 -0.870  0.001 -0.000
     occupation matrix ns (before diag.):
       0.998  0.000  0.000  0.000 -0.000
       0.000  0.996 -0.000 -0.000  0.000
       0.000 -0.000  0.996  0.000  0.000
       0.000 -0.000  0.000  0.998 -0.000
      -0.000  0.000  0.000 -0.000  0.996
     ------------------------ ATOM    9 ------------------------
     Tr[ns(  9)] (up, down, total) =   4.98369  4.98342  9.96711
     Atomic magnetic moment for atom   9 =   0.00027
     SPIN  1
     eigenvalues:
       0.996  0.996  0.996  0.998  0.998
     eigenvectors (columns):
       0.030  0.000 -0.001  0.000  1.000
       0.613  0.707  0.352  0.007 -0.018
       0.613 -0.707  0.352 -0.007 -0.018
      -0.000  0.010  0.000 -1.000  0.000
      -0.497 -0.000  0.867  0.000  0.016
     occupation matrix ns (before diag.):
       0.998 -0.000 -0.000  0.000  0.000
      -0.000  0.996 -0.000 -0.000  0.000
      -0.000 -0.000  0.996  0.000  0.000
       0.000 -0.000  0.000  0.998 -0.000
       0.000  0.000  0.000 -0.000  0.996
     SPIN  2
     eigenvalues:
       0.996  0.996  0.996  0.998  0.998
     eigenvectors (columns):
       0.061  0.000 -0.005  0.998  0.000
       0.696  0.707  0.115 -0.042  0.003
       0.696 -0.707  0.115 -0.042 -0.003
      -0.000  0.005  0.000  0.000 -1.000
      -0.163  0.000  0.987  0.015  0.000
     occupation matrix ns (before diag.):
       0.998 -0.000 -0.000  0.000  0.000
      -0.000  0.996 -0.000 -0.000  0.000
      -0.000 -0.000  0.996  0.000  0.000
       0.000 -0.000  0.000  0.998 -0.000
       0.000  0.000  0.000 -0.000  0.996
     ------------------------ ATOM   10 ------------------------
     Tr[ns( 10)] (up, down, total) =   4.98370  4.98347  9.96717
     Atomic magnetic moment for atom  10 =   0.00023
     SPIN  1
     eigenvalues:
       0.996  0.996  0.996  0.998  0.998
     eigenvectors (columns):
      -0.023 -0.008  0.005  0.992 -0.120
       0.766 -0.571  0.295  0.012 -0.002
      -0.620 -0.777  0.106 -0.022 -0.007
       0.006  0.007 -0.005 -0.120 -0.993
      -0.169  0.265  0.949 -0.007 -0.003
     occupation matrix ns (before diag.):
       0.998  0.000 -0.000  0.000 -0.000
       0.000  0.996  0.000  0.000  0.000
      -0.000  0.000  0.996  0.000 -0.000
       0.000  0.000  0.000  0.998  0.000
      -0.000  0.000 -0.000  0.000  0.996
     SPIN  2
     eigenvalues:
       0.996  0.996  0.996  0.998  0.998
     eigenvectors (columns):
      -0.050 -0.007  0.004  0.998 -0.032
       0.730 -0.632  0.258  0.031 -0.000
      -0.673 -0.728  0.122 -0.039 -0.003
       0.004  0.002 -0.004 -0.031 -0.999
      -0.111  0.263  0.958 -0.007 -0.003
     occupation matrix ns (before diag.):
       0.998  0.000 -0.000  0.000 -0.000
       0.000  0.996  0.000 -0.000  0.000
      -0.000  0.000  0.996  0.000 -0.000
       0.000 -0.000  0.000  0.998  0.000
      -0.000  0.000 -0.000  0.000  0.996
     ------------------------ ATOM   11 ------------------------
     Tr[ns( 11)] (up, down, total) =   4.98370  4.98347  9.96717
     Atomic magnetic moment for atom  11 =   0.00023
     SPIN  1
     eigenvalues:
       0.996  0.996  0.996  0.998  0.998
     eigenvectors (columns):
      -0.023 -0.008  0.005  0.992 -0.120
      -0.620 -0.777  0.106 -0.022 -0.007
       0.766 -0.571  0.295  0.012 -0.002
      -0.006 -0.007  0.005  0.120  0.993
      -0.169  0.265  0.949 -0.007 -0.003
     occupation matrix ns (before diag.):
       0.998 -0.000  0.000 -0.000 -0.000
      -0.000  0.996  0.000 -0.000 -0.000
       0.000  0.000  0.996 -0.000  0.000
      -0.000 -0.000 -0.000  0.998 -0.000
      -0.000 -0.000  0.000 -0.000  0.996
     SPIN  2
     eigenvalues:
       0.996  0.996  0.996  0.998  0.998
     eigenvectors (columns):
      -0.050 -0.007  0.004  0.998 -0.032
      -0.673 -0.728  0.122 -0.039 -0.003
       0.730 -0.632  0.258  0.031 -0.000
      -0.004 -0.002  0.004  0.031  0.999
      -0.111  0.263  0.958 -0.007 -0.003
     occupation matrix ns (before diag.):
       0.998 -0.000  0.000 -0.000 -0.000
      -0.000  0.996  0.000 -0.000 -0.000
       0.000  0.000  0.996  0.000  0.000
      -0.000 -0.000  0.000  0.998 -0.000
      -0.000 -0.000  0.000 -0.000  0.996
     ------------------------ ATOM   12 ------------------------
     Tr[ns( 12)] (up, down, total) =   4.98375  4.98360  9.96734
     Atomic magnetic moment for atom  12 =   0.00015
     SPIN  1
     eigenvalues:
       0.996  0.996  0.996  0.998  0.998
     eigenvectors (columns):
      -0.012  0.000  0.057 -0.000 -0.998
      -0.496  0.707  0.503 -0.023  0.034
      -0.496 -0.707  0.503  0.023  0.034
       0.000  0.033  0.000  0.999 -0.000
       0.713 -0.000  0.700 -0.000  0.031
     occupation matrix ns (before diag.):
       0.998 -0.000 -0.000  0.000 -0.000
      -0.000  0.996  0.000 -0.000  0.000
      -0.000  0.000  0.996  0.000  0.000
       0.000 -0.000  0.000  0.998 -0.000
      -0.000  0.000  0.000 -0.000  0.996
     SPIN  2
     eigenvalues:
       0.996  0.996  0.996  0.998  0.998
     eigenvectors (columns):
      -0.012  0.000 -0.047 -0.000 -0.999
      -0.595  0.707 -0.381 -0.026  0.025
      -0.595 -0.707 -0.381  0.026  0.025
       0.000  0.036 -0.000  0.999 -0.000
       0.540 -0.000 -0.841 -0.000  0.033
     occupation matrix ns (before diag.):
       0.998 -0.000 -0.000  0.000 -0.000
      -0.000  0.996 -0.000 -0.000  0.000
      -0.000 -0.000  0.996  0.000  0.000
       0.000 -0.000  0.000  0.998 -0.000
      -0.000  0.000  0.000 -0.000  0.996
     ------------------------ ATOM   17 ------------------------
     Tr[ns( 17)] (up, down, total) =   4.98369  4.98342  9.96711
     Atomic magnetic moment for atom  17 =   0.00027
     SPIN  1
     eigenvalues:
       0.996  0.996  0.996  0.998  0.998
     eigenvectors (columns):
       0.015 -0.008  0.001 -0.866 -0.500
      -0.497 -0.000 -0.867  0.000 -0.016
      -0.613 -0.707  0.352  0.007 -0.018
       0.026  0.005  0.001  0.500 -0.866
       0.613 -0.707 -0.352  0.007  0.018
     occupation matrix ns (before diag.):
       0.998  0.000  0.000  0.000 -0.000
       0.000  0.996 -0.000  0.000  0.000
       0.000 -0.000  0.996  0.000  0.000
       0.000  0.000  0.000  0.998 -0.000
      -0.000  0.000  0.000 -0.000  0.996
     SPIN  2
     eigenvalues:
       0.996  0.996  0.996  0.998  0.998
     eigenvectors (columns):
       0.031  0.004 -0.003  0.499 -0.866
      -0.163 -0.000  0.987  0.015  0.000
      -0.696  0.707 -0.115  0.042  0.003
       0.053 -0.002 -0.004  0.864  0.500
       0.696  0.707  0.115 -0.042  0.003
     occupation matrix ns (before diag.):
       0.998  0.000  0.000 -0.000 -0.000
       0.000  0.996 -0.000  0.000  0.000
       0.000 -0.000  0.996  0.000  0.000
      -0.000  0.000  0.000  0.998 -0.000
      -0.000  0.000  0.000 -0.000  0.996
     ------------------------ ATOM   18 ------------------------
     Tr[ns( 18)] (up, down, total) =   4.98370  4.98347  9.96717
     Atomic magnetic moment for atom  18 =   0.00023
     SPIN  1
     eigenvalues:
       0.996  0.996  0.996  0.998  0.998
     eigenvectors (columns):
      -0.006  0.002  0.002 -0.393 -0.920
      -0.169  0.265 -0.949  0.007 -0.003
       0.620  0.777  0.106 -0.022  0.007
      -0.023 -0.010 -0.007 -0.919  0.393
       0.766 -0.571 -0.295 -0.012 -0.002
     occupation matrix ns (before diag.):
       0.998 -0.000  0.000 -0.000  0.000
      -0.000  0.996  0.000 -0.000  0.000
       0.000  0.000  0.996  0.000 -0.000
      -0.000 -0.000  0.000  0.998  0.000
       0.000  0.000 -0.000  0.000  0.996
     SPIN  2
     eigenvalues:
       0.996  0.996  0.996  0.998  0.998
     eigenvectors (columns):
      -0.021 -0.002  0.001 -0.472 -0.881
      -0.111  0.263 -0.958  0.007 -0.003
       0.673  0.728  0.122 -0.039  0.003
      -0.045 -0.007 -0.005 -0.880  0.472
       0.730 -0.632 -0.258 -0.031 -0.000
     occupation matrix ns (before diag.):
       0.998 -0.000  0.000 -0.000  0.000
      -0.000  0.996  0.000 -0.000  0.000
       0.000  0.000  0.996  0.000 -0.000
      -0.000 -0.000  0.000  0.998  0.000
       0.000  0.000 -0.000  0.000  0.996
     ------------------------ ATOM   19 ------------------------
     Tr[ns( 19)] (up, down, total) =   4.98375  4.98360  9.96734
     Atomic magnetic moment for atom  19 =   0.00015
     SPIN  1
     eigenvalues:
       0.996  0.996  0.996  0.998  0.998
     eigenvectors (columns):
       0.006 -0.028  0.028 -0.866 -0.499
      -0.713  0.000  0.700  0.000  0.031
      -0.496 -0.707 -0.503  0.023 -0.034
       0.010  0.016  0.049  0.500 -0.865
       0.496 -0.707  0.503  0.023  0.034
     occupation matrix ns (before diag.):
       0.998 -0.000 -0.000  0.000 -0.000
      -0.000  0.996 -0.000 -0.000  0.000
      -0.000 -0.000  0.996  0.000 -0.000
       0.000 -0.000  0.000  0.998 -0.000
      -0.000  0.000 -0.000 -0.000  0.996
     SPIN  2
     eigenvalues:
       0.996  0.996  0.996  0.998  0.998
     eigenvectors (columns):
       0.006 -0.032 -0.023  0.865  0.499
      -0.540  0.000 -0.841 -0.000 -0.033
      -0.595 -0.707  0.381 -0.026  0.025
       0.010  0.018 -0.040 -0.500  0.865
       0.595 -0.707 -0.381 -0.026 -0.025
     occupation matrix ns (before diag.):
       0.998 -0.000 -0.000  0.000 -0.000
      -0.000  0.996 -0.000 -0.000  0.000
      -0.000 -0.000  0.996  0.000  0.000
       0.000 -0.000  0.000  0.998 -0.000
      -0.000  0.000  0.000 -0.000  0.996
     ------------------------ ATOM   20 ------------------------
     Tr[ns( 20)] (up, down, total) =   4.98370  4.98347  9.96717
     Atomic magnetic moment for atom  20 =   0.00023
     SPIN  1
     eigenvalues:
       0.996  0.996  0.996  0.998  0.998
     eigenvectors (columns):
       0.017  0.010 -0.006 -0.600 -0.800
       0.169 -0.265 -0.949  0.007  0.003
       0.766 -0.571  0.295  0.012 -0.002
       0.017  0.003 -0.002 -0.800  0.600
       0.620  0.777 -0.106  0.022  0.007
     occupation matrix ns (before diag.):
       0.998 -0.000 -0.000 -0.000 -0.000
      -0.000  0.996 -0.000 -0.000 -0.000
      -0.000 -0.000  0.996 -0.000 -0.000
      -0.000 -0.000 -0.000  0.998 -0.000
      -0.000 -0.000 -0.000 -0.000  0.996
     SPIN  2
     eigenvalues:
       0.996  0.996  0.996  0.998  0.998
     eigenvectors (columns):
      -0.028 -0.005 -0.005  0.526 -0.850
      -0.111  0.263 -0.958 -0.007  0.003
      -0.730  0.632  0.258 -0.031 -0.000
      -0.041 -0.005 -0.001  0.849  0.527
      -0.673 -0.728 -0.122 -0.039  0.003
     occupation matrix ns (before diag.):
       0.998 -0.000 -0.000 -0.000 -0.000
      -0.000  0.996 -0.000 -0.000 -0.000
      -0.000 -0.000  0.996 -0.000 -0.000
      -0.000 -0.000 -0.000  0.998 -0.000
      -0.000 -0.000 -0.000 -0.000  0.996
     ------------------------ ATOM   25 ------------------------
     Tr[ns( 25)] (up, down, total) =   4.98381  4.98376  9.96757
     Atomic magnetic moment for atom  25 =   0.00004
     SPIN  1
     eigenvalues:
       0.996  0.996  0.996  0.998  0.998
     eigenvectors (columns):
       0.005 -0.006 -0.008 -0.866 -0.500
      -0.666 -0.707 -0.236  0.005 -0.003
       0.334  0.000 -0.942  0.000  0.019
      -0.009 -0.003  0.015 -0.500  0.866
       0.666 -0.707  0.236  0.005  0.003
     occupation matrix ns (before diag.):
       0.998 -0.000 -0.000 -0.000 -0.000
      -0.000  0.996  0.000 -0.000  0.000
      -0.000  0.000  0.996  0.000 -0.000
      -0.000 -0.000  0.000  0.998  0.000
      -0.000  0.000 -0.000  0.000  0.996
     SPIN  2
     eigenvalues:
       0.996  0.996  0.996  0.998  0.998
     eigenvectors (columns):
      -0.010  0.010 -0.005 -0.866 -0.500
       0.640  0.301 -0.707  0.004 -0.007
      -0.426  0.904 -0.000 -0.000  0.027
       0.018 -0.018 -0.003 -0.500  0.866
      -0.640 -0.301 -0.707  0.004  0.007
     occupation matrix ns (before diag.):
       0.998  0.000 -0.000 -0.000 -0.000
       0.000  0.996  0.000 -0.000  0.000
      -0.000  0.000  0.996  0.000 -0.000
      -0.000 -0.000  0.000  0.998  0.000
      -0.000  0.000 -0.000  0.000  0.996
     ------------------------ ATOM   26 ------------------------
     Tr[ns( 26)] (up, down, total) =   4.98376  4.98369  9.96745
     Atomic magnetic moment for atom  26 =   0.00006
     SPIN  1
     eigenvalues:
       0.996  0.996  0.996  0.998  0.998
     eigenvectors (columns):
      -0.001 -0.008  0.017 -0.866 -0.500
      -0.702 -0.087 -0.707 -0.014  0.003
       0.123 -0.992 -0.000 -0.000  0.015
       0.002  0.013  0.010 -0.500  0.866
       0.702  0.087 -0.707 -0.014 -0.003
     occupation matrix ns (before diag.):
       0.998  0.000 -0.000 -0.000  0.000
       0.000  0.996  0.000  0.000  0.000
      -0.000  0.000  0.996  0.000 -0.000
      -0.000  0.000  0.000  0.998  0.000
       0.000  0.000 -0.000  0.000  0.996
     SPIN  2
     eigenvalues:
       0.996  0.996  0.996  0.998  0.998
     eigenvectors (columns):
      -0.010 -0.011 -0.016  0.500  0.866
      -0.680  0.192  0.707 -0.009  0.013
      -0.271 -0.962  0.000 -0.027 -0.000
       0.017  0.020 -0.009 -0.866  0.500
       0.680 -0.192  0.707  0.009  0.013
     occupation matrix ns (before diag.):
       0.998  0.000 -0.000  0.000  0.000
       0.000  0.996 -0.000  0.000  0.000
      -0.000 -0.000  0.996  0.000  0.000
       0.000  0.000  0.000  0.998 -0.000
       0.000  0.000  0.000 -0.000  0.996
     ------------------------ ATOM   27 ------------------------
     Tr[ns( 27)] (up, down, total) =   4.98377  4.98372  9.96749
     Atomic magnetic moment for atom  27 =   0.00004
     SPIN  1
     eigenvalues:
       0.996  0.996  0.996  0.998  0.998
     eigenvectors (columns):
      -0.009 -0.039  0.053 -0.875 -0.479
      -0.753  0.011 -0.656 -0.004 -0.052
       0.513 -0.618 -0.595  0.010 -0.045
      -0.001  0.005  0.068  0.482 -0.874
       0.413  0.785 -0.457 -0.038 -0.053
     occupation matrix ns (before diag.):
       0.998  0.000  0.000  0.000  0.000
       0.000  0.996  0.000  0.000  0.000
       0.000  0.000  0.996  0.000 -0.000
       0.000  0.000  0.000  0.998  0.000
       0.000  0.000 -0.000  0.000  0.996
     SPIN  2
     eigenvalues:
       0.996  0.996  0.996  0.998  0.998
     eigenvectors (columns):
      -0.013 -0.036  0.059 -0.841 -0.537
      -0.736 -0.014 -0.675 -0.003 -0.051
       0.533 -0.627 -0.566  0.005 -0.041
       0.001  0.005  0.061  0.540 -0.839
       0.417  0.778 -0.466 -0.039 -0.053
     occupation matrix ns (before diag.):
       0.998  0.000  0.000  0.000  0.000
       0.000  0.996  0.000  0.000  0.000
       0.000  0.000  0.996  0.000 -0.000
       0.000  0.000  0.000  0.998  0.000
       0.000  0.000 -0.000  0.000  0.996
     ------------------------ ATOM   28 ------------------------
     Tr[ns( 28)] (up, down, total) =   4.98377  4.98372  9.96749
     Atomic magnetic moment for atom  28 =   0.00004
     SPIN  1
     eigenvalues:
       0.996  0.996  0.996  0.998  0.998
     eigenvectors (columns):
       0.005  0.015  0.086  0.020  0.996
      -0.413 -0.785 -0.457  0.038  0.053
       0.513 -0.618  0.595  0.010 -0.045
       0.008  0.036  0.012  0.999 -0.022
       0.753 -0.011 -0.656  0.004  0.052
     occupation matrix ns (before diag.):
       0.998  0.000 -0.000 -0.000  0.000
       0.000  0.996  0.000  0.000  0.000
      -0.000  0.000  0.996  0.000 -0.000
      -0.000  0.000  0.000  0.998  0.000
       0.000  0.000 -0.000  0.000  0.996
     SPIN  2
     eigenvalues:
       0.996  0.996  0.996  0.998  0.998
     eigenvectors (columns):
       0.006  0.014  0.082 -0.047  0.995
      -0.417 -0.778 -0.466  0.039  0.053
       0.533 -0.627  0.566  0.005 -0.041
       0.011  0.034  0.021  0.998  0.045
       0.736  0.014 -0.675  0.003  0.051
     occupation matrix ns (before diag.):
       0.998  0.000 -0.000  0.000  0.000
       0.000  0.996  0.000  0.000  0.000
      -0.000  0.000  0.996  0.000 -0.000
       0.000  0.000  0.000  0.998  0.000
       0.000  0.000 -0.000  0.000  0.996
     ------------------------ ATOM   33 ------------------------
     Tr[ns( 33)] (up, down, total) =   4.98369  4.98342  9.96711
     Atomic magnetic moment for atom  33 =   0.00027
     SPIN  1
     eigenvalues:
       0.996  0.996  0.996  0.998  0.998
     eigenvectors (columns):
       0.015  0.008 -0.001 -0.866 -0.500
      -0.613  0.707 -0.352  0.007 -0.018
      -0.497  0.000  0.867  0.000 -0.016
      -0.026  0.005  0.001 -0.500  0.866
       0.613  0.707  0.352  0.007  0.018
     occupation matrix ns (before diag.):
       0.998  0.000  0.000 -0.000 -0.000
       0.000  0.996 -0.000 -0.000  0.000
       0.000 -0.000  0.996 -0.000  0.000
      -0.000 -0.000 -0.000  0.998  0.000
      -0.000  0.000  0.000  0.000  0.996
     SPIN  2
     eigenvalues:
       0.996  0.996  0.996  0.998  0.998
     eigenvectors (columns):
      -0.031  0.004 -0.003 -0.499 -0.866
       0.696  0.707 -0.115 -0.042  0.003
       0.163 -0.000  0.987 -0.015 -0.000
       0.053  0.002  0.004  0.864 -0.500
      -0.696  0.707  0.115  0.042  0.003
     occupation matrix ns (before diag.):
       0.998  0.000  0.000  0.000 -0.000
       0.000  0.996 -0.000 -0.000  0.000
       0.000 -0.000  0.996 -0.000  0.000
       0.000 -0.000 -0.000  0.998  0.000
      -0.000  0.000  0.000  0.000  0.996
     ------------------------ ATOM   34 ------------------------
     Tr[ns( 34)] (up, down, total) =   4.98375  4.98360  9.96734
     Atomic magnetic moment for atom  34 =   0.00015
     SPIN  1
     eigenvalues:
       0.996  0.996  0.996  0.998  0.998
     eigenvectors (columns):
       0.006 -0.028  0.028 -0.866 -0.499
      -0.496 -0.707 -0.503  0.023 -0.034
      -0.713 -0.000  0.700 -0.000  0.031
      -0.010 -0.016 -0.049 -0.500  0.865
       0.496 -0.707  0.503  0.023  0.034
     occupation matrix ns (before diag.):
       0.998 -0.000 -0.000 -0.000 -0.000
      -0.000  0.996 -0.000 -0.000 -0.000
      -0.000 -0.000  0.996  0.000  0.000
      -0.000 -0.000  0.000  0.998  0.000
      -0.000 -0.000  0.000  0.000  0.996
     SPIN  2
     eigenvalues:
       0.996  0.996  0.996  0.998  0.998
     eigenvectors (columns):
       0.006  0.032  0.023  0.865  0.499
      -0.595  0.707 -0.381 -0.026  0.025
      -0.540  0.000  0.841  0.000 -0.033
      -0.010  0.018 -0.040  0.500 -0.865
       0.595  0.707  0.381 -0.026 -0.025
     occupation matrix ns (before diag.):
       0.998 -0.000 -0.000 -0.000 -0.000
      -0.000  0.996 -0.000 -0.000  0.000
      -0.000 -0.000  0.996  0.000  0.000
      -0.000 -0.000  0.000  0.998  0.000
      -0.000  0.000  0.000  0.000  0.996
     ------------------------ ATOM   35 ------------------------
     Tr[ns( 35)] (up, down, total) =   4.98370  4.98347  9.96717
     Atomic magnetic moment for atom  35 =   0.00023
     SPIN  1
     eigenvalues:
       0.996  0.996  0.996  0.998  0.998
     eigenvectors (columns):
      -0.006 -0.002 -0.002 -0.393 -0.920
       0.620 -0.777 -0.106 -0.022  0.007
      -0.169 -0.265  0.949  0.007 -0.003
       0.023 -0.010 -0.007  0.919 -0.393
       0.766  0.571  0.295 -0.012 -0.002
     occupation matrix ns (before diag.):
       0.998  0.000 -0.000  0.000  0.000
       0.000  0.996  0.000 -0.000 -0.000
      -0.000  0.000  0.996  0.000  0.000
       0.000 -0.000  0.000  0.998 -0.000
       0.000 -0.000  0.000 -0.000  0.996
     SPIN  2
     eigenvalues:
       0.996  0.996  0.996  0.998  0.998
     eigenvectors (columns):
      -0.021  0.002 -0.001 -0.472 -0.881
       0.673 -0.728 -0.122 -0.039  0.003
      -0.111 -0.263  0.958  0.007 -0.003
       0.045 -0.007 -0.005  0.880 -0.472
       0.730  0.632  0.258 -0.031 -0.000
     occupation matrix ns (before diag.):
       0.998  0.000 -0.000  0.000  0.000
       0.000  0.996  0.000 -0.000 -0.000
      -0.000  0.000  0.996  0.000  0.000
       0.000 -0.000  0.000  0.998 -0.000
       0.000 -0.000  0.000 -0.000  0.996
     ------------------------ ATOM   36 ------------------------
     Tr[ns( 36)] (up, down, total) =   4.98370  4.98347  9.96717
     Atomic magnetic moment for atom  36 =   0.00023
     SPIN  1
     eigenvalues:
       0.996  0.996  0.996  0.998  0.998
     eigenvectors (columns):
      -0.017 -0.010 -0.006 -0.600 -0.800
      -0.766  0.571  0.295  0.012 -0.002
      -0.169  0.265 -0.949  0.007  0.003
       0.017  0.003  0.002  0.800 -0.600
      -0.620 -0.777 -0.106  0.022  0.007
     occupation matrix ns (before diag.):
       0.998 -0.000 -0.000  0.000 -0.000
      -0.000  0.996 -0.000  0.000 -0.000
      -0.000 -0.000  0.996  0.000 -0.000
       0.000  0.000  0.000  0.998  0.000
      -0.000 -0.000 -0.000  0.000  0.996
     SPIN  2
     eigenvalues:
       0.996  0.996  0.996  0.998  0.998
     eigenvectors (columns):
       0.028 -0.005 -0.005 -0.526 -0.850
       0.730  0.632  0.258  0.031 -0.000
       0.111  0.263 -0.958  0.007  0.003
      -0.041  0.005  0.001  0.849 -0.527
       0.673 -0.728 -0.122  0.039  0.003
     occupation matrix ns (before diag.):
       0.998 -0.000 -0.000  0.000 -0.000
      -0.000  0.996 -0.000  0.000 -0.000
      -0.000 -0.000  0.996  0.000 -0.000
       0.000  0.000  0.000  0.998  0.000
      -0.000 -0.000 -0.000  0.000  0.996
     ------------------------ ATOM   41 ------------------------
     Tr[ns( 41)] (up, down, total) =   4.98381  4.98376  9.96757
     Atomic magnetic moment for atom  41 =   0.00004
     SPIN  1
     eigenvalues:
       0.996  0.996  0.996  0.998  0.998
     eigenvectors (columns):
       0.005  0.006  0.008  0.866  0.500
       0.334  0.000  0.942 -0.000 -0.019
      -0.666  0.707  0.236 -0.005  0.003
       0.009 -0.003  0.015 -0.500  0.866
       0.666  0.707 -0.236 -0.005 -0.003
     occupation matrix ns (before diag.):
       0.998 -0.000 -0.000  0.000 -0.000
      -0.000  0.996  0.000 -0.000 -0.000
      -0.000  0.000  0.996  0.000  0.000
       0.000 -0.000  0.000  0.998 -0.000
      -0.000 -0.000  0.000 -0.000  0.996
     SPIN  2
     eigenvalues:
       0.996  0.996  0.996  0.998  0.998
     eigenvectors (columns):
      -0.010  0.010 -0.005 -0.866 -0.500
      -0.426  0.904 -0.000  0.000  0.027
       0.640  0.301 -0.707  0.004 -0.007
      -0.018  0.018  0.003  0.500 -0.866
      -0.640 -0.301 -0.707  0.004  0.007
     occupation matrix ns (before diag.):
       0.998 -0.000  0.000  0.000 -0.000
      -0.000  0.996  0.000 -0.000 -0.000
       0.000  0.000  0.996  0.000  0.000
       0.000 -0.000  0.000  0.998 -0.000
      -0.000 -0.000  0.000 -0.000  0.996
     ------------------------ ATOM   42 ------------------------
     Tr[ns( 42)] (up, down, total) =   4.98377  4.98372  9.96749
     Atomic magnetic moment for atom  42 =   0.00004
     SPIN  1
     eigenvalues:
       0.996  0.996  0.996  0.998  0.998
     eigenvectors (columns):
      -0.009 -0.039  0.053 -0.875 -0.479
       0.513 -0.618 -0.595  0.010 -0.045
      -0.753  0.011 -0.656 -0.004 -0.052
       0.001 -0.005 -0.068 -0.482  0.874
       0.413  0.785 -0.457 -0.038 -0.053
     occupation matrix ns (before diag.):
       0.998  0.000  0.000 -0.000  0.000
       0.000  0.996  0.000 -0.000 -0.000
       0.000  0.000  0.996 -0.000  0.000
      -0.000 -0.000 -0.000  0.998 -0.000
       0.000 -0.000  0.000 -0.000  0.996
     SPIN  2
     eigenvalues:
       0.996  0.996  0.996  0.998  0.998
     eigenvectors (columns):
      -0.013 -0.036  0.059 -0.841 -0.537
       0.533 -0.627 -0.566  0.005 -0.041
      -0.736 -0.014 -0.675 -0.003 -0.051
      -0.001 -0.005 -0.061 -0.540  0.839
       0.417  0.778 -0.466 -0.039 -0.053
     occupation matrix ns (before diag.):
       0.998  0.000  0.000 -0.000  0.000
       0.000  0.996  0.000 -0.000 -0.000
       0.000  0.000  0.996 -0.000  0.000
      -0.000 -0.000 -0.000  0.998 -0.000
       0.000 -0.000  0.000 -0.000  0.996
     ------------------------ ATOM   43 ------------------------
     Tr[ns( 43)] (up, down, total) =   4.98376  4.98369  9.96745
     Atomic magnetic moment for atom  43 =   0.00006
     SPIN  1
     eigenvalues:
       0.996  0.996  0.996  0.998  0.998
     eigenvectors (columns):
      -0.001  0.008 -0.017 -0.866 -0.500
       0.123  0.992  0.000  0.000  0.015
      -0.702  0.087  0.707 -0.014  0.003
      -0.002  0.013  0.010  0.500 -0.866
       0.702 -0.087  0.707 -0.014 -0.003
     occupation matrix ns (before diag.):
       0.998 -0.000  0.000  0.000  0.000
      -0.000  0.996  0.000 -0.000 -0.000
       0.000  0.000  0.996 -0.000  0.000
       0.000 -0.000 -0.000  0.998 -0.000
       0.000 -0.000  0.000 -0.000  0.996
     SPIN  2
     eigenvalues:
       0.996  0.996  0.996  0.998  0.998
     eigenvectors (columns):
      -0.010 -0.011 -0.016  0.500  0.866
      -0.271 -0.962  0.000 -0.027 -0.000
      -0.680  0.192  0.707 -0.009  0.013
      -0.017 -0.020  0.009  0.866 -0.500
       0.680 -0.192  0.707  0.009  0.013
     occupation matrix ns (before diag.):
       0.998 -0.000  0.000 -0.000  0.000
      -0.000  0.996 -0.000 -0.000  0.000
       0.000 -0.000  0.996 -0.000  0.000
      -0.000 -0.000 -0.000  0.998  0.000
       0.000  0.000  0.000  0.000  0.996
     ------------------------ ATOM   44 ------------------------
     Tr[ns( 44)] (up, down, total) =   4.98377  4.98372  9.96749
     Atomic magnetic moment for atom  44 =   0.00004
     SPIN  1
     eigenvalues:
       0.996  0.996  0.996  0.998  0.998
     eigenvectors (columns):
       0.005 -0.015 -0.086 -0.020 -0.996
       0.513  0.618 -0.595 -0.010  0.045
      -0.413  0.785  0.457 -0.038 -0.053
      -0.008  0.036  0.012  0.999 -0.022
       0.753  0.011  0.656 -0.004 -0.052
     occupation matrix ns (before diag.):
       0.998 -0.000  0.000  0.000  0.000
      -0.000  0.996  0.000 -0.000 -0.000
       0.000  0.000  0.996 -0.000  0.000
       0.000 -0.000 -0.000  0.998 -0.000
       0.000 -0.000  0.000 -0.000  0.996
     SPIN  2
     eigenvalues:
       0.996  0.996  0.996  0.998  0.998
     eigenvectors (columns):
       0.006 -0.014 -0.082 -0.047  0.995
       0.533  0.627 -0.566  0.005 -0.041
      -0.417  0.778  0.466  0.039  0.053
      -0.011  0.034  0.021 -0.998 -0.045
       0.736 -0.014  0.675  0.003  0.051
     occupation matrix ns (before diag.):
       0.998 -0.000  0.000 -0.000  0.000
      -0.000  0.996  0.000 -0.000 -0.000
       0.000  0.000  0.996 -0.000  0.000
      -0.000 -0.000 -0.000  0.998 -0.000
       0.000 -0.000  0.000 -0.000  0.996
     ------------------------ ATOM   49 ------------------------
     Tr[ns( 49)] (up, down, total) =   4.98381  4.98376  9.96757
     Atomic magnetic moment for atom  49 =   0.00004
     SPIN  1
     eigenvalues:
       0.996  0.996  0.996  0.998  0.998
     eigenvectors (columns):
      -0.011  0.000  0.017 -0.000  1.000
      -0.666  0.707 -0.236 -0.005 -0.003
      -0.666 -0.707 -0.236  0.005 -0.003
       0.000  0.007 -0.000  1.000  0.000
      -0.334  0.000  0.942 -0.000 -0.019
     occupation matrix ns (before diag.):
       0.998 -0.000 -0.000  0.000 -0.000
      -0.000  0.996 -0.000 -0.000 -0.000
      -0.000 -0.000  0.996  0.000 -0.000
       0.000 -0.000  0.000  0.998 -0.000
      -0.000 -0.000 -0.000 -0.000  0.996
     SPIN  2
     eigenvalues:
       0.996  0.996  0.996  0.998  0.998
     eigenvectors (columns):
      -0.021  0.020 -0.000 -0.000  1.000
      -0.640 -0.301  0.707 -0.004 -0.007
      -0.640 -0.301 -0.707  0.004 -0.007
       0.000  0.000  0.005  1.000  0.000
      -0.426  0.904 -0.000 -0.000 -0.027
     occupation matrix ns (before diag.):
       0.998 -0.000 -0.000  0.000 -0.000
      -0.000  0.996 -0.000 -0.000 -0.000
      -0.000 -0.000  0.996  0.000 -0.000
       0.000 -0.000  0.000  0.998 -0.000
      -0.000 -0.000 -0.000 -0.000  0.996
     ------------------------ ATOM   50 ------------------------
     Tr[ns( 50)] (up, down, total) =   4.98377  4.98372  9.96749
     Atomic magnetic moment for atom  50 =   0.00004
     SPIN  1
     eigenvalues:
       0.996  0.996  0.996  0.998  0.998
     eigenvectors (columns):
       0.004 -0.023  0.033 -0.855 -0.517
      -0.413  0.785  0.457 -0.038  0.053
      -0.753 -0.011 -0.656  0.004 -0.052
       0.008 -0.031 -0.080 -0.517  0.852
      -0.513 -0.618  0.595  0.010  0.045
     occupation matrix ns (before diag.):
       0.998  0.000  0.000 -0.000 -0.000
       0.000  0.996 -0.000  0.000 -0.000
       0.000 -0.000  0.996 -0.000 -0.000
      -0.000  0.000 -0.000  0.998  0.000
      -0.000 -0.000 -0.000  0.000  0.996
     SPIN  2
     eigenvalues:
       0.996  0.996  0.996  0.998  0.998
     eigenvectors (columns):
       0.007 -0.023  0.023 -0.888 -0.459
      -0.417  0.778  0.466 -0.039  0.053
      -0.736  0.014 -0.675  0.003 -0.051
       0.011 -0.029 -0.082 -0.458  0.885
      -0.533 -0.627  0.566  0.005  0.041
     occupation matrix ns (before diag.):
       0.998  0.000  0.000 -0.000 -0.000
       0.000  0.996 -0.000  0.000 -0.000
       0.000 -0.000  0.996 -0.000 -0.000
      -0.000  0.000 -0.000  0.998  0.000
      -0.000 -0.000 -0.000  0.000  0.996
     ------------------------ ATOM   51 ------------------------
     Tr[ns( 51)] (up, down, total) =   4.98377  4.98372  9.96749
     Atomic magnetic moment for atom  51 =   0.00004
     SPIN  1
     eigenvalues:
       0.996  0.996  0.996  0.998  0.998
     eigenvectors (columns):
       0.004 -0.023  0.033 -0.855 -0.517
      -0.753 -0.011 -0.656  0.004 -0.052
      -0.413  0.785  0.457 -0.038  0.053
      -0.008  0.031  0.080  0.517 -0.852
      -0.513 -0.618  0.595  0.010  0.045
     occupation matrix ns (before diag.):
       0.998  0.000  0.000  0.000 -0.000
       0.000  0.996 -0.000  0.000 -0.000
       0.000 -0.000  0.996 -0.000 -0.000
       0.000  0.000 -0.000  0.998 -0.000
      -0.000 -0.000 -0.000 -0.000  0.996
     SPIN  2
     eigenvalues:
       0.996  0.996  0.996  0.998  0.998
     eigenvectors (columns):
       0.007 -0.023  0.023 -0.888 -0.459
      -0.736  0.014 -0.675  0.003 -0.051
      -0.417  0.778  0.466 -0.039  0.053
      -0.011  0.029  0.082  0.458 -0.885
      -0.533 -0.627  0.566  0.005  0.041
     occupation matrix ns (before diag.):
       0.998  0.000  0.000  0.000 -0.000
       0.000  0.996 -0.000  0.000 -0.000
       0.000 -0.000  0.996 -0.000 -0.000
       0.000  0.000 -0.000  0.998 -0.000
      -0.000 -0.000 -0.000 -0.000  0.996
     ------------------------ ATOM   52 ------------------------
     Tr[ns( 52)] (up, down, total) =   4.98376  4.98369  9.96745
     Atomic magnetic moment for atom  52 =   0.00006
     SPIN  1
     eigenvalues:
       0.996  0.996  0.996  0.998  0.998
     eigenvectors (columns):
       0.003  0.015 -0.000 -0.000  1.000
      -0.702 -0.087  0.707  0.014  0.003
      -0.702 -0.087 -0.707 -0.014  0.003
       0.000  0.000 -0.020  1.000  0.000
      -0.123  0.992 -0.000 -0.000 -0.015
     occupation matrix ns (before diag.):
       0.998  0.000  0.000  0.000 -0.000
       0.000  0.996 -0.000  0.000 -0.000
       0.000 -0.000  0.996 -0.000 -0.000
       0.000  0.000 -0.000  0.998 -0.000
      -0.000 -0.000 -0.000 -0.000  0.996
     SPIN  2
     eigenvalues:
       0.996  0.996  0.996  0.998  0.998
     eigenvectors (columns):
       0.020  0.023 -0.000  1.000  0.000
      -0.680  0.192  0.707  0.009  0.013
      -0.680  0.192 -0.707  0.009 -0.013
       0.000  0.000 -0.018 -0.000  1.000
       0.271  0.962 -0.000 -0.027 -0.000
     occupation matrix ns (before diag.):
       0.998  0.000  0.000  0.000 -0.000
       0.000  0.996 -0.000  0.000  0.000
       0.000 -0.000  0.996 -0.000  0.000
       0.000  0.000 -0.000  0.998 -0.000
      -0.000  0.000  0.000 -0.000  0.996
     ------------------------ ATOM   57 ------------------------
     Tr[ns( 57)] (up, down, total) =   4.95449  4.95058  9.90508
     Atomic magnetic moment for atom  57 =   0.00391
     SPIN  1
     eigenvalues:
       0.987  0.987  0.993  0.994  0.994
     eigenvectors (columns):
       0.004  0.004 -0.000 -0.218 -0.976
      -0.162  0.800 -0.577 -0.003  0.003
       0.774 -0.260 -0.577  0.004  0.001
      -0.004  0.004  0.000  0.976 -0.218
       0.612  0.540  0.577  0.001  0.004
     occupation matrix ns (before diag.):
       0.994 -0.000 -0.000  0.000 -0.000
      -0.000  0.989  0.002 -0.000 -0.002
      -0.000  0.002  0.989  0.000 -0.002
       0.000 -0.000  0.000  0.994 -0.000
      -0.000 -0.002 -0.002 -0.000  0.989
     SPIN  2
     eigenvalues:
       0.987  0.988  0.988  0.994  0.994
     eigenvectors (columns):
      -0.000 -0.051 -0.026 -0.202 -0.978
      -0.577 -0.044 -0.814 -0.035  0.031
      -0.577 -0.683  0.445  0.044  0.015
       0.000  0.026 -0.051  0.978 -0.202
       0.577 -0.727 -0.369  0.009  0.045
     occupation matrix ns (before diag.):
       0.994 -0.000 -0.000  0.000 -0.000
      -0.000  0.987 -0.000 -0.000  0.000
      -0.000 -0.000  0.987  0.000  0.000
       0.000 -0.000  0.000  0.994 -0.000
      -0.000  0.000  0.000 -0.000  0.987
     ------------------------ ATOM   58 ------------------------
     Tr[ns( 58)] (up, down, total) =   4.98646  4.98672  9.97318
     Atomic magnetic moment for atom  58 =  -0.00026
     SPIN  1
     eigenvalues:
       0.996  0.996  0.998  0.998  0.998
     eigenvectors (columns):
       0.015  0.024  0.003 -0.866 -0.499
      -0.707  0.395  0.586 -0.012  0.023
       0.000  0.828 -0.559 -0.000  0.037
       0.009 -0.042 -0.005 -0.500  0.865
      -0.707 -0.395 -0.586 -0.012 -0.023
     occupation matrix ns (before diag.):
       0.998  0.000 -0.000 -0.000  0.000
       0.000  0.997 -0.001  0.000 -0.001
      -0.000 -0.001  0.997  0.000  0.001
      -0.000  0.000  0.000  0.998 -0.000
       0.000 -0.001  0.001 -0.000  0.997
     SPIN  2
     eigenvalues:
       0.996  0.996  0.997  0.998  0.998
     eigenvectors (columns):
       0.071 -0.050  0.028 -0.863 -0.497
      -0.705 -0.443 -0.551 -0.058  0.013
       0.000 -0.773  0.624 -0.000  0.114
       0.041  0.087 -0.049 -0.498  0.860
      -0.705  0.443  0.551 -0.058 -0.013
     occupation matrix ns (before diag.):
       0.998  0.000 -0.000 -0.000  0.000
       0.000  0.997 -0.000  0.000 -0.000
      -0.000 -0.000  0.997  0.000  0.000
      -0.000  0.000  0.000  0.998  0.000
       0.000 -0.000  0.000  0.000  0.997
     ------------------------ ATOM   59 ------------------------
     Tr[ns( 59)] (up, down, total) =   4.98646  4.98672  9.97318
     Atomic magnetic moment for atom  59 =  -0.00026
     SPIN  1
     eigenvalues:
       0.996  0.996  0.998  0.998  0.998
     eigenvectors (columns):
      -0.015 -0.024 -0.003 -0.866  0.499
      -0.000 -0.828  0.559 -0.000 -0.037
       0.707 -0.395 -0.586 -0.012 -0.023
       0.009 -0.042 -0.005  0.500  0.865
       0.707  0.395  0.586 -0.012  0.023
     occupation matrix ns (before diag.):
       0.998 -0.000  0.000  0.000  0.000
      -0.000  0.997 -0.001 -0.000  0.001
       0.000 -0.001  0.997 -0.000 -0.001
       0.000 -0.000 -0.000  0.998  0.000
       0.000  0.001 -0.001  0.000  0.997
     SPIN  2
     eigenvalues:
       0.996  0.996  0.997  0.998  0.998
     eigenvectors (columns):
       0.071 -0.050  0.028 -0.863 -0.497
       0.000 -0.773  0.624 -0.000  0.114
      -0.705 -0.443 -0.551 -0.058  0.013
      -0.041 -0.087  0.049  0.498 -0.860
      -0.705  0.443  0.551 -0.058 -0.013
     occupation matrix ns (before diag.):
       0.998 -0.000  0.000  0.000  0.000
      -0.000  0.997 -0.000 -0.000  0.000
       0.000 -0.000  0.997 -0.000 -0.000
       0.000 -0.000 -0.000  0.998 -0.000
       0.000  0.000 -0.000 -0.000  0.997
     ------------------------ ATOM   60 ------------------------
     Tr[ns( 60)] (up, down, total) =   4.98646  4.98672  9.97318
     Atomic magnetic moment for atom  60 =  -0.00026
     SPIN  1
     eigenvalues:
       0.996  0.996  0.998  0.998  0.998
     eigenvectors (columns):
       0.000  0.049 -0.006 -0.000 -0.999
       0.707 -0.395  0.586  0.012 -0.023
      -0.707 -0.395  0.586 -0.012 -0.023
      -0.017  0.000 -0.000  1.000 -0.000
       0.000  0.828  0.559 -0.000  0.037
     occupation matrix ns (before diag.):
       0.998  0.000  0.000  0.000 -0.000
       0.000  0.997  0.001  0.000  0.001
       0.000  0.001  0.997 -0.000  0.001
       0.000  0.000 -0.000  0.998 -0.000
      -0.000  0.001  0.001 -0.000  0.997
     SPIN  2
     eigenvalues:
       0.996  0.996  0.997  0.998  0.998
     eigenvectors (columns):
       0.000  0.101  0.057 -0.000 -0.993
       0.705 -0.443  0.551  0.058 -0.013
      -0.705 -0.443  0.551 -0.058 -0.013
      -0.081  0.000 -0.000  0.997 -0.000
       0.000  0.773  0.624  0.000  0.114
     occupation matrix ns (before diag.):
       0.998  0.000  0.000  0.000 -0.000
       0.000  0.997  0.000  0.000  0.000
       0.000  0.000  0.997 -0.000  0.000
       0.000  0.000 -0.000  0.998 -0.000
      -0.000  0.000  0.000 -0.000  0.997

     Number of occupied Hubbard levels =  318.9106

     Atomic wfc used for Hubbard projectors are orthogonalized

     Starting wfcs are  413 randomized atomic wfcs
     Checking if some PAW data can be deallocated... 
       PAW data deallocated on  740 nodes for type:  1
       PAW data deallocated on  739 nodes for type:  2
       PAW data deallocated on 1433 nodes for type:  3

     Band Structure Calculation
     Davidson diagonalization with overlap

     Computing kpt #:     1  of     2 on this pool
     total cpu time spent up to now is       86.2 secs

     Computing kpt #:     2  of     2 on this pool
     c_bands:  1 eigenvalues not converged
     total cpu time spent up to now is      162.1 secs

     ethr =  1.73E-12,  avg # of iterations = 90.4

     total cpu time spent up to now is      162.4 secs

     End of band structure calculation

 ------ SPIN UP ------------


          k = 0.0000 0.0000 0.0000 (269825 PWs)   bands (ev):

  -103.7858 -61.2635 -61.1820 -61.1820  -7.6064  -7.2307  -7.2307  -7.1926
    -7.1851  -7.1851  -7.1262  -7.0570  -7.0570  -7.0161  -7.0014  -6.9611
    -6.9611  -6.9282  -6.9266  -6.9266  -6.9114  -6.9114  -6.8948  -6.8575
    -6.8575  -6.8237  -6.7767  -6.7767  -6.7288  -6.7076  -6.6865  -6.6865
    -6.4520  -6.3204  -6.3204  -3.9906  -3.9731  -3.9731  -3.9703  -3.9566
    -3.9566  -3.9481  -3.9481  -3.9392  -3.9390  -3.9287  -3.9287  -3.9142
    -3.9095  -3.9095  -3.7977  -3.7977  -3.7953  -3.7725  -3.7725  -3.7664
    -3.7637  -3.7603  -3.7603  -3.7532  -3.7532  -3.7473  -3.7473  -3.7458
    -3.7400  -3.7400  -3.7379  -3.7341  -3.7315  -3.7315  -3.7288  -3.7207
    -3.7207  -3.7207  -3.7143  -3.7143  -3.7063  -3.6987  -3.6987  -3.6936
    -3.6879  -3.6879  -3.6851  -3.6806  -3.6806  -3.6784  -3.6698  -3.6652
    -3.6652  -3.6579  -3.6579  -3.6561  -3.6561  -3.6532  -3.6468  -3.6452
    -3.6452  -3.6387  -3.6387  -3.6275  -3.6275  -3.6258  -3.6254  -3.6134
    -3.6134  -3.6118  -3.6065  -3.6007  -3.6002  -3.6002  -3.5962  -3.5885
    -3.5885  -3.5872  -3.5872  -3.5862  -3.5833  -3.5828  -3.5786  -3.5786
    -3.5755  -3.5755  -3.5752  -3.5752  -3.5655  -3.5621  -3.5621  -3.5616
    -3.5527  -3.5527  -3.5511  -3.5440  -3.5400  -3.5400  -3.5299  -3.5287
    -3.5287  -3.5151  -3.5151  -3.5025  -3.5025  -3.5005  -3.5005  -3.4965
    -3.4965  -3.4960  -3.4860  -3.4791  -3.4560  -3.4538  -3.4538  -3.4378
    -3.4378  -3.4358  -3.4246  -3.4232  -3.4232  -3.4169  -3.4169  -3.4136
    -3.4136  -3.4091  -3.4032  -3.3972  -3.3972  -3.3864  -3.2516  -3.2484
    -3.2484  -3.2347  -3.2347  -3.2297  -3.2018  -3.2018  -3.1853  -3.1853
    -3.1805  -3.1257  -3.1066  -3.1066  -3.0737  -3.0149  -3.0149  -2.9805
    -2.8953  -2.8674  -2.8674  -2.8662  -2.8417  -2.8417   0.2346   0.2806
     0.3061   0.3061   0.6381   0.6435   0.6435   0.8413   0.8529   0.8529
     0.8651   0.9057   0.9057   1.0830   1.2082   1.2082   1.2422   1.2422
     1.2999   1.3031   1.3079   1.3079   1.4195   1.4195   1.8694   2.1959
     2.1959   2.3009   2.3883   2.3883   2.5026   2.5186   2.5186   2.5460
     2.5605   2.5605   2.6499   2.6720   2.6720   2.6843   2.6843   2.6983
     2.7030   2.7030   2.7116   2.7678   2.7736   2.7736   2.8080   2.8361
     2.8361   2.9404   2.9793   2.9946   2.9946   3.0671   3.0671   3.1810
     3.1903   3.2533   3.2533   3.3033   3.3033   3.5261   3.5261   3.6886
     4.0139   4.0139   4.0212   4.0332   4.0742   4.0742   4.1255   4.1255
     4.1362   4.2052   4.2704   4.2704   4.2903   4.2903   4.2962   4.3158
     4.3158   4.3375   4.3872   4.3872   4.3922   4.3951   4.4056   4.4056
     4.5313   4.6139   4.6139   4.9066   4.9066   5.1476   5.3837   5.3837
     5.9004   7.7347   8.2488   8.2488   8.7345   8.7561   8.7561   8.8111
     8.9098   8.9098   9.0736   9.3473   9.5199   9.5277   9.5277   9.8687
     9.8687   9.9617   9.9685   9.9685  10.0024  10.0147  10.0147  10.0251
    10.0449  10.0449  10.1871  10.1871  10.1965  10.2176  10.2176  10.2414
    10.2414  10.2485  10.2861  10.6008  10.6008  10.6955  11.0679  11.1433
    11.1433  11.1809  11.1809  11.3118  11.3562  11.3562  11.3697  11.6368
    11.6618  11.6618  11.8534  11.8678  11.8697  11.8697  12.0398  12.0398
    12.0475  12.0615  12.0615

     occupation numbers 
     1.0000   1.0000   1.0000   1.0000   1.0000   1.0000   1.0000   1.0000
     1.0000   1.0000   1.0000   1.0000   1.0000   1.0000   1.0000   1.0000
     1.0000   1.0000   1.0000   1.0000   1.0000   1.0000   1.0000   1.0000
     1.0000   1.0000   1.0000   1.0000   1.0000   1.0000   1.0000   1.0000
     1.0000   1.0000   1.0000   1.0000   1.0000   1.0000   1.0000   1.0000
     1.0000   1.0000   1.0000   1.0000   1.0000   1.0000   1.0000   1.0000
     1.0000   1.0000   1.0000   1.0000   1.0000   1.0000   1.0000   1.0000
     1.0000   1.0000   1.0000   1.0000   1.0000   1.0000   1.0000   1.0000
     1.0000   1.0000   1.0000   1.0000   1.0000   1.0000   1.0000   1.0000
     1.0000   1.0000   1.0000   1.0000   1.0000   1.0000   1.0000   1.0000
     1.0000   1.0000   1.0000   1.0000   1.0000   1.0000   1.0000   1.0000
     1.0000   1.0000   1.0000   1.0000   1.0000   1.0000   1.0000   1.0000
     1.0000   1.0000   1.0000   1.0000   1.0000   1.0000   1.0000   1.0000
     1.0000   1.0000   1.0000   1.0000   1.0000   1.0000   1.0000   1.0000
     1.0000   1.0000   1.0000   1.0000   1.0000   1.0000   1.0000   1.0000
     1.0000   1.0000   1.0000   1.0000   1.0000   1.0000   1.0000   1.0000
     1.0000   1.0000   1.0000   1.0000   1.0000   1.0000   1.0000   1.0000
     1.0000   1.0000   1.0000   1.0000   1.0000   1.0000   1.0000   1.0000
     1.0000   1.0000   1.0000   1.0000   1.0000   1.0000   1.0000   1.0000
     1.0000   1.0000   1.0000   1.0000   1.0000   1.0000   1.0000   1.0000
     1.0000   1.0000   1.0000   1.0000   1.0000   1.0000   1.0000   1.0000
     1.0000   1.0000   1.0000   1.0000   1.0000   1.0000   1.0000   1.0000
     1.0000   1.0000   1.0000   1.0000   1.0000   1.0000   1.0000   1.0000
     1.0000   1.0000   1.0000   1.0000   1.0000   1.0000   1.0000   1.0000
     1.0000   1.0000   1.0000   1.0000   1.0000   1.0000   1.0000   1.0000
     1.0000   1.0000   1.0000   1.0000   1.0000   1.0000   1.0000   1.0000
     1.0000   1.0000   1.0000   1.0000   1.0000   1.0000   1.0000   1.0000
     1.0000   1.0000   1.0000   1.0000   1.0000   1.0000   1.0000   1.0000
     1.0000   1.0000   1.0000   1.0000   1.0000   1.0000   1.0000   1.0000
     1.0000   1.0000   1.0000   1.0000   1.0000   1.0000   1.0000   1.0000
     1.0000   1.0000   1.0000   1.0000   1.0000   1.0000   1.0000   1.0000
     1.0000   1.0000   1.0000   1.0000   1.0000   1.0000   1.0000   1.0000
     1.0000   1.0000   1.0000   1.0000   1.0000   1.0000   1.0000   1.0000
     1.0000   1.0000   1.0000   1.0000   1.0000   1.0000   1.0000   1.0000
     1.0000   1.0000   1.0000   1.0000   1.0000   1.0000   1.0000   1.0000
     1.0000   1.0000   1.0000   1.0000   1.0000   1.0000   1.0000   1.0000
     1.0000   0.0000   0.0000   0.0000   0.0000   0.0000   0.0000   0.0000
     0.0000   0.0000   0.0000   0.0000   0.0000   0.0000   0.0000   0.0000
     0.0000   0.0000   0.0000   0.0000   0.0000   0.0000   0.0000   0.0000
     0.0000   0.0000   0.0000   0.0000   0.0000   0.0000   0.0000   0.0000
     0.0000   0.0000   0.0000   0.0000   0.0000   0.0000   0.0000   0.0000
     0.0000   0.0000   0.0000   0.0000   0.0000   0.0000   0.0000   0.0000
     0.0000   0.0000   0.0000   0.0000   0.0000   0.0000   0.0000   0.0000
     0.0000   0.0000   0.0000

          k = 0.0000 0.0000 0.2500 (269876 PWs)   bands (ev):

  -103.7858 -61.2635 -61.1820 -61.1820  -7.5769  -7.3491  -7.2167  -7.1847
    -7.1731  -7.1437  -7.0889  -7.0874  -7.0567  -7.0297  -7.0083  -6.9842
    -6.9801  -6.9284  -6.9183  -6.9104  -6.9015  -6.8918  -6.8732  -6.8506
    -6.8436  -6.8108  -6.7844  -6.7727  -6.7356  -6.7199  -6.6959  -6.6926
    -6.4491  -6.3235  -6.3208  -3.9903  -3.9735  -3.9730  -3.9696  -3.9569
    -3.9562  -3.9483  -3.9479  -3.9395  -3.9383  -3.9285  -3.9281  -3.9143
    -3.9096  -3.9093  -3.7964  -3.7956  -3.7914  -3.7731  -3.7713  -3.7683
    -3.7653  -3.7634  -3.7590  -3.7572  -3.7554  -3.7537  -3.7531  -3.7481
    -3.7457  -3.7397  -3.7377  -3.7334  -3.7331  -3.7287  -3.7253  -3.7229
    -3.7161  -3.7156  -3.7113  -3.7111  -3.7062  -3.7014  -3.7006  -3.6971
    -3.6912  -3.6893  -3.6814  -3.6811  -3.6770  -3.6751  -3.6719  -3.6663
    -3.6619  -3.6603  -3.6593  -3.6568  -3.6514  -3.6507  -3.6484  -3.6449
    -3.6414  -3.6394  -3.6366  -3.6297  -3.6275  -3.6247  -3.6246  -3.6193
    -3.6173  -3.6124  -3.6111  -3.6041  -3.6018  -3.6014  -3.5981  -3.5952
    -3.5875  -3.5869  -3.5866  -3.5836  -3.5830  -3.5786  -3.5771  -3.5751
    -3.5724  -3.5719  -3.5694  -3.5673  -3.5663  -3.5621  -3.5600  -3.5597
    -3.5530  -3.5499  -3.5462  -3.5436  -3.5386  -3.5385  -3.5331  -3.5295
    -3.5272  -3.5120  -3.5099  -3.5069  -3.5064  -3.4998  -3.4986  -3.4954
    -3.4897  -3.4832  -3.4765  -3.4639  -3.4545  -3.4519  -3.4472  -3.4388
    -3.4368  -3.4307  -3.4248  -3.4246  -3.4169  -3.4158  -3.4143  -3.4142
    -3.4091  -3.4040  -3.4010  -3.3969  -3.3882  -3.3826  -3.3382  -3.3374
    -3.3321  -3.2852  -3.2206  -3.2158  -3.2137  -3.1631  -3.1478  -3.1335
    -3.1240  -3.0863  -3.0760  -3.0712  -3.0697  -3.0490  -2.9974  -2.9713
    -2.9085  -2.8915  -2.8869  -2.8846  -2.8622  -2.8621   0.3299   0.3788
     0.4010   0.4069   0.6574   0.6685   0.7332   0.7930   0.8302   0.8544
     0.8590   0.8832   0.9106   0.9986   1.0252   1.0315   1.0561   1.0746
     1.1050   1.1398   1.3755   1.5607   1.5983   1.6405   1.7203   2.0053
     2.1393   2.1608   2.3027   2.3273   2.3589   2.3891   2.4249   2.4259
     2.4364   2.4983   2.5328   2.5443   2.5904   2.6778   2.7438   2.7568
     2.7663   2.8231   2.8390   2.9551   2.9621   3.0403   3.0416   3.0722
     3.0852   3.0902   3.0980   3.1518   3.1751   3.1917   3.1943   3.2071
     3.2568   3.2787   3.3467   3.3799   3.4603   3.5512   3.5631   3.6841
     3.8024   3.8124   3.9468   3.9527   3.9836   4.0334   4.0493   4.0818
     4.1239   4.1259   4.1499   4.1787   4.1921   4.2198   4.2529   4.2851
     4.3157   4.3184   4.3559   4.3888   4.4011   4.4157   4.4396   4.4598
     4.5266   4.5484   4.6178   4.7072   4.8630   4.9908   5.2440   5.3384
     6.0915   7.8962   8.2186   8.2586   8.8917   8.9306   8.9643   8.9718
     9.0585   9.1277   9.1452   9.4026   9.5052   9.6090   9.6504   9.7170
     9.7357   9.9230   9.9280   9.9697   9.9764   9.9937  10.0741  10.0885
    10.1018  10.1566  10.1607  10.2075  10.2112  10.2486  10.2774  10.2912
    10.3480  10.3573  10.5007  10.5469  10.5661  10.6644  10.6952  10.7981
    10.9102  10.9588  10.9829  11.1255  11.2137  11.2639  11.4576  11.5297
    11.5975  11.6053  11.6711  11.7255  11.7455  11.7786  11.8062  11.8811
    11.8977  11.9154  11.9261

     occupation numbers 
     1.0000   1.0000   1.0000   1.0000   1.0000   1.0000   1.0000   1.0000
     1.0000   1.0000   1.0000   1.0000   1.0000   1.0000   1.0000   1.0000
     1.0000   1.0000   1.0000   1.0000   1.0000   1.0000   1.0000   1.0000
     1.0000   1.0000   1.0000   1.0000   1.0000   1.0000   1.0000   1.0000
     1.0000   1.0000   1.0000   1.0000   1.0000   1.0000   1.0000   1.0000
     1.0000   1.0000   1.0000   1.0000   1.0000   1.0000   1.0000   1.0000
     1.0000   1.0000   1.0000   1.0000   1.0000   1.0000   1.0000   1.0000
     1.0000   1.0000   1.0000   1.0000   1.0000   1.0000   1.0000   1.0000
     1.0000   1.0000   1.0000   1.0000   1.0000   1.0000   1.0000   1.0000
     1.0000   1.0000   1.0000   1.0000   1.0000   1.0000   1.0000   1.0000
     1.0000   1.0000   1.0000   1.0000   1.0000   1.0000   1.0000   1.0000
     1.0000   1.0000   1.0000   1.0000   1.0000   1.0000   1.0000   1.0000
     1.0000   1.0000   1.0000   1.0000   1.0000   1.0000   1.0000   1.0000
     1.0000   1.0000   1.0000   1.0000   1.0000   1.0000   1.0000   1.0000
     1.0000   1.0000   1.0000   1.0000   1.0000   1.0000   1.0000   1.0000
     1.0000   1.0000   1.0000   1.0000   1.0000   1.0000   1.0000   1.0000
     1.0000   1.0000   1.0000   1.0000   1.0000   1.0000   1.0000   1.0000
     1.0000   1.0000   1.0000   1.0000   1.0000   1.0000   1.0000   1.0000
     1.0000   1.0000   1.0000   1.0000   1.0000   1.0000   1.0000   1.0000
     1.0000   1.0000   1.0000   1.0000   1.0000   1.0000   1.0000   1.0000
     1.0000   1.0000   1.0000   1.0000   1.0000   1.0000   1.0000   1.0000
     1.0000   1.0000   1.0000   1.0000   1.0000   1.0000   1.0000   1.0000
     1.0000   1.0000   1.0000   1.0000   1.0000   1.0000   1.0000   1.0000
     1.0000   1.0000   1.0000   1.0000   1.0000   1.0000   1.0000   1.0000
     1.0000   1.0000   1.0000   1.0000   1.0000   1.0000   1.0000   1.0000
     1.0000   1.0000   1.0000   1.0000   1.0000   1.0000   1.0000   1.0000
     1.0000   1.0000   1.0000   1.0000   1.0000   1.0000   1.0000   1.0000
     1.0000   1.0000   1.0000   1.0000   1.0000   1.0000   1.0000   1.0000
     1.0000   1.0000   1.0000   1.0000   1.0000   1.0000   1.0000   1.0000
     1.0000   1.0000   1.0000   1.0000   1.0000   1.0000   1.0000   1.0000
     1.0000   1.0000   1.0000   1.0000   1.0000   1.0000   1.0000   1.0000
     1.0000   1.0000   1.0000   1.0000   1.0000   1.0000   1.0000   1.0000
     1.0000   1.0000   1.0000   1.0000   1.0000   1.0000   1.0000   1.0000
     1.0000   1.0000   1.0000   1.0000   1.0000   1.0000   1.0000   1.0000
     1.0000   1.0000   1.0000   1.0000   1.0000   1.0000   1.0000   1.0000
     1.0000   1.0000   1.0000   1.0000   1.0000   1.0000   1.0000   1.0000
     1.0000   0.0000   0.0000   0.0000   0.0000   0.0000   0.0000   0.0000
     0.0000   0.0000   0.0000   0.0000   0.0000   0.0000   0.0000   0.0000
     0.0000   0.0000   0.0000   0.0000   0.0000   0.0000   0.0000   0.0000
     0.0000   0.0000   0.0000   0.0000   0.0000   0.0000   0.0000   0.0000
     0.0000   0.0000   0.0000   0.0000   0.0000   0.0000   0.0000   0.0000
     0.0000   0.0000   0.0000   0.0000   0.0000   0.0000   0.0000   0.0000
     0.0000   0.0000   0.0000   0.0000   0.0000   0.0000   0.0000   0.0000
     0.0000   0.0000   0.0000

          k = 0.0000 0.0000-0.5000 (270152 PWs)   bands (ev):

  -103.7858 -61.2635 -61.1820 -61.1820  -7.5161  -7.4518  -7.1953  -7.1657
    -7.1545  -7.1271  -7.1260  -7.1140  -7.0584  -7.0582  -6.9988  -6.9925
    -6.9486  -6.9325  -6.9152  -6.9024  -6.8975  -6.8856  -6.8547  -6.8450
    -6.8291  -6.8020  -6.7700  -6.7666  -6.7551  -6.7391  -6.7100  -6.6957
    -6.4461  -6.3268  -6.3211  -3.9900  -3.9739  -3.9729  -3.9689  -3.9572
    -3.9559  -3.9485  -3.9478  -3.9399  -3.9376  -3.9284  -3.9274  -3.9144
    -3.9098  -3.9092  -3.7946  -3.7934  -3.7830  -3.7751  -3.7744  -3.7699
    -3.7669  -3.7652  -3.7632  -3.7602  -3.7561  -3.7560  -3.7545  -3.7542
    -3.7480  -3.7410  -3.7379  -3.7347  -3.7340  -3.7303  -3.7272  -3.7221
    -3.7148  -3.7131  -3.7087  -3.7078  -3.7053  -3.6994  -3.6944  -3.6933
    -3.6921  -3.6908  -3.6875  -3.6802  -3.6790  -3.6721  -3.6692  -3.6668
    -3.6615  -3.6605  -3.6587  -3.6582  -3.6520  -3.6512  -3.6498  -3.6417
    -3.6386  -3.6385  -3.6321  -3.6300  -3.6275  -3.6254  -3.6234  -3.6213
    -3.6190  -3.6151  -3.6141  -3.6116  -3.6062  -3.6005  -3.5977  -3.5952
    -3.5901  -3.5872  -3.5848  -3.5809  -3.5797  -3.5762  -3.5761  -3.5716
    -3.5703  -3.5673  -3.5670  -3.5637  -3.5613  -3.5605  -3.5584  -3.5537
    -3.5515  -3.5512  -3.5445  -3.5429  -3.5404  -3.5403  -3.5357  -3.5243
    -3.5240  -3.5144  -3.5137  -3.5060  -3.5056  -3.4996  -3.4915  -3.4832
    -3.4816  -3.4700  -3.4641  -3.4528  -3.4518  -3.4490  -3.4476  -3.4396
    -3.4378  -3.4334  -3.4301  -3.4265  -3.4196  -3.4120  -3.4119  -3.4097
    -3.4084  -3.4053  -3.4021  -3.3981  -3.3937  -3.3888  -3.3885  -3.3824
    -3.3633  -3.2422  -3.2106  -3.2071  -3.2040  -3.1944  -3.1559  -3.1555
    -3.1381  -3.1244  -3.0461  -3.0116  -2.9924  -2.9848  -2.9547  -2.9516
    -2.9489  -2.9303  -2.9294  -2.9182  -2.8915  -2.8870   0.4902   0.5984
     0.6331   0.6441   0.6611   0.6874   0.6875   0.6971   0.7268   0.7489
     0.7608   0.8102   0.8838   0.8873   0.9083   0.9191   0.9599   1.0051
     1.0286   1.1572   1.1835   1.5295   1.7552   1.8396   1.9235   1.9993
     2.0122   2.0396   2.0487   2.2734   2.2843   2.3054   2.3136   2.3285
     2.3922   2.4207   2.4961   2.5016   2.6218   2.6776   2.6996   2.7909
[...]
    10.0403  10.0877  10.1208  10.1418  10.2056  10.2229  10.2991  10.3274
    10.4332  10.5489  10.5811  10.6193  10.6421  10.7409  10.7643  10.7804
    10.8243  10.9114  10.9319  10.9944  11.1519  11.2559  11.3274  11.3762
    11.4396  11.5184  11.5712  11.6306  11.6883  11.7077  11.7119  11.7821
    11.8148  11.8329  11.8496

     occupation numbers 
     1.0000   1.0000   1.0000   1.0000   1.0000   1.0000   1.0000   1.0000
     1.0000   1.0000   1.0000   1.0000   1.0000   1.0000   1.0000   1.0000
     1.0000   1.0000   1.0000   1.0000   1.0000   1.0000   1.0000   1.0000
     1.0000   1.0000   1.0000   1.0000   1.0000   1.0000   1.0000   1.0000
     1.0000   1.0000   1.0000   1.0000   1.0000   1.0000   1.0000   1.0000
     1.0000   1.0000   1.0000   1.0000   1.0000   1.0000   1.0000   1.0000
     1.0000   1.0000   1.0000   1.0000   1.0000   1.0000   1.0000   1.0000
     1.0000   1.0000   1.0000   1.0000   1.0000   1.0000   1.0000   1.0000
     1.0000   1.0000   1.0000   1.0000   1.0000   1.0000   1.0000   1.0000
     1.0000   1.0000   1.0000   1.0000   1.0000   1.0000   1.0000   1.0000
     1.0000   1.0000   1.0000   1.0000   1.0000   1.0000   1.0000   1.0000
     1.0000   1.0000   1.0000   1.0000   1.0000   1.0000   1.0000   1.0000
     1.0000   1.0000   1.0000   1.0000   1.0000   1.0000   1.0000   1.0000
     1.0000   1.0000   1.0000   1.0000   1.0000   1.0000   1.0000   1.0000
     1.0000   1.0000   1.0000   1.0000   1.0000   1.0000   1.0000   1.0000
     1.0000   1.0000   1.0000   1.0000   1.0000   1.0000   1.0000   1.0000
     1.0000   1.0000   1.0000   1.0000   1.0000   1.0000   1.0000   1.0000
     1.0000   1.0000   1.0000   1.0000   1.0000   1.0000   1.0000   1.0000
     1.0000   1.0000   1.0000   1.0000   1.0000   1.0000   1.0000   1.0000
     1.0000   1.0000   1.0000   1.0000   1.0000   1.0000   1.0000   1.0000
     1.0000   1.0000   1.0000   1.0000   1.0000   1.0000   1.0000   1.0000
     1.0000   1.0000   1.0000   1.0000   1.0000   1.0000   1.0000   1.0000
     1.0000   1.0000   1.0000   1.0000   1.0000   1.0000   1.0000   1.0000
     1.0000   1.0000   1.0000   1.0000   1.0000   1.0000   1.0000   1.0000
     1.0000   1.0000   1.0000   1.0000   1.0000   1.0000   1.0000   1.0000
     1.0000   1.0000   1.0000   1.0000   1.0000   1.0000   1.0000   1.0000
     1.0000   1.0000   1.0000   1.0000   1.0000   1.0000   1.0000   1.0000
     1.0000   1.0000   1.0000   1.0000   1.0000   1.0000   1.0000   1.0000
     1.0000   1.0000   1.0000   1.0000   1.0000   1.0000   1.0000   1.0000
     1.0000   1.0000   1.0000   1.0000   1.0000   1.0000   1.0000   1.0000
     1.0000   1.0000   1.0000   1.0000   1.0000   1.0000   1.0000   1.0000
     1.0000   1.0000   1.0000   1.0000   1.0000   1.0000   1.0000   1.0000
     1.0000   1.0000   1.0000   1.0000   1.0000   1.0000   1.0000   1.0000
     1.0000   1.0000   1.0000   1.0000   1.0000   1.0000   1.0000   1.0000
     1.0000   1.0000   1.0000   1.0000   1.0000   1.0000   1.0000   1.0000
     1.0000   1.0000   1.0000   1.0000   1.0000   1.0000   1.0000   1.0000
     0.0000   0.0000   0.0000   0.0000   0.0000   0.0000   0.0000   0.0000
     0.0000   0.0000   0.0000   0.0000   0.0000   0.0000   0.0000   0.0000
     0.0000   0.0000   0.0000   0.0000   0.0000   0.0000   0.0000   0.0000
     0.0000   0.0000   0.0000   0.0000   0.0000   0.0000   0.0000   0.0000
     0.0000   0.0000   0.0000   0.0000   0.0000   0.0000   0.0000   0.0000
     0.0000   0.0000   0.0000   0.0000   0.0000   0.0000   0.0000   0.0000
     0.0000   0.0000   0.0000   0.0000   0.0000   0.0000   0.0000   0.0000
     0.0000   0.0000   0.0000

          k = 0.2500-0.2500 0.2500 (269935 PWs)   bands (ev):

  -103.7795 -61.2483 -61.1800 -61.1800  -7.5109  -7.3146  -7.3066  -7.2673
    -7.1632  -7.1457  -7.0958  -7.0283  -7.0255  -7.0022  -6.9926  -6.9754
    -6.9440  -6.9288  -6.8901  -6.8828  -6.8749  -6.8634  -6.8622  -6.8307
    -6.8295  -6.8008  -6.7846  -6.7724  -6.7452  -6.7327  -6.7125  -6.7117
    -6.4367  -6.3178  -6.3177  -3.9561  -3.9532  -3.9526  -3.9476  -3.9427
    -3.9422  -3.9300  -3.9196  -3.9187  -3.9182  -3.9105  -3.9097  -3.8971
    -3.8954  -3.8947  -3.7918  -3.7917  -3.7851  -3.7728  -3.7719  -3.7702
    -3.7669  -3.7636  -3.7603  -3.7587  -3.7545  -3.7542  -3.7516  -3.7510
    -3.7425  -3.7378  -3.7351  -3.7283  -3.7269  -3.7213  -3.7203  -3.7187
    -3.7151  -3.7106  -3.7101  -3.7025  -3.6989  -3.6968  -3.6951  -3.6920
    -3.6919  -3.6880  -3.6855  -3.6807  -3.6758  -3.6715  -3.6710  -3.6663
    -3.6659  -3.6593  -3.6568  -3.6530  -3.6522  -3.6509  -3.6484  -3.6413
    -3.6400  -3.6368  -3.6341  -3.6325  -3.6265  -3.6239  -3.6222  -3.6209
    -3.6197  -3.6143  -3.6112  -3.6073  -3.6070  -3.6037  -3.6003  -3.5975
    -3.5935  -3.5914  -3.5876  -3.5846  -3.5826  -3.5794  -3.5747  -3.5706
    -3.5693  -3.5675  -3.5674  -3.5637  -3.5619  -3.5598  -3.5556  -3.5550
    -3.5538  -3.5510  -3.5479  -3.5424  -3.5414  -3.5379  -3.5372  -3.5343
    -3.5280  -3.5147  -3.5137  -3.5124  -3.5113  -3.5061  -3.5009  -3.5000
    -3.4834  -3.4722  -3.4662  -3.4553  -3.4553  -3.4436  -3.4435  -3.4403
    -3.4386  -3.4302  -3.4253  -3.4247  -3.4176  -3.4157  -3.4083  -3.4062
    -3.4060  -3.3998  -3.3995  -3.3932  -3.3885  -3.3874  -3.3486  -3.3427
    -3.3146  -3.2905  -3.2108  -3.2030  -3.1781  -3.1635  -3.1500  -3.1220
    -3.1053  -3.0772  -3.0466  -3.0403  -3.0391  -2.9988  -2.9930  -2.9791
    -2.9294  -2.9258  -2.9210  -2.9070  -2.9013  -2.8991   0.4262   0.4750
     0.4913   0.6890   0.7269   0.7353   0.7728   0.7809   0.7894   0.8330
     0.8418   0.8597   0.8717   0.8915   0.9113   0.9915   1.0396   1.0933
     1.0946   1.1129   1.2135   1.4035   1.5812   1.6208   1.7010   1.8254
     1.8263   2.1353   2.3095   2.3707   2.3915   2.4518   2.4795   2.4968
     2.5358   2.5386   2.5737   2.6008   2.6019   2.7203   2.7779   2.7909
     2.8844   2.9516   2.9667   2.9948   3.0058   3.0252   3.0921   3.1457
     3.1774   3.2022   3.2045   3.2691   3.2823   3.3033   3.3290   3.3421
     3.3735   3.4364   3.4403   3.5317   3.5391   3.6684   3.6939   3.7359
     3.7805   3.7840   3.8004   3.8394   3.8811   3.9101   3.9355   3.9441
     3.9691   3.9741   4.0117   4.0263   4.0684   4.0914   4.0941   4.1531
     4.2186   4.2932   4.3422   4.4047   4.4177   4.4841   4.4964   4.5142
     4.5538   4.6029   4.7207   4.7406   4.9319   5.0173   5.1478   5.3270
     6.7313   8.0491   8.4527   8.6148   8.8733   9.0924   9.2586   9.2607
     9.2842   9.3833   9.3931   9.4556   9.4919   9.5564   9.5988   9.6073
     9.6582   9.7891   9.8311   9.8931   9.9257  10.0215  10.0235  10.0770
    10.1203  10.1311  10.2025  10.2066  10.2228  10.2426  10.2634  10.2748
    10.2862  10.3113  10.3271  10.3571  10.4328  10.5328  10.7428  10.8194
    10.9928  11.0538  11.0863  11.1387  11.3105  11.3117  11.3431  11.3705
    11.3873  11.4195  11.4427  11.5385  11.5393  11.5996  11.7350  11.7451
    11.7740  11.8196  11.8330

     occupation numbers 
     1.0000   1.0000   1.0000   1.0000   1.0000   1.0000   1.0000   1.0000
     1.0000   1.0000   1.0000   1.0000   1.0000   1.0000   1.0000   1.0000
     1.0000   1.0000   1.0000   1.0000   1.0000   1.0000   1.0000   1.0000
     1.0000   1.0000   1.0000   1.0000   1.0000   1.0000   1.0000   1.0000
     1.0000   1.0000   1.0000   1.0000   1.0000   1.0000   1.0000   1.0000
     1.0000   1.0000   1.0000   1.0000   1.0000   1.0000   1.0000   1.0000
     1.0000   1.0000   1.0000   1.0000   1.0000   1.0000   1.0000   1.0000
     1.0000   1.0000   1.0000   1.0000   1.0000   1.0000   1.0000   1.0000
     1.0000   1.0000   1.0000   1.0000   1.0000   1.0000   1.0000   1.0000
     1.0000   1.0000   1.0000   1.0000   1.0000   1.0000   1.0000   1.0000
     1.0000   1.0000   1.0000   1.0000   1.0000   1.0000   1.0000   1.0000
     1.0000   1.0000   1.0000   1.0000   1.0000   1.0000   1.0000   1.0000
     1.0000   1.0000   1.0000   1.0000   1.0000   1.0000   1.0000   1.0000
     1.0000   1.0000   1.0000   1.0000   1.0000   1.0000   1.0000   1.0000
     1.0000   1.0000   1.0000   1.0000   1.0000   1.0000   1.0000   1.0000
     1.0000   1.0000   1.0000   1.0000   1.0000   1.0000   1.0000   1.0000
     1.0000   1.0000   1.0000   1.0000   1.0000   1.0000   1.0000   1.0000
     1.0000   1.0000   1.0000   1.0000   1.0000   1.0000   1.0000   1.0000
     1.0000   1.0000   1.0000   1.0000   1.0000   1.0000   1.0000   1.0000
     1.0000   1.0000   1.0000   1.0000   1.0000   1.0000   1.0000   1.0000
     1.0000   1.0000   1.0000   1.0000   1.0000   1.0000   1.0000   1.0000
     1.0000   1.0000   1.0000   1.0000   1.0000   1.0000   1.0000   1.0000
     1.0000   1.0000   1.0000   1.0000   1.0000   1.0000   1.0000   1.0000
     1.0000   1.0000   1.0000   1.0000   1.0000   1.0000   1.0000   1.0000
     1.0000   1.0000   1.0000   1.0000   1.0000   1.0000   1.0000   1.0000
     1.0000   1.0000   1.0000   1.0000   1.0000   1.0000   1.0000   1.0000
     1.0000   1.0000   1.0000   1.0000   1.0000   1.0000   1.0000   1.0000
     1.0000   1.0000   1.0000   1.0000   1.0000   1.0000   1.0000   1.0000
     1.0000   1.0000   1.0000   1.0000   1.0000   1.0000   1.0000   1.0000
     1.0000   1.0000   1.0000   1.0000   1.0000   1.0000   1.0000   1.0000
     1.0000   1.0000   1.0000   1.0000   1.0000   1.0000   1.0000   1.0000
     1.0000   1.0000   1.0000   1.0000   1.0000   1.0000   1.0000   1.0000
     1.0000   1.0000   1.0000   1.0000   1.0000   1.0000   1.0000   1.0000
     1.0000   1.0000   1.0000   1.0000   1.0000   1.0000   1.0000   1.0000
     1.0000   1.0000   1.0000   1.0000   1.0000   1.0000   1.0000   1.0000
     1.0000   1.0000   1.0000   1.0000   1.0000   1.0000   1.0000   1.0000
     0.0000   0.0000   0.0000   0.0000   0.0000   0.0000   0.0000   0.0000
     0.0000   0.0000   0.0000   0.0000   0.0000   0.0000   0.0000   0.0000
     0.0000   0.0000   0.0000   0.0000   0.0000   0.0000   0.0000   0.0000
     0.0000   0.0000   0.0000   0.0000   0.0000   0.0000   0.0000   0.0000
     0.0000   0.0000   0.0000   0.0000   0.0000   0.0000   0.0000   0.0000
     0.0000   0.0000   0.0000   0.0000   0.0000   0.0000   0.0000   0.0000
     0.0000   0.0000   0.0000   0.0000   0.0000   0.0000   0.0000   0.0000
     0.0000   0.0000   0.0000

          k = 0.2500-0.2500-0.5000 (269988 PWs)   bands (ev):

  -103.7795 -61.2483 -61.1800 -61.1800  -7.4532  -7.3974  -7.2636  -7.2555
    -7.2325  -7.1669  -7.1138  -7.0222  -7.0193  -6.9943  -6.9817  -6.9618
    -6.9360  -6.9022  -6.8937  -6.8708  -6.8675  -6.8473  -6.8437  -6.8379
    -6.8257  -6.8046  -6.7763  -6.7706  -6.7597  -6.7497  -6.7257  -6.7190
    -6.4342  -6.3210  -6.3180  -3.9557  -3.9534  -3.9524  -3.9473  -3.9431
    -3.9419  -3.9304  -3.9192  -3.9185  -3.9179  -3.9100  -3.9093  -3.8971
    -3.8953  -3.8947  -3.7922  -3.7898  -3.7813  -3.7759  -3.7741  -3.7703
    -3.7695  -3.7645  -3.7629  -3.7557  -3.7533  -3.7518  -3.7507  -3.7468
    -3.7437  -3.7391  -3.7369  -3.7298  -3.7270  -3.7209  -3.7199  -3.7171
    -3.7148  -3.7099  -3.7050  -3.7016  -3.6992  -3.6958  -3.6917  -3.6902
    -3.6882  -3.6866  -3.6838  -3.6800  -3.6787  -3.6718  -3.6705  -3.6675
    -3.6657  -3.6624  -3.6565  -3.6563  -3.6528  -3.6485  -3.6463  -3.6448
    -3.6400  -3.6387  -3.6325  -3.6294  -3.6285  -3.6273  -3.6233  -3.6189
    -3.6176  -3.6154  -3.6115  -3.6092  -3.6080  -3.6031  -3.6012  -3.5970
    -3.5938  -3.5908  -3.5882  -3.5848  -3.5812  -3.5779  -3.5759  -3.5707
    -3.5685  -3.5683  -3.5667  -3.5620  -3.5609  -3.5584  -3.5574  -3.5543
    -3.5526  -3.5503  -3.5471  -3.5436  -3.5424  -3.5392  -3.5360  -3.5342
    -3.5296  -3.5213  -3.5173  -3.5170  -3.5095  -3.5061  -3.5020  -3.4997
    -3.4960  -3.4898  -3.4796  -3.4656  -3.4467  -3.4458  -3.4442  -3.4421
    -3.4413  -3.4294  -3.4266  -3.4244  -3.4158  -3.4152  -3.4093  -3.4061
    -3.4052  -3.4005  -3.3976  -3.3946  -3.3912  -3.3895  -3.3663  -3.3012
    -3.2714  -3.2618  -3.2446  -3.1822  -3.1728  -3.1609  -3.1238  -3.1123
    -3.1037  -3.0576  -3.0481  -3.0304  -3.0108  -3.0002  -2.9978  -2.9852
    -2.9676  -2.9548  -2.9329  -2.9240  -2.9187  -2.9089   0.5061   0.5608
     0.6121   0.6961   0.7137   0.7387   0.7527   0.7688   0.7795   0.7909
     0.8080   0.8441   0.8493   0.8791   0.8909   0.9388   0.9753   1.0910
     1.1482   1.2312   1.2816   1.3252   1.3586   1.4067   1.5348   1.8783
     2.1069   2.2303   2.3092   2.3523   2.3791   2.4143   2.4287   2.4386
     2.5172   2.5863   2.6067   2.6267   2.6518   2.7117   2.7328   2.7909
     2.8328   2.8804   2.8998   2.9816   3.1142   3.1650   3.1891   3.2281
     3.2984   3.3204   3.3383   3.3527   3.3708   3.3874   3.4219   3.4594
     3.4632   3.4801   3.5064   3.5141   3.5423   3.5489   3.5587   3.6056
     3.6278   3.6597   3.6784   3.7239   3.7631   3.7802   3.8574   3.8679
     3.9239   3.9659   3.9948   4.0194   4.0756   4.0854   4.1419   4.1828
     4.2386   4.2492   4.2659   4.3125   4.3914   4.4828   4.5728   4.6496
     4.6736   4.7128   4.7631   4.8451   4.8535   4.8836   5.2103   5.2868
     6.7509   8.1990   8.3025   8.8684   8.9554   9.0675   9.1396   9.2288
     9.3502   9.3858   9.4482   9.5247   9.5469   9.5924   9.6129   9.6321
     9.6638   9.7408   9.7515   9.7982   9.8324   9.8653   9.8832   9.9552
     9.9847   9.9926  10.0640  10.0951  10.1047  10.1818  10.1997  10.3263
    10.3538  10.3930  10.4389  10.6078  10.6977  10.7500  10.7787  10.8260
    10.8524  10.9574  11.0429  11.1426  11.2311  11.2860  11.3500  11.4131
    11.4664  11.4939  11.5031  11.5311  11.5855  11.5969  11.6279  11.6409
    11.6540  11.6786  11.6925

     occupation numbers 
     1.0000   1.0000   1.0000   1.0000   1.0000   1.0000   1.0000   1.0000
     1.0000   1.0000   1.0000   1.0000   1.0000   1.0000   1.0000   1.0000
     1.0000   1.0000   1.0000   1.0000   1.0000   1.0000   1.0000   1.0000
     1.0000   1.0000   1.0000   1.0000   1.0000   1.0000   1.0000   1.0000
     1.0000   1.0000   1.0000   1.0000   1.0000   1.0000   1.0000   1.0000
     1.0000   1.0000   1.0000   1.0000   1.0000   1.0000   1.0000   1.0000
     1.0000   1.0000   1.0000   1.0000   1.0000   1.0000   1.0000   1.0000
     1.0000   1.0000   1.0000   1.0000   1.0000   1.0000   1.0000   1.0000
     1.0000   1.0000   1.0000   1.0000   1.0000   1.0000   1.0000   1.0000
     1.0000   1.0000   1.0000   1.0000   1.0000   1.0000   1.0000   1.0000
     1.0000   1.0000   1.0000   1.0000   1.0000   1.0000   1.0000   1.0000
     1.0000   1.0000   1.0000   1.0000   1.0000   1.0000   1.0000   1.0000
     1.0000   1.0000   1.0000   1.0000   1.0000   1.0000   1.0000   1.0000
     1.0000   1.0000   1.0000   1.0000   1.0000   1.0000   1.0000   1.0000
     1.0000   1.0000   1.0000   1.0000   1.0000   1.0000   1.0000   1.0000
     1.0000   1.0000   1.0000   1.0000   1.0000   1.0000   1.0000   1.0000
     1.0000   1.0000   1.0000   1.0000   1.0000   1.0000   1.0000   1.0000
     1.0000   1.0000   1.0000   1.0000   1.0000   1.0000   1.0000   1.0000
     1.0000   1.0000   1.0000   1.0000   1.0000   1.0000   1.0000   1.0000
     1.0000   1.0000   1.0000   1.0000   1.0000   1.0000   1.0000   1.0000
     1.0000   1.0000   1.0000   1.0000   1.0000   1.0000   1.0000   1.0000
     1.0000   1.0000   1.0000   1.0000   1.0000   1.0000   1.0000   1.0000
     1.0000   1.0000   1.0000   1.0000   1.0000   1.0000   1.0000   1.0000
     1.0000   1.0000   1.0000   1.0000   1.0000   1.0000   1.0000   1.0000
     1.0000   1.0000   1.0000   1.0000   1.0000   1.0000   1.0000   1.0000
     1.0000   1.0000   1.0000   1.0000   1.0000   1.0000   1.0000   1.0000
     1.0000   1.0000   1.0000   1.0000   1.0000   1.0000   1.0000   1.0000
     1.0000   1.0000   1.0000   1.0000   1.0000   1.0000   1.0000   1.0000
     1.0000   1.0000   1.0000   1.0000   1.0000   1.0000   1.0000   1.0000
     1.0000   1.0000   1.0000   1.0000   1.0000   1.0000   1.0000   1.0000
     1.0000   1.0000   1.0000   1.0000   1.0000   1.0000   1.0000   1.0000
     1.0000   1.0000   1.0000   1.0000   1.0000   1.0000   1.0000   1.0000
     1.0000   1.0000   1.0000   1.0000   1.0000   1.0000   1.0000   1.0000
     1.0000   1.0000   1.0000   1.0000   1.0000   1.0000   1.0000   1.0000
     1.0000   1.0000   1.0000   1.0000   1.0000   1.0000   1.0000   1.0000
     1.0000   1.0000   1.0000   1.0000   1.0000   1.0000   1.0000   1.0000
     0.0000   0.0000   0.0000   0.0000   0.0000   0.0000   0.0000   0.0000
     0.0000   0.0000   0.0000   0.0000   0.0000   0.0000   0.0000   0.0000
     0.0000   0.0000   0.0000   0.0000   0.0000   0.0000   0.0000   0.0000
     0.0000   0.0000   0.0000   0.0000   0.0000   0.0000   0.0000   0.0000
     0.0000   0.0000   0.0000   0.0000   0.0000   0.0000   0.0000   0.0000
     0.0000   0.0000   0.0000   0.0000   0.0000   0.0000   0.0000   0.0000
     0.0000   0.0000   0.0000   0.0000   0.0000   0.0000   0.0000   0.0000
     0.0000   0.0000   0.0000

     the Fermi energy is     6.2968 ev
     (compare with:     6.3063 eV, computed in scf)

     Writing all to output data dir ./out/Cu_vac_q0_U6_unrlxd.save/
 
     init_run     :      5.51s CPU      6.17s WALL (       1 calls)
     electrons    :    151.93s CPU    153.46s WALL (       1 calls)

     Called by init_run:
     wfcinit      :      2.03s CPU      2.19s WALL (       1 calls)
     wfcinit:atom :      0.03s CPU      0.03s WALL (       2 calls)
     wfcinit:wfcr :      3.16s CPU      3.25s WALL (       2 calls)
     potinit      :      0.57s CPU      0.79s WALL (       1 calls)
     hinit0       :      0.45s CPU      0.53s WALL (       1 calls)

     Called by electrons:
     c_bands      :    151.61s CPU    153.12s WALL (       1 calls)
     v_of_rho     :      0.31s CPU      0.36s WALL (       1 calls)
     v_h          :      0.01s CPU      0.01s WALL (       1 calls)
     v_xc         :      0.30s CPU      0.35s WALL (       1 calls)
     newd         :      0.03s CPU      0.05s WALL (       1 calls)
     PAW_pot      :      0.11s CPU      0.12s WALL (       1 calls)

     Called by c_bands:
     init_us_2    :      0.11s CPU      0.13s WALL (       4 calls)
     init_us_2:cp :      0.11s CPU      0.13s WALL (       4 calls)
     cegterg      :    137.46s CPU    138.81s WALL (      11 calls)

     Called by sum_band:

     Called by *egterg:
     cdiaghg      :     13.85s CPU     13.95s WALL (     222 calls)
     cegterg:over :     10.68s CPU     10.76s WALL (     220 calls)
     cegterg:upda :     10.64s CPU     10.72s WALL (     220 calls)
     cegterg:last :     19.55s CPU     19.68s WALL (      65 calls)
     cdiaghg:chol :      0.90s CPU      0.91s WALL (     222 calls)
     cdiaghg:inve :      1.33s CPU      1.34s WALL (     222 calls)
     cdiaghg:para :      2.12s CPU      2.14s WALL (     444 calls)
     h_psi        :     71.37s CPU     72.16s WALL (     233 calls)
     s_psi        :     12.32s CPU     12.41s WALL (     235 calls)
     g_psi        :      0.39s CPU      0.39s WALL (     220 calls)

     Called by h_psi:
     h_psi:calbec :     11.97s CPU     12.06s WALL (     233 calls)
     vloc_psi     :     28.96s CPU     29.30s WALL (     233 calls)
     add_vuspsi   :     12.51s CPU     12.60s WALL (     233 calls)
     vhpsi        :     17.35s CPU     17.50s WALL (     233 calls)

     General routines
     calbec       :     14.43s CPU     14.56s WALL (     468 calls)
     fft          :      0.50s CPU      0.63s WALL (      21 calls)
     fftw         :     26.89s CPU     27.20s WALL (   49372 calls)
     davcio       :      0.00s CPU      0.00s WALL (       2 calls)
 
     Parallel routines

     Hubbard U routines
     vhpsi        :     17.35s CPU     17.50s WALL (     233 calls)

     PAW routines
     PAW_pot      :      0.11s CPU      0.12s WALL (       1 calls)
 
     PWSCF        :   3m 3.92s CPU   3m27.86s WALL

 
   This run was terminated on:   2:57:10  18Jul2024            

=------------------------------------------------------------------------------=
   JOB DONE.
=------------------------------------------------------------------------------=
