# E (eV) pdos(E) 
 -7.448  0.481E+00
 -7.438  0.157E+01
 -7.428  0.295E+01
 -7.418  0.379E+01
 -7.408  0.408E+01
 -7.398  0.406E+01
 -7.388  0.411E+01
 -7.378  0.420E+01
 -7.368  0.450E+01
 -7.358  0.510E+01
 -7.348  0.572E+01
 -7.338  0.645E+01
 -7.328  0.745E+01
 -7.318  0.840E+01
 -7.308  0.889E+01
 -7.298  0.939E+01
 -7.288  0.103E+02
 -7.278  0.117E+02
 -7.268  0.123E+02
 -7.258  0.123E+02
 -7.248  0.124E+02
 -7.238  0.123E+02
 -7.228  0.120E+02
 -7.218  0.117E+02
 -7.208  0.115E+02
 -7.198  0.116E+02
 -7.188  0.125E+02
 -7.178  0.134E+02
 -7.168  0.141E+02
 -7.158  0.175E+02
 -7.148  0.190E+02
 -7.138  0.185E+02
 -7.128  0.165E+02
 -7.118  0.165E+02
 -7.108  0.170E+02
 -7.098  0.178E+02
 -7.088  0.187E+02
 -7.078  0.189E+02
 -7.068  0.186E+02
 -7.058  0.188E+02
 -7.048  0.192E+02
 -7.038  0.202E+02
 -7.028  0.208E+02
 -7.018  0.207E+02
 -7.008  0.223E+02
 -6.998  0.281E+02
 -6.988  0.357E+02
 -6.978  0.385E+02
 -6.968  0.430E+02
 -6.958  0.367E+02
 -6.948  0.354E+02
 -6.938  0.339E+02
 -6.928  0.337E+02
 -6.918  0.379E+02
 -6.908  0.336E+02
 -6.898  0.285E+02
 -6.888  0.249E+02
 -6.878  0.233E+02
 -6.868  0.239E+02
 -6.858  0.368E+02
 -6.848  0.488E+02
 -6.838  0.409E+02
 -6.828  0.742E+02
 -6.818  0.649E+02
 -6.808  0.560E+02
 -6.798  0.704E+02
 -6.788  0.738E+02
 -6.778  0.751E+02
 -6.768  0.102E+03
 -6.758  0.911E+02
 -6.748  0.837E+02
 -6.738  0.783E+02
 -6.728  0.948E+02
 -6.718  0.910E+02
 -6.708  0.898E+02
 -6.698  0.980E+02
 -6.688  0.146E+03
 -6.678  0.116E+03
 -6.668  0.101E+03
 -6.658  0.110E+03
 -6.648  0.154E+03
 -6.638  0.150E+03
 -6.628  0.102E+03
 -6.618  0.951E+02
 -6.608  0.109E+03
 -6.598  0.108E+03
 -6.588  0.223E+03
 -6.578  0.206E+03
 -6.568  0.179E+03
 -6.558  0.158E+03
 -6.548  0.323E+01
 -6.538  0.000E+00
 -6.528  0.000E+00
 -6.518  0.000E+00
 -6.508  0.000E+00
 -6.498  0.000E+00
 -6.488  0.000E+00
 -6.478  0.000E+00
 -6.468  0.000E+00
 -6.458  0.000E+00
 -6.448  0.000E+00
 -6.438  0.000E+00
 -6.428  0.000E+00
 -6.418  0.000E+00
 -6.408  0.000E+00
 -6.398  0.000E+00
 -6.388  0.000E+00
 -6.378  0.000E+00
 -6.368  0.000E+00
 -6.358  0.000E+00
 -6.348  0.000E+00
 -6.338  0.000E+00
 -6.328  0.000E+00
 -6.318  0.000E+00
 -6.308  0.000E+00
 -6.298  0.000E+00
 -6.288  0.000E+00
 -6.278  0.000E+00
 -6.268  0.000E+00
 -6.258  0.000E+00
 -6.248  0.000E+00
 -6.238  0.000E+00
 -6.228  0.000E+00
 -6.218  0.000E+00
 -6.208  0.000E+00
 -6.198  0.000E+00
 -6.188  0.000E+00
 -6.178  0.000E+00
 -6.168  0.000E+00
 -6.158  0.000E+00
 -6.148  0.000E+00
 -6.138  0.000E+00
 -6.128  0.000E+00
 -6.118  0.000E+00
 -6.108  0.000E+00
 -6.098  0.000E+00
 -6.088  0.000E+00
 -6.078  0.000E+00
 -6.068  0.000E+00
 -6.058  0.000E+00
 -6.048  0.000E+00
 -6.038  0.000E+00
 -6.028  0.000E+00
 -6.018  0.000E+00
 -6.008  0.000E+00
 -5.998  0.000E+00
 -5.988  0.000E+00
 -5.978  0.000E+00
 -5.968  0.000E+00
 -5.958  0.000E+00
 -5.948  0.000E+00
 -5.938  0.000E+00
 -5.928  0.000E+00
 -5.918  0.000E+00
 -5.908  0.000E+00
 -5.898  0.000E+00
 -5.888  0.000E+00
 -5.878  0.000E+00
 -5.868  0.000E+00
 -5.858  0.000E+00
 -5.848  0.000E+00
 -5.838  0.000E+00
 -5.828  0.000E+00
 -5.818  0.000E+00
 -5.808  0.000E+00
 -5.798  0.000E+00
 -5.788  0.000E+00
 -5.778  0.000E+00
 -5.768  0.000E+00
 -5.758  0.000E+00
 -5.748  0.000E+00
 -5.738  0.000E+00
 -5.728  0.000E+00
 -5.718  0.000E+00
 -5.708  0.000E+00
 -5.698  0.000E+00
 -5.688  0.000E+00
 -5.678  0.000E+00
 -5.668  0.000E+00
 -5.658  0.000E+00
 -5.648  0.000E+00
 -5.638  0.000E+00
 -5.628  0.000E+00
 -5.618  0.000E+00
 -5.608  0.000E+00
 -5.598  0.000E+00
 -5.588  0.000E+00
 -5.578  0.000E+00
 -5.568  0.000E+00
 -5.558  0.000E+00
 -5.548  0.000E+00
 -5.538  0.000E+00
 -5.528  0.000E+00
 -5.518  0.000E+00
 -5.508  0.000E+00
 -5.498  0.000E+00
 -5.488  0.000E+00
 -5.478  0.000E+00
 -5.468  0.000E+00
 -5.458  0.000E+00
 -5.448  0.000E+00
 -5.438  0.000E+00
 -5.428  0.000E+00
 -5.418  0.000E+00
 -5.408  0.000E+00
 -5.398  0.000E+00
 -5.388  0.000E+00
 -5.378  0.000E+00
 -5.368  0.000E+00
 -5.358  0.000E+00
 -5.348  0.000E+00
 -5.338  0.000E+00
 -5.328  0.000E+00
 -5.318  0.000E+00
 -5.308  0.000E+00
 -5.298  0.000E+00
 -5.288  0.000E+00
 -5.278  0.000E+00
 -5.268  0.000E+00
 -5.258  0.000E+00
 -5.248  0.000E+00
 -5.238  0.000E+00
 -5.228  0.000E+00
 -5.218  0.000E+00
 -5.208  0.000E+00
 -5.198  0.000E+00
 -5.188  0.000E+00
 -5.178  0.000E+00
 -5.168  0.000E+00
 -5.158  0.000E+00
 -5.148  0.000E+00
 -5.138  0.000E+00
 -5.128  0.000E+00
 -5.118  0.000E+00
 -5.108  0.000E+00
 -5.098  0.000E+00
 -5.088  0.000E+00
 -5.078  0.000E+00
 -5.068  0.000E+00
 -5.058  0.000E+00
 -5.048  0.000E+00
 -5.038  0.000E+00
 -5.028  0.000E+00
 -5.018  0.000E+00
 -5.008  0.000E+00
 -4.998  0.000E+00
 -4.988  0.000E+00
 -4.978  0.000E+00
 -4.968  0.000E+00
 -4.958  0.000E+00
 -4.948  0.000E+00
 -4.938  0.000E+00
 -4.928  0.000E+00
 -4.918  0.000E+00
 -4.908  0.000E+00
 -4.898  0.000E+00
 -4.888  0.000E+00
 -4.878  0.000E+00
 -4.868  0.000E+00
 -4.858  0.000E+00
 -4.848  0.000E+00
 -4.838  0.000E+00
 -4.828  0.000E+00
 -4.818  0.000E+00
 -4.808  0.000E+00
 -4.798  0.000E+00
 -4.788  0.000E+00
 -4.778  0.000E+00
 -4.768  0.000E+00
 -4.758  0.000E+00
 -4.748  0.000E+00
 -4.738  0.000E+00
 -4.728  0.000E+00
 -4.718  0.000E+00
 -4.708  0.000E+00
 -4.698  0.000E+00
 -4.688  0.000E+00
 -4.678  0.000E+00
 -4.668  0.000E+00
 -4.658  0.000E+00
 -4.648  0.000E+00
 -4.638  0.000E+00
 -4.628  0.000E+00
 -4.618  0.000E+00
 -4.608  0.000E+00
 -4.598  0.000E+00
 -4.588  0.000E+00
 -4.578  0.000E+00
 -4.568  0.000E+00
 -4.558  0.000E+00
 -4.548  0.000E+00
 -4.538  0.000E+00
 -4.528  0.000E+00
 -4.518  0.000E+00
 -4.508  0.000E+00
 -4.498  0.000E+00
 -4.488  0.000E+00
 -4.478  0.000E+00
 -4.468  0.000E+00
 -4.458  0.000E+00
 -4.448  0.000E+00
 -4.438  0.000E+00
 -4.428  0.000E+00
 -4.418  0.000E+00
 -4.408  0.000E+00
 -4.398  0.000E+00
 -4.388  0.000E+00
 -4.378  0.000E+00
 -4.368  0.000E+00
 -4.358  0.000E+00
 -4.348  0.000E+00
 -4.338  0.000E+00
 -4.328  0.000E+00
 -4.318  0.000E+00
 -4.308  0.000E+00
 -4.298  0.000E+00
 -4.288  0.000E+00
 -4.278  0.000E+00
 -4.268  0.000E+00
 -4.258  0.000E+00
 -4.248  0.000E+00
 -4.238  0.000E+00
 -4.228  0.000E+00
 -4.218  0.000E+00
 -4.208  0.000E+00
 -4.198  0.000E+00
 -4.188  0.000E+00
 -4.178  0.000E+00
 -4.168  0.000E+00
 -4.158  0.000E+00
 -4.148  0.000E+00
 -4.138  0.000E+00
 -4.128  0.000E+00
 -4.118  0.000E+00
 -4.108  0.000E+00
 -4.098  0.000E+00
 -4.088  0.000E+00
 -4.078  0.000E+00
 -4.068  0.000E+00
 -4.058  0.000E+00
 -4.048  0.000E+00
 -4.038  0.000E+00
 -4.028  0.000E+00
 -4.018  0.000E+00
 -4.008  0.000E+00
 -3.998  0.000E+00
 -3.988  0.000E+00
 -3.978  0.000E+00
 -3.968  0.000E+00
 -3.958  0.000E+00
 -3.948  0.000E+00
 -3.938  0.000E+00
 -3.928  0.000E+00
 -3.918  0.000E+00
 -3.908  0.000E+00
 -3.898  0.000E+00
 -3.888  0.000E+00
 -3.878  0.000E+00
 -3.868  0.000E+00
 -3.858  0.000E+00
 -3.848  0.000E+00
 -3.838  0.000E+00
 -3.828  0.000E+00
 -3.818  0.000E+00
 -3.808  0.000E+00
 -3.798  0.000E+00
 -3.788  0.000E+00
 -3.778  0.000E+00
 -3.768  0.000E+00
 -3.758  0.000E+00
 -3.748  0.000E+00
 -3.738  0.000E+00
 -3.728  0.000E+00
 -3.718  0.000E+00
 -3.708  0.000E+00
 -3.698  0.000E+00
 -3.688  0.000E+00
 -3.678  0.000E+00
 -3.668  0.000E+00
 -3.658  0.000E+00
 -3.648 -0.545E-06
 -3.638  0.531E-02
 -3.628  0.228E-01
 -3.618  0.527E-01
 -3.608  0.445E-01
 -3.598  0.809E-01
 -3.588  0.128E+00
 -3.578  0.302E-01
 -3.568  0.153E+00
 -3.558  0.161E+00
 -3.548  0.898E-01
 -3.538  0.581E+00
 -3.528  0.176E+00
 -3.518  0.164E+00
 -3.508  0.462E+00
 -3.498  0.235E+00
 -3.488  0.165E+00
 -3.478  0.423E+00
 -3.468  0.252E+00
 -3.458  0.860E-01
 -3.448  0.101E+01
 -3.438  0.240E+00
 -3.428  0.421E-01
 -3.418  0.229E+00
 -3.408  0.160E+00
 -3.398  0.440E+00
 -3.388  0.438E+00
 -3.378  0.347E+00
 -3.368  0.432E+00
 -3.358  0.898E+00
 -3.348  0.185E+01
 -3.338  0.850E+00
 -3.328  0.782E-01
 -3.318  0.557E+00
 -3.308  0.950E+00
 -3.298  0.125E+01
 -3.288  0.122E+01
 -3.278  0.133E+01
 -3.268  0.165E+01
 -3.258  0.186E+01
 -3.248  0.165E+01
 -3.238  0.129E+01
 -3.228  0.984E+00
 -3.218  0.743E+00
 -3.208  0.769E+00
 -3.198  0.101E+01
 -3.188  0.206E+01
 -3.178  0.223E+01
 -3.168  0.242E+01
 -3.158  0.269E+01
 -3.148  0.308E+01
 -3.138  0.320E+01
 -3.128  0.285E+01
 -3.118  0.260E+01
 -3.108  0.241E+01
 -3.098  0.232E+01
 -3.088  0.226E+01
 -3.078  0.224E+01
 -3.068  0.228E+01
 -3.058  0.276E+01
 -3.048  0.588E+01
 -3.038  0.688E+01
 -3.028  0.591E+01
 -3.018  0.470E+01
 -3.008  0.439E+01
 -2.998  0.453E+01
 -2.988  0.493E+01
 -2.978  0.573E+01
 -2.968  0.626E+01
 -2.958  0.664E+01
 -2.948  0.746E+01
 -2.938  0.844E+01
 -2.928  0.935E+01
 -2.918  0.991E+01
 -2.908  0.758E+01
 -2.898  0.757E+01
 -2.888  0.844E+01
 -2.878  0.982E+01
 -2.868  0.141E+02
 -2.858  0.119E+02
 -2.848  0.102E+02
 -2.838  0.103E+02
 -2.828  0.118E+02
 -2.818  0.172E+02
 -2.808  0.161E+02
 -2.798  0.874E+01
 -2.788  0.107E+02
 -2.778  0.105E+02
 -2.768  0.153E+02
 -2.758  0.231E+02
 -2.748  0.152E+02
 -2.738  0.960E+01
 -2.728  0.654E+01
 -2.718  0.484E+01
 -2.708  0.253E+01
 -2.698  0.412E+00
 -2.688  0.330E-02
 -2.678  0.000E+00
 -2.668  0.000E+00
 -2.658  0.000E+00
 -2.648  0.000E+00
 -2.638  0.000E+00
 -2.628  0.000E+00
 -2.618  0.000E+00
 -2.608  0.000E+00
 -2.598  0.000E+00
 -2.588  0.000E+00
 -2.578  0.000E+00
 -2.568  0.000E+00
 -2.558  0.000E+00
 -2.548  0.000E+00
 -2.538  0.000E+00
 -2.528  0.000E+00
 -2.518  0.000E+00
 -2.508  0.000E+00
 -2.498  0.000E+00
 -2.488  0.000E+00
 -2.478  0.000E+00
 -2.468  0.000E+00
 -2.458  0.000E+00
 -2.448  0.000E+00
 -2.438  0.000E+00
 -2.428  0.000E+00
 -2.418  0.000E+00
 -2.408  0.000E+00
 -2.398  0.000E+00
 -2.388  0.000E+00
 -2.378  0.000E+00
 -2.368  0.000E+00
 -2.358  0.000E+00
 -2.348  0.000E+00
 -2.338  0.000E+00
 -2.328  0.000E+00
 -2.318  0.000E+00
 -2.308  0.000E+00
 -2.298  0.000E+00
 -2.288  0.000E+00
 -2.278  0.000E+00
 -2.268  0.000E+00
 -2.258  0.000E+00
 -2.248  0.000E+00
 -2.238  0.000E+00
 -2.228  0.000E+00
 -2.218  0.000E+00
 -2.208  0.000E+00
 -2.198  0.000E+00
 -2.188  0.000E+00
 -2.178  0.000E+00
 -2.168  0.000E+00
 -2.158  0.000E+00
 -2.148  0.000E+00
 -2.138  0.000E+00
 -2.128  0.000E+00
 -2.118  0.000E+00
 -2.108  0.000E+00
 -2.098  0.000E+00
 -2.088  0.000E+00
 -2.078  0.000E+00
 -2.068  0.000E+00
 -2.058  0.000E+00
 -2.048  0.000E+00
 -2.038  0.000E+00
 -2.028  0.000E+00
 -2.018  0.000E+00
 -2.008  0.000E+00
 -1.998  0.000E+00
 -1.988  0.000E+00
 -1.978  0.000E+00
 -1.968  0.000E+00
 -1.958  0.000E+00
 -1.948  0.000E+00
 -1.938  0.000E+00
 -1.928  0.000E+00
 -1.918  0.000E+00
 -1.908  0.000E+00
 -1.898  0.000E+00
 -1.888  0.000E+00
 -1.878  0.000E+00
 -1.868  0.000E+00
 -1.858  0.000E+00
 -1.848  0.000E+00
 -1.838  0.000E+00
 -1.828  0.000E+00
 -1.818  0.000E+00
 -1.808  0.000E+00
 -1.798  0.000E+00
 -1.788  0.000E+00
 -1.778  0.000E+00
 -1.768  0.000E+00
 -1.758  0.000E+00
 -1.748  0.000E+00
 -1.738  0.000E+00
 -1.728  0.000E+00
 -1.718  0.000E+00
 -1.708  0.000E+00
 -1.698  0.000E+00
 -1.688  0.000E+00
 -1.678  0.000E+00
 -1.668  0.000E+00
 -1.658  0.000E+00
 -1.648  0.000E+00
 -1.638  0.000E+00
 -1.628  0.000E+00
 -1.618  0.000E+00
 -1.608  0.000E+00
 -1.598  0.000E+00
 -1.588  0.000E+00
 -1.578  0.000E+00
 -1.568  0.000E+00
 -1.558  0.000E+00
 -1.548  0.000E+00
 -1.538  0.000E+00
 -1.528  0.000E+00
 -1.518  0.000E+00
 -1.508  0.000E+00
 -1.498  0.000E+00
 -1.488  0.000E+00
 -1.478  0.000E+00
 -1.468  0.000E+00
 -1.458  0.000E+00
 -1.448  0.000E+00
 -1.438  0.000E+00
 -1.428  0.000E+00
 -1.418  0.000E+00
 -1.408  0.000E+00
 -1.398  0.000E+00
 -1.388  0.000E+00
 -1.378  0.000E+00
 -1.368  0.000E+00
 -1.358  0.000E+00
 -1.348  0.000E+00
 -1.338  0.000E+00
 -1.328  0.000E+00
 -1.318  0.000E+00
 -1.308  0.000E+00
 -1.298  0.000E+00
 -1.288  0.000E+00
 -1.278  0.000E+00
 -1.268  0.000E+00
 -1.258  0.000E+00
 -1.248  0.000E+00
 -1.238  0.000E+00
 -1.228  0.000E+00
 -1.218  0.000E+00
 -1.208  0.000E+00
 -1.198  0.000E+00
 -1.188  0.000E+00
 -1.178  0.000E+00
 -1.168  0.000E+00
 -1.158  0.000E+00
 -1.148  0.000E+00
 -1.138  0.000E+00
 -1.128  0.000E+00
 -1.118  0.000E+00
 -1.108  0.000E+00
 -1.098  0.000E+00
 -1.088  0.000E+00
 -1.078  0.000E+00
 -1.068  0.000E+00
 -1.058  0.000E+00
 -1.048  0.000E+00
 -1.038  0.000E+00
 -1.028  0.000E+00
 -1.018  0.000E+00
 -1.008  0.000E+00
 -0.998  0.000E+00
 -0.988  0.000E+00
 -0.978  0.000E+00
 -0.968  0.000E+00
 -0.958  0.000E+00
 -0.948  0.000E+00
 -0.938  0.000E+00
 -0.928  0.000E+00
 -0.918  0.000E+00
 -0.908  0.000E+00
 -0.898  0.000E+00
 -0.888  0.000E+00
 -0.878  0.000E+00
 -0.868  0.000E+00
 -0.858  0.000E+00
 -0.848  0.000E+00
 -0.838  0.000E+00
 -0.828  0.000E+00
 -0.818  0.000E+00
 -0.808  0.000E+00
 -0.798  0.000E+00
 -0.788  0.000E+00
 -0.778  0.000E+00
 -0.768  0.000E+00
 -0.758  0.000E+00
 -0.748  0.000E+00
 -0.738  0.000E+00
 -0.728  0.000E+00
 -0.718  0.000E+00
 -0.708  0.000E+00
 -0.698  0.000E+00
 -0.688  0.000E+00
 -0.678  0.000E+00
 -0.668  0.000E+00
 -0.658  0.000E+00
 -0.648  0.000E+00
 -0.638  0.000E+00
 -0.628  0.000E+00
 -0.618  0.000E+00
 -0.608  0.000E+00
 -0.598  0.000E+00
 -0.588  0.000E+00
 -0.578  0.000E+00
 -0.568  0.000E+00
 -0.558  0.000E+00
 -0.548  0.000E+00
 -0.538  0.000E+00
 -0.528  0.000E+00
 -0.518  0.000E+00
 -0.508  0.000E+00
 -0.498  0.000E+00
 -0.488  0.000E+00
 -0.478  0.000E+00
 -0.468  0.000E+00
 -0.458  0.000E+00
 -0.448  0.000E+00
 -0.438  0.000E+00
 -0.428  0.000E+00
 -0.418  0.000E+00
 -0.408  0.000E+00
 -0.398  0.000E+00
 -0.388  0.000E+00
 -0.378  0.000E+00
 -0.368  0.000E+00
 -0.358  0.000E+00
 -0.348  0.000E+00
 -0.338  0.000E+00
 -0.328  0.000E+00
 -0.318  0.000E+00
 -0.308  0.000E+00
 -0.298  0.000E+00
 -0.288  0.000E+00
 -0.278  0.000E+00
 -0.268  0.000E+00
 -0.258  0.000E+00
 -0.248  0.000E+00
 -0.238  0.000E+00
 -0.228  0.000E+00
 -0.218  0.000E+00
 -0.208  0.000E+00
 -0.198  0.000E+00
 -0.188  0.000E+00
 -0.178  0.000E+00
 -0.168  0.000E+00
 -0.158  0.000E+00
 -0.148  0.000E+00
 -0.138  0.000E+00
 -0.128  0.000E+00
 -0.118  0.000E+00
 -0.108  0.000E+00
 -0.098  0.000E+00
 -0.088  0.000E+00
 -0.078  0.000E+00
 -0.068  0.000E+00
 -0.058  0.000E+00
 -0.048  0.000E+00
 -0.038  0.000E+00
 -0.028  0.000E+00
 -0.018  0.000E+00
 -0.008  0.000E+00
  0.002  0.000E+00
  0.012  0.000E+00
  0.022  0.000E+00
  0.032  0.000E+00
  0.042  0.000E+00
  0.052  0.000E+00
  0.062  0.000E+00
  0.072  0.000E+00
  0.082  0.000E+00
  0.092  0.000E+00
  0.102  0.000E+00
  0.112  0.000E+00
  0.122  0.000E+00
  0.132  0.000E+00
  0.142  0.000E+00
  0.152  0.000E+00
  0.162  0.000E+00
  0.172  0.000E+00
  0.182  0.000E+00
  0.192  0.000E+00
  0.202  0.000E+00
  0.212  0.000E+00
  0.222  0.000E+00
  0.232  0.000E+00
  0.242  0.000E+00
  0.252  0.000E+00
  0.262  0.000E+00
  0.272  0.000E+00
  0.282  0.000E+00
  0.292  0.000E+00
  0.302  0.000E+00
  0.312  0.000E+00
  0.322  0.000E+00
  0.332  0.000E+00
  0.342  0.000E+00
  0.352  0.000E+00
  0.362 -0.642E-06
  0.372  0.645E-05
  0.382  0.927E-04
  0.392  0.406E-03
  0.402  0.110E-02
  0.412  0.235E-02
  0.422  0.428E-02
  0.432  0.708E-02
  0.442  0.109E-01
  0.452  0.159E-01
  0.462  0.223E-01
  0.472  0.458E-01
  0.482  0.758E-01
  0.492  0.407E-01
  0.502  0.426E-01
  0.512  0.474E-01
  0.522  0.527E-01
  0.532  0.585E-01
  0.542  0.652E-01
  0.552  0.729E-01
  0.562  0.815E-01
  0.572  0.914E-01
  0.582  0.102E+00
  0.592  0.114E+00
  0.602  0.127E+00
  0.612  0.143E+00
  0.622  0.162E+00
  0.632  0.184E+00
  0.642  0.209E+00
  0.652  0.236E+00
  0.662  0.264E+00
  0.672  0.290E+00
  0.682  0.311E+00
  0.692  0.350E+00
  0.702  0.374E+00
  0.712  0.376E+00
  0.722  0.373E+00
  0.732  0.373E+00
  0.742  0.368E+00
  0.752  0.354E+00
  0.762  0.328E+00
  0.772  0.308E+00
  0.782  0.292E+00
  0.792  0.280E+00
  0.802  0.297E+00
  0.812  0.376E+00
  0.822  0.452E+00
  0.832  0.547E+00
  0.842  0.653E+00
  0.852  0.756E+00
  0.862  0.834E+00
  0.872  0.866E+00
  0.882  0.799E+00
  0.892  0.587E+00
  0.902  0.572E+00
  0.912  0.704E+00
  0.922  0.944E+00
  0.932  0.108E+01
  0.942  0.115E+01
  0.952  0.118E+01
  0.962  0.120E+01
  0.972  0.168E+01
  0.982  0.205E+01
  0.992  0.121E+01
  1.002  0.930E+00
  1.012  0.774E+00
  1.022  0.845E+00
  1.032  0.119E+01
  1.042  0.168E+01
  1.052  0.196E+01
  1.062  0.218E+01
  1.072  0.229E+01
  1.082  0.224E+01
  1.092  0.199E+01
  1.102  0.188E+01
  1.112  0.181E+01
  1.122  0.173E+01
  1.132  0.165E+01
  1.142  0.158E+01
  1.152  0.151E+01
  1.162  0.145E+01
  1.172  0.140E+01
  1.182  0.135E+01
  1.192  0.134E+01
  1.202  0.138E+01
  1.212  0.147E+01
  1.222  0.158E+01
  1.232  0.165E+01
  1.242  0.169E+01
  1.252  0.169E+01
  1.262  0.164E+01
  1.272  0.156E+01
  1.282  0.144E+01
  1.292  0.131E+01
  1.302  0.122E+01
  1.312  0.122E+01
  1.322  0.123E+01
  1.332  0.124E+01
  1.342  0.126E+01
  1.352  0.129E+01
  1.362  0.134E+01
  1.372  0.141E+01
  1.382  0.140E+01
  1.392  0.138E+01
  1.402  0.134E+01
  1.412  0.130E+01
  1.422  0.125E+01
  1.432  0.120E+01
  1.442  0.115E+01
  1.452  0.110E+01
  1.462  0.105E+01
  1.472  0.988E+00
  1.482  0.917E+00
  1.492  0.842E+00
  1.502  0.786E+00
  1.512  0.747E+00
  1.522  0.740E+00
  1.532  0.801E+00
  1.542  0.898E+00
  1.552  0.100E+01
  1.562  0.111E+01
  1.572  0.120E+01
  1.582  0.128E+01
  1.592  0.134E+01
  1.602  0.139E+01
  1.612  0.142E+01
  1.622  0.144E+01
  1.632  0.144E+01
  1.642  0.142E+01
  1.652  0.139E+01
  1.662  0.134E+01
  1.672  0.129E+01
  1.682  0.125E+01
  1.692  0.122E+01
  1.702  0.118E+01
  1.712  0.115E+01
  1.722  0.113E+01
  1.732  0.111E+01
  1.742  0.109E+01
  1.752  0.107E+01
  1.762  0.106E+01
  1.772  0.105E+01
  1.782  0.104E+01
  1.792  0.103E+01
  1.802  0.103E+01
  1.812  0.103E+01
  1.822  0.104E+01
  1.832  0.105E+01
  1.842  0.106E+01
  1.852  0.107E+01
  1.862  0.109E+01
  1.872  0.110E+01
  1.882  0.111E+01
  1.892  0.111E+01
  1.902  0.112E+01
  1.912  0.112E+01
  1.922  0.113E+01
  1.932  0.116E+01
  1.942  0.131E+01
  1.952  0.165E+01
  1.962  0.150E+01
  1.972  0.131E+01
  1.982  0.108E+01
  1.992  0.939E+00
  2.002  0.924E+00
  2.012  0.922E+00
  2.022  0.917E+00
  2.032  0.912E+00
  2.042  0.906E+00
  2.052  0.901E+00
  2.062  0.893E+00
  2.072  0.887E+00
  2.082  0.877E+00
  2.092  0.870E+00
  2.102  0.861E+00
  2.112  0.851E+00
  2.122  0.840E+00
  2.132  0.830E+00
  2.142  0.818E+00
  2.152  0.808E+00
  2.162  0.796E+00
  2.172  0.788E+00
  2.182  0.779E+00
  2.192  0.770E+00
  2.202  0.762E+00
  2.212  0.755E+00
  2.222  0.751E+00
  2.232  0.748E+00
  2.242  0.744E+00
  2.252  0.739E+00
  2.262  0.732E+00
  2.272  0.725E+00
  2.282  0.717E+00
  2.292  0.706E+00
  2.302  0.695E+00
  2.312  0.682E+00
  2.322  0.667E+00
  2.332  0.678E+00
  2.342  0.809E+00
  2.352  0.824E+00
  2.362  0.828E+00
  2.372  0.833E+00
  2.382  0.832E+00
  2.392  0.826E+00
  2.402  0.820E+00
  2.412  0.809E+00
  2.422  0.796E+00
  2.432  0.778E+00
  2.442  0.756E+00
  2.452  0.732E+00
  2.462  0.704E+00
  2.472  0.680E+00
  2.482  0.645E+00
  2.492  0.646E+00
  2.502  0.836E+00
  2.512  0.113E+01
  2.522  0.151E+01
  2.532  0.187E+01
  2.542  0.193E+01
  2.552  0.180E+01
  2.562  0.160E+01
  2.572  0.135E+01
  2.582  0.110E+01
  2.592  0.980E+00
  2.602  0.719E+00
  2.612  0.569E+00
  2.622  0.467E+00
  2.632  0.399E+00
  2.642  0.350E+00
  2.652  0.320E+00
  2.662  0.303E+00
  2.672  0.340E+00
  2.682  0.557E+00
  2.692  0.782E+00
  2.702  0.604E+00
  2.712  0.532E+00
  2.722  0.549E+00
  2.732  0.574E+00
  2.742  0.661E+00
  2.752  0.726E+00
  2.762  0.717E+00
  2.772  0.697E+00
  2.782  0.683E+00
  2.792  0.672E+00
  2.802  0.671E+00
  2.812  0.674E+00
  2.822  0.685E+00
  2.832  0.703E+00
  2.842  0.728E+00
  2.852  0.759E+00
  2.862  0.802E+00
  2.872  0.851E+00
  2.882  0.910E+00
  2.892  0.979E+00
  2.902  0.106E+01
  2.912  0.113E+01
  2.922  0.121E+01
  2.932  0.127E+01
  2.942  0.132E+01
  2.952  0.132E+01
  2.962  0.126E+01
  2.972  0.109E+01
  2.982  0.959E+00
  2.992  0.898E+00
  3.002  0.853E+00
  3.012  0.811E+00
  3.022  0.780E+00
  3.032  0.728E+00
  3.042  0.675E+00
  3.052  0.631E+00
  3.062  0.599E+00
  3.072  0.580E+00
  3.082  0.549E+00
  3.092  0.474E+00
  3.102  0.319E+00
  3.112  0.246E+00
  3.122  0.226E+00
  3.132  0.220E+00
  3.142  0.235E+00
  3.152  0.262E+00
  3.162  0.294E+00
  3.172  0.328E+00
  3.182  0.369E+00
  3.192  0.422E+00
  3.202  0.614E+00
  3.212  0.132E+01
  3.222  0.110E+01
  3.232  0.103E+01
  3.242  0.919E+00
  3.252  0.863E+00
  3.262  0.824E+00
  3.272  0.790E+00
  3.282  0.751E+00
  3.292  0.714E+00
  3.302  0.682E+00
  3.312  0.657E+00
  3.322  0.640E+00
  3.332  0.624E+00
  3.342  0.610E+00
  3.352  0.599E+00
  3.362  0.604E+00
  3.372  0.598E+00
  3.382  0.584E+00
  3.392  0.566E+00
  3.402  0.546E+00
  3.412  0.526E+00
  3.422  0.509E+00
  3.432  0.501E+00
  3.442  0.500E+00
  3.452  0.501E+00
  3.462  0.508E+00
  3.472  0.524E+00
  3.482  0.554E+00
  3.492  0.587E+00
  3.502  0.605E+00
  3.512  0.634E+00
  3.522  0.706E+00
  3.532  0.714E+00
  3.542  0.651E+00
  3.552  0.642E+00
  3.562  0.670E+00
  3.572  0.710E+00
  3.582  0.783E+00
  3.592  0.872E+00
  3.602  0.868E+00
  3.612  0.818E+00
  3.622  0.784E+00
  3.632  0.781E+00
  3.642  0.819E+00
  3.652  0.840E+00
  3.662  0.944E+00
  3.672  0.924E+00
  3.682  0.779E+00
  3.692  0.578E+00
  3.702  0.414E+00
  3.712  0.281E+00
  3.722  0.201E+00
  3.732  0.200E+00
  3.742  0.167E+00
  3.752  0.152E+00
  3.762  0.157E+00
  3.772  0.160E+00
  3.782  0.161E+00
  3.792  0.164E+00
  3.802  0.173E+00
  3.812  0.192E+00
  3.822  0.223E+00
  3.832  0.267E+00
  3.842  0.316E+00
  3.852  0.372E+00
  3.862  0.432E+00
  3.872  0.497E+00
  3.882  0.570E+00
  3.892  0.647E+00
  3.902  0.727E+00
  3.912  0.796E+00
  3.922  0.896E+00
  3.932  0.947E+00
  3.942  0.854E+00
  3.952  0.746E+00
  3.962  0.656E+00
  3.972  0.583E+00
  3.982  0.514E+00
  3.992  0.448E+00
  4.002  0.387E+00
  4.012  0.342E+00
  4.022  0.316E+00
  4.032  0.285E+00
  4.042  0.269E+00
  4.052  0.257E+00
  4.062  0.248E+00
  4.072  0.249E+00
  4.082  0.230E+00
  4.092  0.208E+00
  4.102  0.218E+00
  4.112  0.226E+00
  4.122  0.243E+00
  4.132  0.263E+00
  4.142  0.282E+00
  4.152  0.303E+00
  4.162  0.333E+00
  4.172  0.367E+00
  4.182  0.400E+00
  4.192  0.428E+00
  4.202  0.453E+00
  4.212  0.484E+00
  4.222  0.457E+00
  4.232  0.463E+00
  4.242  0.468E+00
  4.252  0.470E+00
  4.262  0.434E+00
  4.272  0.367E+00
  4.282  0.285E+00
  4.292  0.211E+00
  4.302  0.174E+00
  4.312  0.156E+00
  4.322  0.148E+00
  4.332  0.146E+00
  4.342  0.149E+00
  4.352  0.157E+00
  4.362  0.158E+00
  4.372  0.159E+00
  4.382  0.164E+00
  4.392  0.167E+00
  4.402  0.169E+00
  4.412  0.171E+00
  4.422  0.172E+00
  4.432  0.176E+00
  4.442  0.202E+00
  4.452  0.211E+00
  4.462  0.215E+00
  4.472  0.197E+00
  4.482  0.185E+00
  4.492  0.171E+00
  4.502  0.149E+00
  4.512  0.121E+00
  4.522  0.906E-01
  4.532  0.695E-01
  4.542  0.594E-01
  4.552  0.934E-01
  4.562  0.420E+00
  4.572  0.632E+00
  4.582  0.404E+00
  4.592  0.348E+00
  4.602  0.292E+00
  4.612  0.243E+00
  4.622  0.204E+00
  4.632  0.176E+00
  4.642  0.155E+00
  4.652  0.138E+00
  4.662  0.126E+00
  4.672  0.117E+00
  4.682  0.111E+00
  4.692  0.105E+00
  4.702  0.990E-01
  4.712  0.934E-01
  4.722  0.880E-01
  4.732  0.826E-01
  4.742  0.781E-01
  4.752  0.756E-01
  4.762  0.764E-01
  4.772  0.823E-01
  4.782  0.848E-01
  4.792  0.822E-01
  4.802  0.791E-01
  4.812  0.803E-01
  4.822  0.816E-01
  4.832  0.774E-01
  4.842  0.720E-01
  4.852  0.656E-01
  4.862  0.586E-01
  4.872  0.517E-01
  4.882  0.426E-01
  4.892  0.364E-01
  4.902  0.356E-01
  4.912  0.467E-01
  4.922  0.686E-01
  4.932  0.937E-01
  4.942  0.119E+00
  4.952  0.137E+00
  4.962  0.141E+00
  4.972  0.112E+00
  4.982  0.443E-01
  4.992  0.201E-01
  5.002  0.176E-01
  5.012  0.166E-01
  5.022  0.158E-01
  5.032  0.154E-01
  5.042  0.154E-01
  5.052  0.199E-01
  5.062  0.279E-01
  5.072  0.427E-01
  5.082  0.488E-01
  5.092  0.512E-01
  5.102  0.572E-01
  5.112  0.632E-01
  5.122  0.552E-01
  5.132  0.421E-01
  5.142  0.341E-01
  5.152  0.265E-01
  5.162  0.204E-01
  5.172  0.156E-01
  5.182  0.119E-01
  5.192  0.912E-02
  5.202  0.709E-02
  5.212  0.554E-02
  5.222  0.429E-02
  5.232  0.324E-02
  5.242  0.236E-02
  5.252  0.161E-02
  5.262  0.920E-03
  5.272  0.201E-03
  5.282 -0.338E-03
  5.292 -0.694E-03
  5.302 -0.867E-03
  5.312 -0.859E-03
  5.322 -0.664E-03
  5.332 -0.281E-03
  5.342 -0.168E-04
  5.352  0.245E-05
  5.362 -0.339E-06
  5.372 -0.308E-05
  5.382 -0.211E-05
  5.392 -0.523E-06
  5.402  0.000E+00
  5.412  0.000E+00
  5.422  0.000E+00
  5.432  0.000E+00
  5.442  0.000E+00
  5.452  0.000E+00
  5.462  0.000E+00
  5.472  0.000E+00
  5.482  0.000E+00
  5.492  0.000E+00
  5.502  0.000E+00
  5.512  0.000E+00
  5.522  0.000E+00
  5.532  0.000E+00
  5.542  0.000E+00
  5.552  0.000E+00
  5.562  0.000E+00
  5.572  0.000E+00
  5.582  0.000E+00
  5.592  0.000E+00
  5.602  0.000E+00
  5.612  0.000E+00
  5.622  0.000E+00
  5.632  0.000E+00
  5.642  0.000E+00
  5.652  0.000E+00
  5.662  0.000E+00
  5.672  0.000E+00
  5.682  0.000E+00
  5.692  0.000E+00
  5.702  0.000E+00
  5.712  0.000E+00
  5.722  0.000E+00
  5.732  0.000E+00
  5.742  0.000E+00
  5.752  0.000E+00
  5.762  0.000E+00
  5.772  0.000E+00
  5.782  0.000E+00
  5.792  0.000E+00
  5.802  0.000E+00
  5.812  0.000E+00
  5.822  0.000E+00
  5.832  0.000E+00
  5.842  0.000E+00
  5.852  0.000E+00
  5.862  0.000E+00
  5.872  0.000E+00
  5.882  0.000E+00
  5.892  0.000E+00
  5.902  0.000E+00
  5.912  0.000E+00
  5.922  0.000E+00
  5.932  0.000E+00
  5.942  0.000E+00
  5.952  0.000E+00
  5.962  0.000E+00
  5.972  0.000E+00
  5.982  0.000E+00
  5.992  0.000E+00
  6.002  0.000E+00
  6.012  0.000E+00
  6.022  0.000E+00
  6.032  0.000E+00
  6.042  0.000E+00
  6.052  0.000E+00
  6.062  0.000E+00
  6.072  0.000E+00
  6.082  0.000E+00
  6.092  0.000E+00
  6.102  0.000E+00
  6.112  0.000E+00
  6.122  0.000E+00
  6.132  0.000E+00
  6.142  0.000E+00
  6.152  0.000E+00
  6.162  0.000E+00
  6.172  0.000E+00
  6.182  0.000E+00
  6.192  0.000E+00
  6.202  0.000E+00
  6.212  0.000E+00
  6.222  0.000E+00
  6.232  0.000E+00
  6.242  0.000E+00
  6.252  0.000E+00
  6.262  0.000E+00
  6.272  0.000E+00
  6.282  0.000E+00
  6.292  0.000E+00
  6.302  0.000E+00
  6.312  0.000E+00
  6.322  0.000E+00
  6.332  0.000E+00
  6.342  0.000E+00
  6.352  0.000E+00
  6.362  0.000E+00
  6.372  0.000E+00
  6.382  0.000E+00
  6.392  0.000E+00
  6.402  0.000E+00
  6.412  0.000E+00
  6.422  0.000E+00
  6.432  0.000E+00
  6.442  0.000E+00
  6.452  0.000E+00
  6.462  0.000E+00
  6.472  0.000E+00
  6.482  0.000E+00
  6.492  0.000E+00
  6.502  0.000E+00
  6.512  0.000E+00
  6.522  0.000E+00
  6.532  0.000E+00
  6.542  0.000E+00
  6.552  0.000E+00
  6.562  0.000E+00
  6.572  0.000E+00
  6.582  0.000E+00
  6.592  0.000E+00
  6.602  0.000E+00
  6.612  0.000E+00
  6.622  0.000E+00
  6.632  0.000E+00
  6.642  0.000E+00
  6.652  0.000E+00
  6.662  0.000E+00
  6.672  0.000E+00
  6.682  0.000E+00
  6.692  0.000E+00
  6.702  0.000E+00
  6.712  0.000E+00
  6.722  0.000E+00
  6.732  0.000E+00
  6.742  0.000E+00
  6.752  0.000E+00
  6.762  0.000E+00
  6.772  0.000E+00
  6.782  0.000E+00
  6.792  0.000E+00
  6.802  0.000E+00
  6.812  0.000E+00
  6.822  0.000E+00
  6.832  0.000E+00
  6.842  0.000E+00
  6.852  0.000E+00
  6.862  0.000E+00
  6.872  0.000E+00
  6.882  0.000E+00
  6.892  0.000E+00
  6.902  0.000E+00
  6.912  0.000E+00
  6.922  0.000E+00
  6.932  0.000E+00
  6.942  0.000E+00
  6.952  0.000E+00
  6.962  0.000E+00
  6.972  0.000E+00
  6.982  0.000E+00
  6.992  0.000E+00
  7.002  0.000E+00
  7.012  0.000E+00
  7.022  0.000E+00
  7.032  0.000E+00
  7.042  0.000E+00
  7.052  0.000E+00
  7.062  0.000E+00
  7.072  0.000E+00
  7.082  0.000E+00
  7.092  0.000E+00
  7.102  0.000E+00
  7.112  0.000E+00
  7.122  0.000E+00
  7.132  0.000E+00
  7.142  0.000E+00
  7.152  0.000E+00
  7.162  0.000E+00
  7.172  0.000E+00
  7.182  0.000E+00
  7.192  0.000E+00
  7.202  0.000E+00
  7.212  0.000E+00
  7.222  0.000E+00
  7.232  0.000E+00
  7.242  0.000E+00
  7.252  0.000E+00
  7.262  0.000E+00
  7.272  0.000E+00
  7.282  0.000E+00
  7.292  0.000E+00
  7.302  0.000E+00
  7.312  0.000E+00
  7.322  0.000E+00
  7.332  0.000E+00
  7.342  0.000E+00
  7.352  0.000E+00
  7.362  0.000E+00
  7.372  0.000E+00
  7.382  0.000E+00
  7.392  0.000E+00
  7.402  0.000E+00
  7.412  0.000E+00
  7.422  0.000E+00
  7.432  0.000E+00
  7.442  0.000E+00
  7.452  0.180E-07
  7.462  0.240E-04
  7.472  0.931E-04
  7.482  0.207E-03
  7.492  0.415E-03
  7.502  0.802E-03
  7.512  0.137E-02
  7.522  0.210E-02
  7.532  0.302E-02
  7.542  0.411E-02
  7.552  0.536E-02
  7.562  0.680E-02
  7.572  0.840E-02
  7.582  0.102E-01
  7.592  0.121E-01
  7.602  0.142E-01
  7.612  0.164E-01
  7.622  0.189E-01
  7.632  0.214E-01
  7.642  0.241E-01
  7.652  0.270E-01
  7.662  0.301E-01
  7.672  0.334E-01
  7.682  0.366E-01
  7.692  0.401E-01
  7.702  0.438E-01
  7.712  0.476E-01
  7.722  0.515E-01
  7.732  0.555E-01
  7.742  0.597E-01
  7.752  0.642E-01
  7.762  0.686E-01
  7.772  0.733E-01
  7.782  0.780E-01
  7.792  0.828E-01
  7.802  0.880E-01
  7.812  0.932E-01
  7.822  0.985E-01
  7.832  0.104E+00
  7.842  0.109E+00
  7.852  0.114E+00
  7.862  0.120E+00
  7.872  0.125E+00
  7.882  0.132E+00
  7.892  0.139E+00
  7.902  0.147E+00
  7.912  0.154E+00
  7.922  0.161E+00
  7.932  0.168E+00
  7.942  0.174E+00
  7.952  0.180E+00
  7.962  0.185E+00
  7.972  0.191E+00
  7.982  0.196E+00
  7.992  0.201E+00
  8.002  0.206E+00
  8.012  0.211E+00
  8.022  0.215E+00
  8.032  0.220E+00
  8.042  0.224E+00
  8.052  0.228E+00
  8.062  0.233E+00
  8.072  0.237E+00
  8.082  0.240E+00
  8.092  0.244E+00
  8.102  0.248E+00
  8.112  0.251E+00
  8.122  0.254E+00
  8.132  0.257E+00
  8.142  0.259E+00
  8.152  0.260E+00
  8.162  0.259E+00
  8.172  0.258E+00
  8.182  0.258E+00
  8.192  0.259E+00
  8.202  0.260E+00
  8.212  0.261E+00
  8.222  0.262E+00
  8.232  0.263E+00
  8.242  0.264E+00
  8.252  0.265E+00
  8.262  0.266E+00
  8.272  0.268E+00
  8.282  0.270E+00
  8.292  0.273E+00
  8.302  0.276E+00
  8.312  0.279E+00
  8.322  0.284E+00