
     Program PWSCF v.7.2 starts on  7Jul2024 at  3:54:49 

     This program is part of the open-source Quantum ESPRESSO suite
     for quantum simulation of materials; please cite
         "P. Giannozzi et al., J. Phys.:Condens. Matter 21 395502 (2009);
         "P. Giannozzi et al., J. Phys.:Condens. Matter 29 465901 (2017);
         "P. Giannozzi et al., J. Chem. Phys. 152 154105 (2020);
          URL http://www.quantum-espresso.org", 
     in publications or presentations arising from this work. More details at
     http://www.quantum-espresso.org/quote

     Parallel version (MPI), running on   784 processors

     MPI processes distributed on     7 nodes
     229673 MiB available memory on the printing compute node when the environment starts
 
     Reading input from 2.Co_vac_in_ZnS.scf.qp2.in

     Current dimensions of program PWSCF are:
     Max number of different atomic species (ntypx) = 10
     Max number of k-points (npk) =  40000
     Max angular momentum in pseudopotentials (lmaxx) =  4
     file S.pbe-n-kjpaw_psl.1.0.0.UPF: wavefunction(s)  3S 3P renormalized
     file Zn.pbe-dnl-kjpaw_psl.1.0.0.UPF: wavefunction(s)  4S 3D renormalized
     file Co.pbe-spn-kjpaw_psl.0.3.1.UPF: wavefunction(s)  3P 3D renormalized
 
     K-points division:     npool     =       7
     R & G space division:  proc/nbgrp/npool/nimage =     112
     Subspace diagonalization in iterative solution of the eigenvalue problem:
     one sub-group per band group will be used
     scalapack distributed-memory algorithm (size of sub-group:  3*  3 procs)

 
     Parallelization info
     --------------------
     sticks:   dense  smooth     PW     G-vecs:    dense   smooth      PW
     Min         180     180     46                19282    19282    2562
     Max         181     181     47                19291    19291    2573
     Sum       20217   20217   5249              2160009  2160009  287777
 
     Using Slab Decomposition
 


     bravais-lattice index     =            1
     lattice parameter (alat)  =      20.5686  a.u.
     unit-cell volume          =    8701.8437 (a.u.)^3
     number of atoms/cell      =           63
     number of atomic types    =            3
     number of electrons       =       573.00
     number of Kohn-Sham states=          344
     kinetic-energy cutoff     =     150.0000  Ry
     charge density cutoff     =     600.0000  Ry
     scf convergence threshold =      1.0E-08
     mixing beta               =       0.7000
     number of iterations used =            8  plain     mixing
     Exchange-correlation= SLA  PW   PBX  PBC
                           (   1   4   3   4   0   0   0)

     celldm(1)=  20.568554  celldm(2)=   0.000000  celldm(3)=   0.000000
     celldm(4)=   0.000000  celldm(5)=   0.000000  celldm(6)=   0.000000

     crystal axes: (cart. coord. in units of alat)
               a(1) = (   1.000000   0.000000   0.000000 )  
               a(2) = (   0.000000   1.000000   0.000000 )  
               a(3) = (   0.000000   0.000000   1.000000 )  

     reciprocal axes: (cart. coord. in units 2 pi/alat)
               b(1) = (  1.000000  0.000000  0.000000 )  
               b(2) = (  0.000000  1.000000  0.000000 )  
               b(3) = (  0.000000  0.000000  1.000000 )  


     PseudoPot. # 1 for S  read from file:
     /arf/home/amuhaymin/pseudo/S.pbe-n-kjpaw_psl.1.0.0.UPF
     MD5 check sum: fb45dfebcf3e72a4e1bd4a866ec2e262
     Pseudo is Projector augmented-wave + core cor, Zval =  6.0
     Generated using &quot;atomic&quot; code by A. Dal Corso  v.6.3
     Shape of augmentation charge: PSQ
     Using radial grid of 1151 points,  6 beta functions with: 
                l(1) =   0
                l(2) =   0
                l(3) =   1
                l(4) =   1
                l(5) =   2
                l(6) =   2
     Q(r) pseudized with 0 coefficients 


     PseudoPot. # 2 for Zn read from file:
     /arf/home/amuhaymin/pseudo/Zn.pbe-dnl-kjpaw_psl.1.0.0.UPF
     MD5 check sum: c608214d9520ac179f507641260889e3
     Pseudo is Projector augmented-wave + core cor, Zval = 12.0
     Generated using &quot;atomic&quot; code by A. Dal Corso  v.6.2.2
     Shape of augmentation charge: PSQ
     Using radial grid of 1201 points,  6 beta functions with: 
                l(1) =   0
                l(2) =   0
                l(3) =   1
                l(4) =   1
                l(5) =   2
                l(6) =   2
     Q(r) pseudized with 0 coefficients 


     PseudoPot. # 3 for Co read from file:
     /arf/home/amuhaymin/pseudo/Co.pbe-spn-kjpaw_psl.0.3.1.UPF
     MD5 check sum: b0a1ad65bf214e88c1f3d33b20c7d919
     Pseudo is Projector augmented-wave + core cor, Zval = 17.0
     Generated using &quot;atomic&quot; code by A. Dal Corso  v.6.2.2
     Shape of augmentation charge: PSQ
     Using radial grid of 1193 points,  6 beta functions with: 
                l(1) =   0
                l(2) =   0
                l(3) =   1
                l(4) =   1
                l(5) =   2
                l(6) =   2
     Q(r) pseudized with 0 coefficients 


     atomic species   valence    mass     pseudopotential
        S              6.00    32.06500     S ( 1.00)
        Zn            12.00    65.38000     Zn( 1.00)
        Co            17.00    63.54600     Co( 1.00)

     Starting magnetic structure 
     atomic species   magnetization
        S            0.000
        Zn           0.000
        Co           0.294

      6 Sym. Ops. (no inversion) found


                                    s                        frac. trans.

      isym =  1     identity                                     

 cryst.   s( 1) = (     1          0          0      )
                  (     0          1          0      )
                  (     0          0          1      )

 cart.    s( 1) = (  1.0000000  0.0000000  0.0000000 )
                  (  0.0000000  1.0000000  0.0000000 )
                  (  0.0000000  0.0000000  1.0000000 )


      isym =  2     120 deg rotation - cart. axis [-1,-1,-1]     

 cryst.   s( 2) = (     0          0          1      )
                  (     1          0          0      )
                  (     0          1          0      )

 cart.    s( 2) = (  0.0000000  1.0000000  0.0000000 )
                  (  0.0000000  0.0000000  1.0000000 )
                  (  1.0000000  0.0000000  0.0000000 )


      isym =  3     120 deg rotation - cart. axis [1,1,1]        

 cryst.   s( 3) = (     0          1          0      )
                  (     0          0          1      )
                  (     1          0          0      )

 cart.    s( 3) = (  0.0000000  0.0000000  1.0000000 )
                  (  1.0000000  0.0000000  0.0000000 )
                  (  0.0000000  1.0000000  0.0000000 )


      isym =  4     inv. 180 deg rotation - cart. axis [1,-1,0]  

 cryst.   s( 4) = (     0          1          0      )
                  (     1          0          0      )
                  (     0          0          1      )

 cart.    s( 4) = (  0.0000000  1.0000000  0.0000000 )
                  (  1.0000000  0.0000000  0.0000000 )
                  (  0.0000000  0.0000000  1.0000000 )


      isym =  5     inv. 180 deg rotation - cart. axis [-1,0,1]  

 cryst.   s( 5) = (     0          0          1      )
                  (     0          1          0      )
                  (     1          0          0      )

 cart.    s( 5) = (  0.0000000  0.0000000  1.0000000 )
                  (  0.0000000  1.0000000  0.0000000 )
                  (  1.0000000  0.0000000  0.0000000 )


      isym =  6     inv. 180 deg rotation - cart. axis [0,1,-1]  

 cryst.   s( 6) = (     1          0          0      )
                  (     0          0          1      )
                  (     0          1          0      )

 cart.    s( 6) = (  1.0000000  0.0000000  0.0000000 )
                  (  0.0000000  0.0000000  1.0000000 )
                  (  0.0000000  1.0000000  0.0000000 )


     point group C_3v (3m)  
     there are  3 classes
     the character table:

       E     2C3   3s_v 
A_1    1.00  1.00  1.00
A_2    1.00  1.00 -1.00
E      2.00 -1.00  0.00

     the symmetry operations in each class and the name of the first element:

     E        1
          identity                                               
     2C3      2    3
          120 deg rotation - cart. axis [-1,-1,-1]               
     3s_v     4    5    6
          inv. 180 deg rotation - cart. axis [1,-1,0]            

   Cartesian axes

     site n.     atom                  positions (alat units)
         1           Zn  tau(   1) = (   0.0002635   0.0002635   0.0002635  )
         2           Zn  tau(   2) = (   0.0000735   0.2492345   0.2492345  )
         3           Zn  tau(   3) = (   0.2492345   0.0000735   0.2492345  )
         4           Zn  tau(   4) = (   0.2492345   0.2492345   0.0000735  )
         5           S   tau(   5) = (   0.1243634   0.3744312   0.3744312  )
         6           S   tau(   6) = (   0.1247218   0.1247218   0.1247218  )
         7           S   tau(   7) = (   0.3744312   0.3744312   0.1243634  )
         8           S   tau(   8) = (   0.3744312   0.1243634   0.3744312  )
         9           Zn  tau(   9) = (   0.0023303   0.0023303   0.4988833  )
        10           Zn  tau(  10) = (   0.0021237   0.2474729   0.7503292  )
        11           Zn  tau(  11) = (   0.2474729   0.0021237   0.7503292  )
        12           Zn  tau(  12) = (   0.2487464   0.2487464   0.4981482  )
        13           S   tau(  13) = (   0.1250552   0.3747427   0.8743548  )
        14           S   tau(  14) = (   0.1253977   0.1253977   0.6242407  )
        15           S   tau(  15) = (   0.3752168   0.3752168   0.6229553  )
        16           S   tau(  16) = (   0.3747427   0.1250552   0.8743548  )
        17           Zn  tau(  17) = (   0.0023303   0.4988833   0.0023303  )
        18           Zn  tau(  18) = (   0.0021237   0.7503292   0.2474729  )
        19           Zn  tau(  19) = (   0.2487464   0.4981482   0.2487464  )
        20           Zn  tau(  20) = (   0.2474729   0.7503292   0.0021237  )
        21           S   tau(  21) = (   0.1250552   0.8743548   0.3747427  )
        22           S   tau(  22) = (   0.1253977   0.6242407   0.1253977  )
        23           S   tau(  23) = (   0.3747427   0.8743548   0.1250552  )
        24           S   tau(  24) = (   0.3752168   0.6229553   0.3752168  )
        25           Zn  tau(  25) = (   0.0035417   0.5001295   0.5001295  )
        26           Zn  tau(  26) = (   0.0035797   0.7494405   0.7494405  )
        27           Zn  tau(  27) = (   0.2479407   0.4994214   0.7489760  )
        28           Zn  tau(  28) = (   0.2479407   0.7489760   0.4994214  )
        29           S   tau(  29) = (   0.1250862   0.8749715   0.8749715  )
        30           S   tau(  30) = (   0.1257173   0.6246890   0.6246890  )
        31           S   tau(  31) = (   0.3736195   0.8763352   0.6223528  )
        32           S   tau(  32) = (   0.3736195   0.6223528   0.8763352  )
        33           Zn  tau(  33) = (   0.4988833   0.0023303   0.0023303  )
        34           Zn  tau(  34) = (   0.4981482   0.2487464   0.2487464  )
        35           Zn  tau(  35) = (   0.7503292   0.0021237   0.2474729  )
        36           Zn  tau(  36) = (   0.7503292   0.2474729   0.0021237  )
        37           S   tau(  37) = (   0.6229553   0.3752168   0.3752168  )
        38           S   tau(  38) = (   0.6242407   0.1253977   0.1253977  )
        39           S   tau(  39) = (   0.8743548   0.3747427   0.1250552  )
        40           S   tau(  40) = (   0.8743548   0.1250552   0.3747427  )
        41           Zn  tau(  41) = (   0.5001295   0.0035417   0.5001295  )
        42           Zn  tau(  42) = (   0.4994214   0.2479407   0.7489760  )
        43           Zn  tau(  43) = (   0.7494405   0.0035797   0.7494405  )
        44           Zn  tau(  44) = (   0.7489760   0.2479407   0.4994214  )
        45           S   tau(  45) = (   0.6223528   0.3736195   0.8763352  )
        46           S   tau(  46) = (   0.6246890   0.1257173   0.6246890  )
        47           S   tau(  47) = (   0.8763352   0.3736195   0.6223528  )
        48           S   tau(  48) = (   0.8749715   0.1250862   0.8749715  )
        49           Zn  tau(  49) = (   0.5001295   0.5001295   0.0035417  )
        50           Zn  tau(  50) = (   0.4994214   0.7489760   0.2479407  )
        51           Zn  tau(  51) = (   0.7489760   0.4994214   0.2479407  )
        52           Zn  tau(  52) = (   0.7494405   0.7494405   0.0035797  )
        53           S   tau(  53) = (   0.6223528   0.8763352   0.3736195  )
        54           S   tau(  54) = (   0.6246890   0.6246890   0.1257173  )
        55           S   tau(  55) = (   0.8749715   0.8749715   0.1250862  )
        56           S   tau(  56) = (   0.8763352   0.6223528   0.3736195  )
        57           Co  tau(  57) = (   0.4776964   0.4776964   0.4776964  )
        58           Zn  tau(  58) = (   0.4696620   0.7803811   0.7803811  )
        59           Zn  tau(  59) = (   0.7803811   0.4696620   0.7803811  )
        60           Zn  tau(  60) = (   0.7803811   0.7803811   0.4696620  )
        61           S   tau(  61) = (   0.6273684   0.8766568   0.8766568  )
        62           S   tau(  62) = (   0.8766568   0.8766568   0.6273684  )
        63           S   tau(  63) = (   0.8766568   0.6273684   0.8766568  )

   Crystallographic axes

     site n.     atom                  positions (cryst. coord.)
         1           Zn  tau(   1) = (  0.0002635  0.0002635  0.0002635  )
         2           Zn  tau(   2) = (  0.0000735  0.2492345  0.2492345  )
         3           Zn  tau(   3) = (  0.2492345  0.0000735  0.2492345  )
         4           Zn  tau(   4) = (  0.2492345  0.2492345  0.0000735  )
         5           S   tau(   5) = (  0.1243634  0.3744312  0.3744312  )
         6           S   tau(   6) = (  0.1247218  0.1247218  0.1247218  )
         7           S   tau(   7) = (  0.3744312  0.3744312  0.1243634  )
         8           S   tau(   8) = (  0.3744312  0.1243634  0.3744312  )
         9           Zn  tau(   9) = (  0.0023303  0.0023303  0.4988833  )
        10           Zn  tau(  10) = (  0.0021237  0.2474729  0.7503292  )
        11           Zn  tau(  11) = (  0.2474729  0.0021237  0.7503292  )
        12           Zn  tau(  12) = (  0.2487464  0.2487464  0.4981482  )
        13           S   tau(  13) = (  0.1250552  0.3747427  0.8743548  )
        14           S   tau(  14) = (  0.1253977  0.1253977  0.6242407  )
        15           S   tau(  15) = (  0.3752168  0.3752168  0.6229553  )
        16           S   tau(  16) = (  0.3747427  0.1250552  0.8743548  )
        17           Zn  tau(  17) = (  0.0023303  0.4988833  0.0023303  )
        18           Zn  tau(  18) = (  0.0021237  0.7503292  0.2474729  )
        19           Zn  tau(  19) = (  0.2487464  0.4981482  0.2487464  )
        20           Zn  tau(  20) = (  0.2474729  0.7503292  0.0021237  )
        21           S   tau(  21) = (  0.1250552  0.8743548  0.3747427  )
        22           S   tau(  22) = (  0.1253977  0.6242407  0.1253977  )
        23           S   tau(  23) = (  0.3747427  0.8743548  0.1250552  )
        24           S   tau(  24) = (  0.3752168  0.6229553  0.3752168  )
        25           Zn  tau(  25) = (  0.0035417  0.5001295  0.5001295  )
        26           Zn  tau(  26) = (  0.0035797  0.7494405  0.7494405  )
        27           Zn  tau(  27) = (  0.2479407  0.4994214  0.7489760  )
        28           Zn  tau(  28) = (  0.2479407  0.7489760  0.4994214  )
        29           S   tau(  29) = (  0.1250862  0.8749715  0.8749715  )
        30           S   tau(  30) = (  0.1257173  0.6246890  0.6246890  )
        31           S   tau(  31) = (  0.3736195  0.8763352  0.6223528  )
        32           S   tau(  32) = (  0.3736195  0.6223528  0.8763352  )
        33           Zn  tau(  33) = (  0.4988833  0.0023303  0.0023303  )
        34           Zn  tau(  34) = (  0.4981482  0.2487464  0.2487464  )
        35           Zn  tau(  35) = (  0.7503292  0.0021237  0.2474729  )
        36           Zn  tau(  36) = (  0.7503292  0.2474729  0.0021237  )
        37           S   tau(  37) = (  0.6229553  0.3752168  0.3752168  )
        38           S   tau(  38) = (  0.6242407  0.1253977  0.1253977  )
        39           S   tau(  39) = (  0.8743548  0.3747427  0.1250552  )
        40           S   tau(  40) = (  0.8743548  0.1250552  0.3747427  )
        41           Zn  tau(  41) = (  0.5001295  0.0035417  0.5001295  )
        42           Zn  tau(  42) = (  0.4994214  0.2479407  0.7489760  )
        43           Zn  tau(  43) = (  0.7494405  0.0035797  0.7494405  )
        44           Zn  tau(  44) = (  0.7489760  0.2479407  0.4994214  )
        45           S   tau(  45) = (  0.6223528  0.3736195  0.8763352  )
        46           S   tau(  46) = (  0.6246890  0.1257173  0.6246890  )
        47           S   tau(  47) = (  0.8763352  0.3736195  0.6223528  )
        48           S   tau(  48) = (  0.8749715  0.1250862  0.8749715  )
        49           Zn  tau(  49) = (  0.5001295  0.5001295  0.0035417  )
        50           Zn  tau(  50) = (  0.4994214  0.7489760  0.2479407  )
        51           Zn  tau(  51) = (  0.7489760  0.4994214  0.2479407  )
        52           Zn  tau(  52) = (  0.7494405  0.7494405  0.0035797  )
        53           S   tau(  53) = (  0.6223528  0.8763352  0.3736195  )
        54           S   tau(  54) = (  0.6246890  0.6246890  0.1257173  )
        55           S   tau(  55) = (  0.8749715  0.8749715  0.1250862  )
        56           S   tau(  56) = (  0.8763352  0.6223528  0.3736195  )
        57           Co  tau(  57) = (  0.4776964  0.4776964  0.4776964  )
        58           Zn  tau(  58) = (  0.4696620  0.7803811  0.7803811  )
        59           Zn  tau(  59) = (  0.7803811  0.4696620  0.7803811  )
        60           Zn  tau(  60) = (  0.7803811  0.7803811  0.4696620  )
        61           S   tau(  61) = (  0.6273684  0.8766568  0.8766568  )
        62           S   tau(  62) = (  0.8766568  0.8766568  0.6273684  )
        63           S   tau(  63) = (  0.8766568  0.6273684  0.8766568  )

     number of k points=    13  Gaussian smearing, width (Ry)=  0.0010
                       cart. coord. in units 2pi/alat
        k(    1) = (   0.0000000   0.0000000   0.0000000), wk =   0.0156250
        k(    2) = (   0.0000000   0.0000000   0.2500000), wk =   0.0937500
        k(    3) = (   0.0000000   0.0000000  -0.5000000), wk =   0.0468750
        k(    4) = (   0.0000000   0.2500000   0.2500000), wk =   0.0937500
        k(    5) = (   0.0000000   0.2500000  -0.5000000), wk =   0.1875000
        k(    6) = (   0.0000000  -0.5000000  -0.5000000), wk =   0.0468750
        k(    7) = (   0.2500000   0.2500000   0.2500000), wk =   0.0312500
        k(    8) = (   0.2500000   0.2500000  -0.5000000), wk =   0.0937500
        k(    9) = (   0.2500000  -0.5000000  -0.5000000), wk =   0.0937500
        k(   10) = (  -0.5000000  -0.5000000  -0.5000000), wk =   0.0156250
        k(   11) = (  -0.2500000   0.0000000   0.2500000), wk =   0.0937500
        k(   12) = (   0.2500000  -0.2500000   0.2500000), wk =   0.0937500
        k(   13) = (   0.2500000  -0.2500000  -0.5000000), wk =   0.0937500

                       cryst. coord.
        k(    1) = (   0.0000000   0.0000000   0.0000000), wk =   0.0156250
        k(    2) = (   0.0000000   0.0000000   0.2500000), wk =   0.0937500
        k(    3) = (   0.0000000   0.0000000  -0.5000000), wk =   0.0468750
        k(    4) = (   0.0000000   0.2500000   0.2500000), wk =   0.0937500
        k(    5) = (   0.0000000   0.2500000  -0.5000000), wk =   0.1875000
        k(    6) = (   0.0000000  -0.5000000  -0.5000000), wk =   0.0468750
        k(    7) = (   0.2500000   0.2500000   0.2500000), wk =   0.0312500
        k(    8) = (   0.2500000   0.2500000  -0.5000000), wk =   0.0937500
        k(    9) = (   0.2500000  -0.5000000  -0.5000000), wk =   0.0937500
        k(   10) = (  -0.5000000  -0.5000000  -0.5000000), wk =   0.0156250
        k(   11) = (  -0.2500000   0.0000000   0.2500000), wk =   0.0937500
        k(   12) = (   0.2500000  -0.2500000   0.2500000), wk =   0.0937500
        k(   13) = (   0.2500000  -0.2500000  -0.5000000), wk =   0.0937500

     Dense  grid:  2160009 G-vectors     FFT dimensions: ( 162, 162, 162)

     Dynamical RAM for                 wfc:      12.65 MB

     Dynamical RAM for     wfc (w. buffer):      63.25 MB

     Dynamical RAM for           str. fact:       0.88 MB

     Dynamical RAM for           local pot:       0.00 MB

     Dynamical RAM for          nlocal pot:      41.70 MB

     Dynamical RAM for                qrad:       5.90 MB

     Dynamical RAM for          rho,v,vnew:       4.17 MB

     Dynamical RAM for               rhoin:       1.39 MB

     Dynamical RAM for            rho*nmix:       9.42 MB

     Dynamical RAM for           G-vectors:       1.25 MB

     Dynamical RAM for          h,s,v(r/c):       2.40 MB

     Dynamical RAM for          <psi|beta>:       5.95 MB

     Dynamical RAM for                 psi:      25.30 MB

     Dynamical RAM for                hpsi:      25.30 MB

     Dynamical RAM for                spsi:      25.30 MB

     Dynamical RAM for      wfcinit/wfcrot:      34.28 MB

     Dynamical RAM for           addusdens:       9.67 MB

     Estimated static dynamical RAM per process >     122.12 MB

     Estimated max dynamical RAM per process >     215.79 MB

     Estimated total dynamical RAM >     159.03 GB

     Check: negative core charge=   -0.000001
     Generating pointlists ...
     new r_m :   0.0846 (alat units)  1.7410 (a.u.) for type    1
     new r_m :   0.0859 (alat units)  1.7676 (a.u.) for type    2
     new r_m :   0.0846 (alat units)  1.7410 (a.u.) for type    3

     Initial potential from superposition of free atoms

     starting charge     574.8832, renormalised to     573.0000
     Starting wfcs are  413 randomized atomic wfcs
     Checking if some PAW data can be deallocated... 
       PAW data deallocated on  400 nodes for type:  1
       PAW data deallocated on  396 nodes for type:  2
       PAW data deallocated on  772 nodes for type:  3

     total cpu time spent up to now is       12.6 secs

     Self-consistent Calculation

     iteration #  1     ecut=   150.00 Ry     beta= 0.70
     Davidson diagonalization with overlap

---- Real-time Memory Report at c_bands before calling an iterative solver
          1317 MiB given to the printing process from OS
             0 MiB allocation reported by mallinfo(arena+hblkhd)
        202959 MiB available memory on the node where the printing process lives
------------------
     ethr =  1.00E-02,  avg # of iterations =  4.2

     Threshold (ethr) on eigenvalues was too large:
     Diagonalizing with lowered threshold

     Davidson diagonalization with overlap

---- Real-time Memory Report at c_bands before calling an iterative solver
          1437 MiB given to the printing process from OS
             0 MiB allocation reported by mallinfo(arena+hblkhd)
        199963 MiB available memory on the node where the printing process lives
------------------
     ethr =  5.09E-04,  avg # of iterations =  2.4

     total cpu time spent up to now is       52.0 secs

     total energy              =   -9990.75722561 Ry
     estimated scf accuracy    <       2.80910405 Ry

     total magnetization       =     3.00 Bohr mag/cell
     absolute magnetization    =     3.04 Bohr mag/cell

     iteration #  2     ecut=   150.00 Ry     beta= 0.70
     Davidson diagonalization with overlap

---- Real-time Memory Report at c_bands before calling an iterative solver
          1450 MiB given to the printing process from OS
             0 MiB allocation reported by mallinfo(arena+hblkhd)
        199944 MiB available memory on the node where the printing process lives
------------------
     ethr =  4.90E-04,  avg # of iterations =  5.4

     total cpu time spent up to now is       78.2 secs

     total energy              =   -9990.71216287 Ry
     estimated scf accuracy    <       2.78213589 Ry

     total magnetization       =     3.07 Bohr mag/cell
     absolute magnetization    =     4.04 Bohr mag/cell

     iteration #  3     ecut=   150.00 Ry     beta= 0.70
     Davidson diagonalization with overlap

---- Real-time Memory Report at c_bands before calling an iterative solver
          1471 MiB given to the printing process from OS
             0 MiB allocation reported by mallinfo(arena+hblkhd)
        199533 MiB available memory on the node where the printing process lives
------------------
     ethr =  4.86E-04,  avg # of iterations =  5.2

     total cpu time spent up to now is       99.9 secs

     total energy              =   -9991.13750636 Ry
     estimated scf accuracy    <      11.08633548 Ry

     total magnetization       =     0.11 Bohr mag/cell
     absolute magnetization    =     0.47 Bohr mag/cell

     iteration #  4     ecut=   150.00 Ry     beta= 0.70
     Davidson diagonalization with overlap

---- Real-time Memory Report at c_bands before calling an iterative solver
          1484 MiB given to the printing process from OS
             0 MiB allocation reported by mallinfo(arena+hblkhd)
        199398 MiB available memory on the node where the printing process lives
------------------
     ethr =  4.86E-04,  avg # of iterations =  3.8

     total cpu time spent up to now is      118.4 secs

     total energy              =   -9991.61838127 Ry
     estimated scf accuracy    <       0.28477894 Ry

     total magnetization       =     3.00 Bohr mag/cell
     absolute magnetization    =     3.06 Bohr mag/cell

     iteration #  5     ecut=   150.00 Ry     beta= 0.70
     Davidson diagonalization with overlap

---- Real-time Memory Report at c_bands before calling an iterative solver
          1493 MiB given to the printing process from OS
             0 MiB allocation reported by mallinfo(arena+hblkhd)
        199190 MiB available memory on the node where the printing process lives
------------------
     ethr =  4.97E-05,  avg # of iterations = 14.5

     total cpu time spent up to now is      152.9 secs

     total energy              =   -9991.69337288 Ry
     estimated scf accuracy    <       0.05331516 Ry

     total magnetization       =     3.00 Bohr mag/cell
     absolute magnetization    =     3.06 Bohr mag/cell

     iteration #  6     ecut=   150.00 Ry     beta= 0.70
     Davidson diagonalization with overlap

---- Real-time Memory Report at c_bands before calling an iterative solver
          1514 MiB given to the printing process from OS
             0 MiB allocation reported by mallinfo(arena+hblkhd)
        198921 MiB available memory on the node where the printing process lives
------------------
     c_bands:  1 eigenvalues not converged
     ethr =  9.30E-06,  avg # of iterations = 14.0

     total cpu time spent up to now is      188.9 secs

     total energy              =   -9991.70259832 Ry
     estimated scf accuracy    <       0.01198242 Ry

     total magnetization       =     3.00 Bohr mag/cell
     absolute magnetization    =     3.05 Bohr mag/cell

     iteration #  7     ecut=   150.00 Ry     beta= 0.70
     Davidson diagonalization with overlap

---- Real-time Memory Report at c_bands before calling an iterative solver
          1531 MiB given to the printing process from OS
             0 MiB allocation reported by mallinfo(arena+hblkhd)
        198723 MiB available memory on the node where the printing process lives
------------------
     ethr =  2.09E-06,  avg # of iterations = 10.9

     total cpu time spent up to now is      225.0 secs

     total energy              =   -9991.70527089 Ry
     estimated scf accuracy    <       0.00185926 Ry

     total magnetization       =     3.00 Bohr mag/cell
     absolute magnetization    =     3.04 Bohr mag/cell

     iteration #  8     ecut=   150.00 Ry     beta= 0.70
     Davidson diagonalization with overlap

---- Real-time Memory Report at c_bands before calling an iterative solver
          1548 MiB given to the printing process from OS
             0 MiB allocation reported by mallinfo(arena+hblkhd)
        198450 MiB available memory on the node where the printing process lives
------------------
     ethr =  3.24E-07,  avg # of iterations =  3.7

     total cpu time spent up to now is      245.7 secs

     total energy              =   -9991.70564625 Ry
     estimated scf accuracy    <       0.00036505 Ry

     total magnetization       =     3.00 Bohr mag/cell
     absolute magnetization    =     3.04 Bohr mag/cell

     iteration #  9     ecut=   150.00 Ry     beta= 0.70
     Davidson diagonalization with overlap

---- Real-time Memory Report at c_bands before calling an iterative solver
          1556 MiB given to the printing process from OS
             0 MiB allocation reported by mallinfo(arena+hblkhd)
        198286 MiB available memory on the node where the printing process lives
------------------
     ethr =  6.37E-08,  avg # of iterations =  5.9

     total cpu time spent up to now is      269.3 secs

     total energy              =   -9991.70574799 Ry
     estimated scf accuracy    <       0.00007016 Ry

     total magnetization       =     3.00 Bohr mag/cell
     absolute magnetization    =     3.04 Bohr mag/cell

     iteration # 10     ecut=   150.00 Ry     beta= 0.70
     Davidson diagonalization with overlap

---- Real-time Memory Report at c_bands before calling an iterative solver
          1566 MiB given to the printing process from OS
             0 MiB allocation reported by mallinfo(arena+hblkhd)
        198056 MiB available memory on the node where the printing process lives
------------------
     ethr =  1.22E-08,  avg # of iterations =  4.7

     total cpu time spent up to now is      290.3 secs

     total energy              =   -9991.70576394 Ry
     estimated scf accuracy    <       0.00003640 Ry

     total magnetization       =     3.00 Bohr mag/cell
     absolute magnetization    =     3.04 Bohr mag/cell

     iteration # 11     ecut=   150.00 Ry     beta= 0.70
     Davidson diagonalization with overlap

---- Real-time Memory Report at c_bands before calling an iterative solver
          1572 MiB given to the printing process from OS
             0 MiB allocation reported by mallinfo(arena+hblkhd)
        197879 MiB available memory on the node where the printing process lives
------------------
     ethr =  6.35E-09,  avg # of iterations =  3.0

     total cpu time spent up to now is      309.4 secs

     total energy              =   -9991.70577108 Ry
     estimated scf accuracy    <       0.00000700 Ry

     total magnetization       =     3.00 Bohr mag/cell
     absolute magnetization    =     3.04 Bohr mag/cell

     iteration # 12     ecut=   150.00 Ry     beta= 0.70
     Davidson diagonalization with overlap

---- Real-time Memory Report at c_bands before calling an iterative solver
          1578 MiB given to the printing process from OS
             0 MiB allocation reported by mallinfo(arena+hblkhd)
        197883 MiB available memory on the node where the printing process lives
------------------
     ethr =  1.22E-09,  avg # of iterations =  4.6

     total cpu time spent up to now is      331.3 secs

     total energy              =   -9991.70577232 Ry
     estimated scf accuracy    <       0.00000239 Ry

     total magnetization       =     3.00 Bohr mag/cell
     absolute magnetization    =     3.04 Bohr mag/cell

     iteration # 13     ecut=   150.00 Ry     beta= 0.70
     Davidson diagonalization with overlap

---- Real-time Memory Report at c_bands before calling an iterative solver
          1582 MiB given to the printing process from OS
             0 MiB allocation reported by mallinfo(arena+hblkhd)
        197857 MiB available memory on the node where the printing process lives
------------------
     ethr =  4.18E-10,  avg # of iterations =  5.5

     total cpu time spent up to now is      353.7 secs

     total energy              =   -9991.70577263 Ry
     estimated scf accuracy    <       0.00000491 Ry

     total magnetization       =     3.00 Bohr mag/cell
     absolute magnetization    =     3.04 Bohr mag/cell

     iteration # 14     ecut=   150.00 Ry     beta= 0.70
     Davidson diagonalization with overlap

---- Real-time Memory Report at c_bands before calling an iterative solver
          1589 MiB given to the printing process from OS
             0 MiB allocation reported by mallinfo(arena+hblkhd)
        197816 MiB available memory on the node where the printing process lives
------------------
     ethr =  4.18E-10,  avg # of iterations =  5.0

     total cpu time spent up to now is      373.5 secs

     total energy              =   -9991.70577340 Ry
     estimated scf accuracy    <       0.00000038 Ry

     total magnetization       =     3.00 Bohr mag/cell
     absolute magnetization    =     3.04 Bohr mag/cell

     iteration # 15     ecut=   150.00 Ry     beta= 0.70
     Davidson diagonalization with overlap

---- Real-time Memory Report at c_bands before calling an iterative solver
          1592 MiB given to the printing process from OS
             0 MiB allocation reported by mallinfo(arena+hblkhd)
        197796 MiB available memory on the node where the printing process lives
------------------
     ethr =  6.60E-11,  avg # of iterations =  4.5

     total cpu time spent up to now is      394.4 secs

     total energy              =   -9991.70577350 Ry
     estimated scf accuracy    <       0.00000015 Ry

     total magnetization       =     3.00 Bohr mag/cell
     absolute magnetization    =     3.04 Bohr mag/cell

     iteration # 16     ecut=   150.00 Ry     beta= 0.70
     Davidson diagonalization with overlap

---- Real-time Memory Report at c_bands before calling an iterative solver
          1597 MiB given to the printing process from OS
             0 MiB allocation reported by mallinfo(arena+hblkhd)
        197810 MiB available memory on the node where the printing process lives
------------------
     ethr =  2.64E-11,  avg # of iterations =  5.0

     total cpu time spent up to now is      415.2 secs

     total energy              =   -9991.70577355 Ry
     estimated scf accuracy    <       0.00000002 Ry

     total magnetization       =     3.00 Bohr mag/cell
     absolute magnetization    =     3.04 Bohr mag/cell

     iteration # 17     ecut=   150.00 Ry     beta= 0.70
     Davidson diagonalization with overlap

---- Real-time Memory Report at c_bands before calling an iterative solver
          1601 MiB given to the printing process from OS
             0 MiB allocation reported by mallinfo(arena+hblkhd)
        197808 MiB available memory on the node where the printing process lives
------------------
     ethr =  3.52E-12,  avg # of iterations =  4.8

     total cpu time spent up to now is      438.7 secs

     total energy              =   -9991.70577356 Ry
     estimated scf accuracy    <       0.00000001 Ry

     total magnetization       =     3.00 Bohr mag/cell
     absolute magnetization    =     3.04 Bohr mag/cell

     iteration # 18     ecut=   150.00 Ry     beta= 0.70
     Davidson diagonalization with overlap

---- Real-time Memory Report at c_bands before calling an iterative solver
          1607 MiB given to the printing process from OS
             0 MiB allocation reported by mallinfo(arena+hblkhd)
        197731 MiB available memory on the node where the printing process lives
------------------
     ethr =  2.08E-12,  avg # of iterations =  4.3
 
     Magnetic moment per site  (integrated on atomic sphere of radius R)
     atom   1 (R=0.086)  charge=  9.9924  magn=  0.0001
     atom   2 (R=0.086)  charge=  9.9928  magn=  0.0001
     atom   3 (R=0.086)  charge=  9.9928  magn=  0.0001
     atom   4 (R=0.086)  charge=  9.9928  magn=  0.0001
     atom   5 (R=0.085)  charge=  3.6200  magn=  0.0011
     atom   6 (R=0.085)  charge=  3.6195  magn=  0.0010
     atom   7 (R=0.085)  charge=  3.6200  magn=  0.0011
     atom   8 (R=0.085)  charge=  3.6200  magn=  0.0011
     atom   9 (R=0.086)  charge=  9.9924  magn=  0.0011
     atom  10 (R=0.086)  charge=  9.9937  magn=  0.0002
     atom  11 (R=0.086)  charge=  9.9937  magn=  0.0002
     atom  12 (R=0.086)  charge=  9.9948  magn=  0.0008
     atom  13 (R=0.085)  charge=  3.6169  magn=  0.0069
     atom  14 (R=0.085)  charge=  3.6253  magn=  0.0019
     atom  15 (R=0.085)  charge=  3.6228  magn=  0.0645
     atom  16 (R=0.085)  charge=  3.6169  magn=  0.0069
     atom  17 (R=0.086)  charge=  9.9924  magn=  0.0011
     atom  18 (R=0.086)  charge=  9.9937  magn=  0.0002
     atom  19 (R=0.086)  charge=  9.9948  magn=  0.0008
     atom  20 (R=0.086)  charge=  9.9937  magn=  0.0002
     atom  21 (R=0.085)  charge=  3.6169  magn=  0.0069
     atom  22 (R=0.085)  charge=  3.6253  magn=  0.0019
     atom  23 (R=0.085)  charge=  3.6169  magn=  0.0069
     atom  24 (R=0.085)  charge=  3.6228  magn=  0.0645
     atom  25 (R=0.086)  charge=  9.9951  magn=  0.0001
     atom  26 (R=0.086)  charge=  9.9938  magn=  0.0005
     atom  27 (R=0.086)  charge=  9.9925  magn=  0.0063
     atom  28 (R=0.086)  charge=  9.9925  magn=  0.0063
     atom  29 (R=0.085)  charge=  3.6183  magn=  0.0007
     atom  30 (R=0.085)  charge=  3.6265  magn=  0.0029
     atom  31 (R=0.085)  charge=  3.6206  magn=  0.0010
     atom  32 (R=0.085)  charge=  3.6206  magn=  0.0010
     atom  33 (R=0.086)  charge=  9.9924  magn=  0.0011
     atom  34 (R=0.086)  charge=  9.9948  magn=  0.0008
     atom  35 (R=0.086)  charge=  9.9937  magn=  0.0002
     atom  36 (R=0.086)  charge=  9.9937  magn=  0.0002
     atom  37 (R=0.085)  charge=  3.6228  magn=  0.0645
     atom  38 (R=0.085)  charge=  3.6253  magn=  0.0019
     atom  39 (R=0.085)  charge=  3.6169  magn=  0.0069
     atom  40 (R=0.085)  charge=  3.6169  magn=  0.0069
     atom  41 (R=0.086)  charge=  9.9951  magn=  0.0001
     atom  42 (R=0.086)  charge=  9.9925  magn=  0.0063
     atom  43 (R=0.086)  charge=  9.9938  magn=  0.0005
     atom  44 (R=0.086)  charge=  9.9925  magn=  0.0063
     atom  45 (R=0.085)  charge=  3.6206  magn=  0.0010
     atom  46 (R=0.085)  charge=  3.6265  magn=  0.0029
     atom  47 (R=0.085)  charge=  3.6206  magn=  0.0010
     atom  48 (R=0.085)  charge=  3.6183  magn=  0.0007
     atom  49 (R=0.086)  charge=  9.9951  magn=  0.0001
     atom  50 (R=0.086)  charge=  9.9925  magn=  0.0063
     atom  51 (R=0.086)  charge=  9.9925  magn=  0.0063
     atom  52 (R=0.086)  charge=  9.9938  magn=  0.0005
     atom  53 (R=0.085)  charge=  3.6206  magn=  0.0010
     atom  54 (R=0.085)  charge=  3.6265  magn=  0.0029
     atom  55 (R=0.085)  charge=  3.6183  magn=  0.0007
     atom  56 (R=0.085)  charge=  3.6206  magn=  0.0010
     atom  57 (R=0.085)  charge= 14.8918  magn=  2.1955
     atom  58 (R=0.086)  charge= 10.0111  magn=  0.0001
     atom  59 (R=0.086)  charge= 10.0111  magn=  0.0001
     atom  60 (R=0.086)  charge= 10.0111  magn=  0.0001
     atom  61 (R=0.085)  charge=  3.6201  magn=  0.0008
     atom  62 (R=0.085)  charge=  3.6201  magn=  0.0008
     atom  63 (R=0.085)  charge=  3.6201  magn=  0.0008

     total cpu time spent up to now is      458.7 secs

     End of self-consistent calculation

 ------ SPIN UP ------------


          k = 0.0000 0.0000 0.0000 (269825 PWs)   bands (ev):

   -90.6667 -54.1164 -54.1164 -53.5941  -7.6108  -7.1356  -7.1356  -7.1239
    -7.0951  -7.0951  -6.9789  -6.8729  -6.8729  -6.8697  -6.8039  -6.8014
    -6.8014  -6.7584  -6.7584  -6.7353  -6.7353  -6.7242  -6.6739  -6.6453
    -6.6453  -6.6424  -6.5766  -6.5133  -6.5133  -6.4112  -6.4033  -6.4033
    -6.3549  -6.3549  -6.3310  -1.0746  -1.0744  -1.0744  -1.0632  -1.0531
    -1.0531  -1.0486  -1.0486  -1.0326  -0.9577  -0.9416  -0.9416  -0.9190
    -0.9190  -0.9063  -0.8046  -0.8046  -0.7978  -0.7541  -0.7541  -0.7487
    -0.7312  -0.7312  -0.7147  -0.6916  -0.6910  -0.6910  -0.6833  -0.6755
    -0.6755  -0.6672  -0.6658  -0.6658  -0.6635  -0.6635  -0.6519  -0.6516
    -0.6492  -0.6492  -0.6456  -0.6304  -0.6302  -0.6302  -0.6280  -0.6252
    -0.6252  -0.6240  -0.6240  -0.6139  -0.6114  -0.6114  -0.6108  -0.6068
    -0.6068  -0.5991  -0.5947  -0.5947  -0.5844  -0.5784  -0.5784  -0.5689
    -0.5654  -0.5654  -0.5478  -0.5478  -0.5473  -0.5242  -0.5242  -0.5203
    -0.5203  -0.5167  -0.5111  -0.5111  -0.4976  -0.4943  -0.4881  -0.4881
    -0.4695  -0.4682  -0.4682  -0.4568  -0.4521  -0.4521  -0.4493  -0.4491
    -0.4491  -0.4172  -0.4172  -0.4169  -0.3857  -0.3532  -0.3532  -0.3402
    -0.3357  -0.3357  -0.3339  -0.3250  -0.3250  -0.3217  -0.3190  -0.3181
    -0.3155  -0.3155  -0.3100  -0.3100  -0.3065  -0.3065  -0.2929  -0.2917
    -0.2917  -0.2913  -0.2839  -0.2833  -0.2833  -0.2810  -0.2797  -0.2797
    -0.2639  -0.2639  -0.2561  -0.2545  -0.2526  -0.2526  -0.2514  -0.2514
    -0.2398  -0.2316  -0.2311  -0.2311  -0.2282  -0.2282  -0.2088  -0.2088
    -0.1961  -0.1788  -0.1766  -0.1766  -0.1738  -0.1559  -0.1559  -0.1529
    -0.1529  -0.1504  -0.1287  -0.1287  -0.0984  -0.0938  -0.0938  -0.0812
     0.0539   0.0539   0.0688   0.0767   0.0972   0.0972   0.1247   0.3412
     0.3467   0.3467   0.9014   0.9014   0.9239   0.9742   0.9742   0.9816
     1.0182   1.0182   1.0499   1.2921   1.2921   1.3792   1.4817   1.4817
     1.5127   1.5500   1.5701   1.5701   1.6872   1.6872   1.7569   2.0609
     2.0609   2.5682   2.5682   2.6310   2.6597   2.6628   2.6628   2.7320
     2.7358   2.7358   2.7552   2.8415   2.8484   2.8484   2.8806   2.8827
     2.8827   2.9325   2.9480   2.9480   2.9568   2.9700   2.9700   3.0078
     3.0339   3.0339   3.1291   3.1291   3.2049   3.2263   3.2263   3.2824
     3.2956   3.3574   3.3574   3.6825   3.6825   3.7906   3.8744   3.8744
     4.1351   4.1687   4.1687   4.1838   4.2239   4.2239   4.2581   4.3255
     4.3255   4.3705   4.3858   4.3858   4.4707   4.4866   4.4866   4.5266
     4.5757   4.5958   4.5958   4.6227   4.6227   4.6269   4.6313   4.6331
     4.6331   4.7481   4.7481   4.8963   4.8963   5.3532   5.4434   5.4434
     7.3332   7.9789   8.6693   8.6818   8.6818   8.7878   9.0402   9.0402
     9.3394   9.3394   9.3999   9.5615   9.6154   9.6154   9.6995   9.7054
     9.7054   9.8960   9.8960   9.9596  10.0151  10.0151  10.0408  10.0634
    10.0634  10.0882  10.1175  10.1499  10.1715  10.1715  10.1866  10.1866
    10.2977  10.3576  10.3576  10.6876  10.6876  10.8682  11.1493  11.1788
    11.1788  11.3191  11.3191  11.3353  11.3566  11.3615  11.3615  11.7917
    11.7917  11.8111  11.8203  11.8204  11.9111  11.9776  12.0311  12.0311

     occupation numbers 
     1.0000   1.0000   1.0000   1.0000   1.0000   1.0000   1.0000   1.0000
     1.0000   1.0000   1.0000   1.0000   1.0000   1.0000   1.0000   1.0000
     1.0000   1.0000   1.0000   1.0000   1.0000   1.0000   1.0000   1.0000
     1.0000   1.0000   1.0000   1.0000   1.0000   1.0000   1.0000   1.0000
     1.0000   1.0000   1.0000   1.0000   1.0000   1.0000   1.0000   1.0000
     1.0000   1.0000   1.0000   1.0000   1.0000   1.0000   1.0000   1.0000
     1.0000   1.0000   1.0000   1.0000   1.0000   1.0000   1.0000   1.0000
     1.0000   1.0000   1.0000   1.0000   1.0000   1.0000   1.0000   1.0000
     1.0000   1.0000   1.0000   1.0000   1.0000   1.0000   1.0000   1.0000
     1.0000   1.0000   1.0000   1.0000   1.0000   1.0000   1.0000   1.0000
     1.0000   1.0000   1.0000   1.0000   1.0000   1.0000   1.0000   1.0000
     1.0000   1.0000   1.0000   1.0000   1.0000   1.0000   1.0000   1.0000
     1.0000   1.0000   1.0000   1.0000   1.0000   1.0000   1.0000   1.0000
     1.0000   1.0000   1.0000   1.0000   1.0000   1.0000   1.0000   1.0000
     1.0000   1.0000   1.0000   1.0000   1.0000   1.0000   1.0000   1.0000
     1.0000   1.0000   1.0000   1.0000   1.0000   1.0000   1.0000   1.0000
     1.0000   1.0000   1.0000   1.0000   1.0000   1.0000   1.0000   1.0000
     1.0000   1.0000   1.0000   1.0000   1.0000   1.0000   1.0000   1.0000
     1.0000   1.0000   1.0000   1.0000   1.0000   1.0000   1.0000   1.0000
     1.0000   1.0000   1.0000   1.0000   1.0000   1.0000   1.0000   1.0000
     1.0000   1.0000   1.0000   1.0000   1.0000   1.0000   1.0000   1.0000
     1.0000   1.0000   1.0000   1.0000   1.0000   1.0000   1.0000   1.0000
     1.0000   1.0000   1.0000   1.0000   1.0000   1.0000   1.0000   1.0000
     1.0000   1.0000   1.0000   1.0000   1.0000   1.0000   1.0000   1.0000
     1.0000   1.0000   1.0000   1.0000   1.0000   1.0000   1.0000   1.0000
     1.0000   1.0000   1.0000   1.0000   1.0000   1.0000   1.0000   1.0000
     1.0000   1.0000   1.0000   1.0000   1.0000   1.0000   1.0000   1.0000
     1.0000   1.0000   1.0000   1.0000   1.0000   1.0000   1.0000   1.0000
     1.0000   1.0000   1.0000   1.0000   1.0000   1.0000   1.0000   1.0000
     1.0000   1.0000   1.0000   1.0000   1.0000   1.0000   1.0000   1.0000
     1.0000   1.0000   1.0000   1.0000   1.0000   1.0000   1.0000   1.0000
     1.0000   1.0000   1.0000   1.0000   1.0000   1.0000   1.0000   1.0000
     1.0000   1.0000   1.0000   1.0000   1.0000   1.0000   1.0000   1.0000
     1.0000   1.0000   1.0000   1.0000   1.0000   1.0000   1.0000   1.0000
     1.0000   1.0000   1.0000   1.0000   1.0000   1.0000   1.0000   1.0000
     1.0000   1.0000   1.0000   1.0000   1.0000   1.0000   1.0000   1.0000
     0.0000   0.0000   0.0000   0.0000   0.0000   0.0000   0.0000   0.0000
     0.0000   0.0000   0.0000   0.0000   0.0000   0.0000   0.0000   0.0000
     0.0000   0.0000   0.0000   0.0000   0.0000   0.0000   0.0000   0.0000
     0.0000   0.0000   0.0000   0.0000   0.0000   0.0000   0.0000   0.0000
     0.0000   0.0000   0.0000   0.0000   0.0000   0.0000   0.0000   0.0000
     0.0000   0.0000   0.0000   0.0000   0.0000   0.0000   0.0000   0.0000
     0.0000   0.0000   0.0000   0.0000   0.0000   0.0000   0.0000   0.0000

          k = 0.0000 0.0000 0.2500 (269876 PWs)   bands (ev):

   -90.6667 -54.1164 -54.1164 -53.5941  -7.5742  -7.3052  -7.1168  -7.1088
    -7.0717  -6.9994  -6.9313  -6.9286  -6.9115  -6.9011  -6.8678  -6.8002
    -6.7865  -6.7846  -6.7374  -6.7317  -6.7009  -6.6634  -6.6577  -6.6449
    -6.5999  -6.5981  -6.5651  -6.5252  -6.5247  -6.4294  -6.4228  -6.4018
    -6.3833  -6.3660  -6.3379  -1.0741  -1.0726  -1.0724  -1.0627  -1.0541
    -1.0520  -1.0477  -1.0466  -1.0345  -0.9534  -0.9418  -0.9381  -0.9222
    -0.9181  -0.9094  -0.7974  -0.7916  -0.7878  -0.7577  -0.7482  -0.7463
    -0.7271  -0.7252  -0.7106  -0.6992  -0.6955  -0.6916  -0.6910  -0.6872
    -0.6781  -0.6740  -0.6718  -0.6663  -0.6647  -0.6625  -0.6588  -0.6542
    -0.6522  -0.6467  -0.6437  -0.6427  -0.6404  -0.6357  -0.6328  -0.6297
    -0.6263  -0.6232  -0.6217  -0.6211  -0.6162  -0.6141  -0.6088  -0.6068
    -0.6031  -0.6026  -0.5939  -0.5910  -0.5871  -0.5804  -0.5798  -0.5718
    -0.5693  -0.5684  -0.5604  -0.5583  -0.5543  -0.5517  -0.5361  -0.5342
    -0.5246  -0.5200  -0.5109  -0.5063  -0.5059  -0.4994  -0.4974  -0.4806
    -0.4780  -0.4683  -0.4629  -0.4501  -0.4437  -0.4343  -0.4334  -0.4236
    -0.4079  -0.4007  -0.3946  -0.3936  -0.3678  -0.3636  -0.3607  -0.3494
    -0.3385  -0.3294  -0.3237  -0.3209  -0.3206  -0.3181  -0.3171  -0.3133
    -0.3125  -0.3102  -0.3066  -0.3058  -0.3048  -0.3012  -0.2977  -0.2936
    -0.2928  -0.2923  -0.2874  -0.2844  -0.2823  -0.2781  -0.2764  -0.2672
    -0.2667  -0.2634  -0.2585  -0.2543  -0.2536  -0.2496  -0.2491  -0.2461
    -0.2405  -0.2366  -0.2346  -0.2293  -0.2273  -0.2193  -0.2182  -0.2124
    -0.2069  -0.1964  -0.1773  -0.1770  -0.1704  -0.1656  -0.1613  -0.1612
    -0.1554  -0.1516  -0.1489  -0.1407  -0.1377  -0.1242  -0.1121  -0.0956
     0.0219   0.0332   0.0485   0.0570   0.0673   0.0734   0.3218   0.5072
     0.5182   0.5211   0.8842   0.8970   0.9267   0.9447   0.9770   0.9820
     0.9895   1.0310   1.1208   1.1797   1.1841   1.2289   1.2596   1.2863
     1.3972   1.4128   1.4392   1.6949   1.7139   1.9184   1.9318   2.0767
     2.1070   2.3033   2.4270   2.4730   2.5243   2.5516   2.5725   2.6314
     2.6550   2.6822   2.7003   2.7703   2.8105   2.8307   2.8592   2.8660
     2.9235   2.9586   3.0368   3.1038   3.1604   3.1624   3.1794   3.2143
     3.2407   3.2704   3.2993   3.3065   3.3196   3.3341   3.3394   3.3823
     3.4266   3.4464   3.5868   3.6583   3.6940   3.7963   3.8349   3.9182
     3.9440   3.9789   4.0741   4.1124   4.1596   4.1803   4.2350   4.2790
     4.3056   4.3208   4.3277   4.3439   4.3796   4.3825   4.4589   4.4808
     4.4845   4.5617   4.5761   4.5952   4.6219   4.6261   4.6473   4.6602
     4.6741   4.7118   4.7552   4.8452   4.9101   5.0925   5.2940   5.3543
     7.6973   8.1406   8.8438   8.8689   8.8696   8.9875   9.1162   9.1653
     9.2600   9.3373   9.3968   9.5059   9.5776   9.7045   9.7054   9.7410
     9.7762   9.7998   9.8812   9.9551   9.9630   9.9816  10.0136  10.0519
    10.1100  10.1156  10.1583  10.1855  10.2227  10.2260  10.2759  10.2793
    10.3126  10.4247  10.4297  10.6705  10.7205  10.7406  10.8410  10.9062
    10.9132  11.0176  11.0304  11.2111  11.2869  11.3879  11.4949  11.5865
    11.6034  11.6344  11.6927  11.8065  11.8178  11.8181  11.8469  11.8698

     occupation numbers 
     1.0000   1.0000   1.0000   1.0000   1.0000   1.0000   1.0000   1.0000
     1.0000   1.0000   1.0000   1.0000   1.0000   1.0000   1.0000   1.0000
     1.0000   1.0000   1.0000   1.0000   1.0000   1.0000   1.0000   1.0000
     1.0000   1.0000   1.0000   1.0000   1.0000   1.0000   1.0000   1.0000
     1.0000   1.0000   1.0000   1.0000   1.0000   1.0000   1.0000   1.0000
     1.0000   1.0000   1.0000   1.0000   1.0000   1.0000   1.0000   1.0000
     1.0000   1.0000   1.0000   1.0000   1.0000   1.0000   1.0000   1.0000
     1.0000   1.0000   1.0000   1.0000   1.0000   1.0000   1.0000   1.0000
     1.0000   1.0000   1.0000   1.0000   1.0000   1.0000   1.0000   1.0000
     1.0000   1.0000   1.0000   1.0000   1.0000   1.0000   1.0000   1.0000
     1.0000   1.0000   1.0000   1.0000   1.0000   1.0000   1.0000   1.0000
     1.0000   1.0000   1.0000   1.0000   1.0000   1.0000   1.0000   1.0000
     1.0000   1.0000   1.0000   1.0000   1.0000   1.0000   1.0000   1.0000
     1.0000   1.0000   1.0000   1.0000   1.0000   1.0000   1.0000   1.0000
     1.0000   1.0000   1.0000   1.0000   1.0000   1.0000   1.0000   1.0000
     1.0000   1.0000   1.0000   1.0000   1.0000   1.0000   1.0000   1.0000
     1.0000   1.0000   1.0000   1.0000   1.0000   1.0000   1.0000   1.0000
     1.0000   1.0000   1.0000   1.0000   1.0000   1.0000   1.0000   1.0000
     1.0000   1.0000   1.0000   1.0000   1.0000   1.0000   1.0000   1.0000
     1.0000   1.0000   1.0000   1.0000   1.0000   1.0000   1.0000   1.0000
     1.0000   1.0000   1.0000   1.0000   1.0000   1.0000   1.0000   1.0000
     1.0000   1.0000   1.0000   1.0000   1.0000   1.0000   1.0000   1.0000
     1.0000   1.0000   1.0000   1.0000   1.0000   1.0000   1.0000   1.0000
     1.0000   1.0000   1.0000   1.0000   1.0000   1.0000   1.0000   1.0000
     1.0000   1.0000   1.0000   1.0000   1.0000   1.0000   1.0000   1.0000
     1.0000   1.0000   1.0000   1.0000   1.0000   1.0000   1.0000   1.0000
     1.0000   1.0000   1.0000   1.0000   1.0000   1.0000   1.0000   1.0000
     1.0000   1.0000   1.0000   1.0000   1.0000   1.0000   1.0000   1.0000
     1.0000   1.0000   1.0000   1.0000   1.0000   1.0000   1.0000   1.0000
     1.0000   1.0000   1.0000   1.0000   1.0000   1.0000   1.0000   1.0000
     1.0000   1.0000   1.0000   1.0000   1.0000   1.0000   1.0000   1.0000
     1.0000   1.0000   1.0000   1.0000   1.0000   1.0000   1.0000   1.0000
     1.0000   1.0000   1.0000   1.0000   1.0000   1.0000   1.0000   1.0000
     1.0000   1.0000   1.0000   1.0000   1.0000   1.0000   1.0000   1.0000
     1.0000   1.0000   1.0000   1.0000   1.0000   1.0000   1.0000   1.0000
     1.0000   1.0000   1.0000   1.0000   1.0000   1.0000   1.0000   1.0000
     0.0000   0.0000   0.0000   0.0000   0.0000   0.0000   0.0000   0.0000
     0.0000   0.0000   0.0000   0.0000   0.0000   0.0000   0.0000   0.0000
     0.0000   0.0000   0.0000   0.0000   0.0000   0.0000   0.0000   0.0000
     0.0000   0.0000   0.0000   0.0000   0.0000   0.0000   0.0000   0.0000
     0.0000   0.0000   0.0000   0.0000   0.0000   0.0000   0.0000   0.0000
     0.0000   0.0000   0.0000   0.0000   0.0000   0.0000   0.0000   0.0000
     0.0000   0.0000   0.0000   0.0000   0.0000   0.0000   0.0000   0.0000

          k = 0.0000 0.0000-0.5000 (270152 PWs)   bands (ev):

   -90.6667 -54.1164 -54.1164 -53.5941  -7.4770  -7.4588  -7.0874  -7.0785
    -7.0163  -6.9898  -6.9858  -6.9837  -6.9559  -6.9246  -6.8715  -6.7795
    -6.7774  -6.7395  -6.7346  -6.7242  -6.7036  -6.6476  -6.6405  -6.6040
    -6.5898  -6.5576  -6.5468  -6.5456  -6.4767  -6.4630  -6.4560  -6.4465
    -6.3926  -6.3834  -6.3400  -1.0727  -1.0715  -1.0701  -1.0626  -1.0549
    -1.0514  -1.0469  -1.0437  -1.0371  -0.9479  -0.9419  -0.9332  -0.9266
    -0.9172  -0.9138  -0.7893  -0.7685  -0.7654  -0.7631  -0.7462  -0.7442
    -0.7245  -0.7229  -0.7128  -0.7088  -0.7046  -0.7044  -0.7021  -0.6901
    -0.6858  -0.6830  -0.6799  -0.6651  -0.6646  -0.6632  -0.6631  -0.6592
    -0.6583  -0.6549  -0.6500  -0.6454  -0.6454  -0.6401  -0.6342  -0.6297
    -0.6270  -0.6236  -0.6203  -0.6196  -0.6173  -0.6147  -0.6131  -0.6071
    -0.6056  -0.6053  -0.5992  -0.5990  -0.5886  -0.5857  -0.5793  -0.5776
    -0.5652  -0.5632  -0.5609  -0.5601  -0.5548  -0.5539  -0.5365  -0.5284
    -0.5230  -0.5193  -0.5166  -0.5087  -0.5030  -0.4968  -0.4884  -0.4866
    -0.4855  -0.4765  -0.4513  -0.4460  -0.4287  -0.4218  -0.4197  -0.4140
    -0.4058  -0.3833  -0.3828  -0.3812  -0.3679  -0.3617  -0.3586  -0.3499
    -0.3497  -0.3424  -0.3386  -0.3386  -0.3231  -0.3226  -0.3143  -0.3126
    -0.3117  -0.3107  -0.3067  -0.3044  -0.3031  -0.3019  -0.2975  -0.2970
    -0.2944  -0.2931  -0.2926  -0.2896  -0.2835  -0.2789  -0.2775  -0.2702
    -0.2604  -0.2602  -0.2580  -0.2568  -0.2562  -0.2526  -0.2477  -0.2465
    -0.2369  -0.2364  -0.2354  -0.2339  -0.2306  -0.2237  -0.2182  -0.2161
    -0.2123  -0.2016  -0.1833  -0.1793  -0.1785  -0.1637  -0.1613  -0.1606
    -0.1524  -0.1459  -0.1426  -0.1211  -0.1000  -0.0841  -0.0833  -0.0417
    -0.0352  -0.0323  -0.0121   0.0064   0.0265   0.0685   0.6466   0.7006
     0.7653   0.8423   0.8478   0.8491   0.8525   0.9052   0.9275   0.9368
     0.9569   1.0012   1.0019   1.0081   1.0273   1.0483   1.0863   1.2669
     1.3210   1.3239   1.5322   1.6219   1.6904   1.8838   2.1949   2.2106
     2.2890   2.3150   2.3574   2.3761   2.3808   2.4343   2.4687   2.4866
     2.4994   2.5546   2.6304   2.6744   2.7602   2.7659   2.8821   2.9535
     3.0307   3.0493   3.0522   3.0702   3.1214   3.1335   3.2304   3.3109
     3.5050   3.5294   3.5749   3.6012   3.6119   3.6306   3.6673   3.6896
     3.7218   3.7383   3.7489   3.7650   3.7666   3.7759   3.7996   3.8167
     3.8421   3.8463   3.8783   3.8903   3.9204   3.9601   3.9937   3.9972
     4.0300   4.1493   4.2491   4.2892   4.3260   4.4132   4.4616   4.4670
     4.4771   4.5376   4.5576   4.5743   4.5805   4.6215   4.6232   4.6289
     4.6709   4.7139   4.8013   4.8179   4.9976   5.0177   5.0601   5.1984
     8.2166   8.4557   8.5591   9.0014   9.1505   9.1890   9.1990   9.3334
     9.4370   9.4581   9.4658   9.5017   9.5903   9.6281   9.6433   9.6842
     9.7492   9.7779   9.8451   9.8505   9.9504   9.9541  10.0436  10.0689
    10.0921  10.0937  10.1203  10.1444  10.2252  10.2754  10.3058  10.3345
    10.4633  10.5712  10.5896  10.6357  10.6479  10.6718  10.7634  10.7665
    10.7985  10.8916  10.9293  11.0318  11.0591  11.0770  11.2124  11.2526
    11.4228  11.4585  11.5148  11.5712  11.5974  11.7100  11.7407  11.7682

     occupation numbers 
     1.0000   1.0000   1.0000   1.0000   1.0000   1.0000   1.0000   1.0000
     1.0000   1.0000   1.0000   1.0000   1.0000   1.0000   1.0000   1.0000
     1.0000   1.0000   1.0000   1.0000   1.0000   1.0000   1.0000   1.0000
     1.0000   1.0000   1.0000   1.0000   1.0000   1.0000   1.0000   1.0000
     1.0000   1.0000   1.0000   1.0000   1.0000   1.0000   1.0000   1.0000
     1.0000   1.0000   1.0000   1.0000   1.0000   1.0000   1.0000   1.0000
     1.0000   1.0000   1.0000   1.0000   1.0000   1.0000   1.0000   1.0000
     1.0000   1.0000   1.0000   1.0000   1.0000   1.0000   1.0000   1.0000
     1.0000   1.0000   1.0000   1.0000   1.0000   1.0000   1.0000   1.0000
     1.0000   1.0000   1.0000   1.0000   1.0000   1.0000   1.0000   1.0000
     1.0000   1.0000   1.0000   1.0000   1.0000   1.0000   1.0000   1.0000
     1.0000   1.0000   1.0000   1.0000   1.0000   1.0000   1.0000   1.0000
     1.0000   1.0000   1.0000   1.0000   1.0000   1.0000   1.0000   1.0000
     1.0000   1.0000   1.0000   1.0000   1.0000   1.0000   1.0000   1.0000
     1.0000   1.0000   1.0000   1.0000   1.0000   1.0000   1.0000   1.0000
     1.0000   1.0000   1.0000   1.0000   1.0000   1.0000   1.0000   1.0000
     1.0000   1.0000   1.0000   1.0000   1.0000   1.0000   1.0000   1.0000
     1.0000   1.0000   1.0000   1.0000   1.0000   1.0000   1.0000   1.0000
     1.0000   1.0000   1.0000   1.0000   1.0000   1.0000   1.0000   1.0000
     1.0000   1.0000   1.0000   1.0000   1.0000   1.0000   1.0000   1.0000
     1.0000   1.0000   1.0000   1.0000   1.0000   1.0000   1.0000   1.0000
     1.0000   1.0000   1.0000   1.0000   1.0000   1.0000   1.0000   1.0000
     1.0000   1.0000   1.0000   1.0000   1.0000   1.0000   1.0000   1.0000
     1.0000   1.0000   1.0000   1.0000   1.0000   1.0000   1.0000   1.0000
     1.0000   1.0000   1.0000   1.0000   1.0000   1.0000   1.0000   1.0000
     1.0000   1.0000   1.0000   1.0000   1.0000   1.0000   1.0000   1.0000
     1.0000   1.0000   1.0000   1.0000   1.0000   1.0000   1.0000   1.0000
     1.0000   1.0000   1.0000   1.0000   1.0000   1.0000   1.0000   1.0000
     1.0000   1.0000   1.0000   1.0000   1.0000   1.0000   1.0000   1.0000
     1.0000   1.0000   1.0000   1.0000   1.0000   1.0000   1.0000   1.0000
     1.0000   1.0000   1.0000   1.0000   1.0000   1.0000   1.0000   1.0000
     1.0000   1.0000   1.0000   1.0000   1.0000   1.0000   1.0000   1.0000
     1.0000   1.0000   1.0000   1.0000   1.0000   1.0000   1.0000   1.0000
     1.0000   1.0000   1.0000   1.0000   1.0000   1.0000   1.0000   1.0000
     1.0000   1.0000   1.0000   1.0000   1.0000   1.0000   1.0000   1.0000
     1.0000   1.0000   1.0000   1.0000   1.0000   1.0000   1.0000   1.0000
     0.0000   0.0000   0.0000   0.0000   0.0000   0.0000   0.0000   0.0000
     0.0000   0.0000   0.0000   0.0000   0.0000   0.0000   0.0000   0.0000
     0.0000   0.0000   0.0000   0.0000   0.0000   0.0000   0.0000   0.0000
     0.0000   0.0000   0.0000   0.0000   0.0000   0.0000   0.0000   0.0000
     0.0000   0.0000   0.0000   0.0000   0.0000   0.0000   0.0000   0.0000
     0.0000   0.0000   0.0000   0.0000   0.0000   0.0000   0.0000   0.0000
     0.0000   0.0000   0.0000   0.0000   0.0000   0.0000   0.0000   0.0000

          k = 0.0000 0.2500 0.2500 (269929 PWs)   bands (ev):

   -90.6667 -54.1164 -54.1164 -53.5941  -7.5385  -7.2969  -7.2543  -7.0983
    -7.0557  -7.0130  -6.9328  -6.9255  -6.8998  -6.8819  -6.8583  -6.8225
    -6.7665  -6.7587  -6.7559  -6.7277  -6.6779  -6.6466  -6.6401  -6.6017
    -6.5984  -6.5873  -6.5501  -6.5477  -6.5225  -6.4440  -6.4277  -6.4163
    -6.3906  -6.3903  -6.3508  -1.0737  -1.0714  -1.0714  -1.0609  -1.0547
    -1.0522  -1.0463  -1.0449  -1.0358  -0.9494  -0.9394  -0.9377  -0.9229
    -0.9196  -0.9114  -0.7891  -0.7802  -0.7792  -0.7589  -0.7458  -0.7436
    -0.7213  -0.7210  -0.7060  -0.7024  -0.7014  -0.6939  -0.6915  -0.6910
    -0.6883  -0.6761  -0.6747  -0.6717  -0.6693  -0.6668  -0.6641  -0.6563
    -0.6507  -0.6505  -0.6451  -0.6441  -0.6404  -0.6374  -0.6369  -0.6320
    -0.6276  -0.6272  -0.6253  -0.6227  -0.6208  -0.6186  -0.6150  -0.6053
    -0.6040  -0.6016  -0.5922  -0.5880  -0.5839  -0.5801  -0.5793  -0.5737
    -0.5700  -0.5633  -0.5603  -0.5576  -0.5484  -0.5469  -0.5467  -0.5299
    -0.5280  -0.5247  -0.5163  -0.5142  -0.5049  -0.4979  -0.4965  -0.4941
    -0.4873  -0.4816  -0.4664  -0.4561  -0.4481  -0.4461  -0.4442  -0.4212
    -0.4068  -0.3944  -0.3796  -0.3784  -0.3739  -0.3691  -0.3662  -0.3569
    -0.3528  -0.3492  -0.3337  -0.3289  -0.3230  -0.3196  -0.3149  -0.3125
    -0.3100  -0.3088  -0.3052  -0.3031  -0.3004  -0.2986  -0.2955  -0.2935
    -0.2906  -0.2877  -0.2876  -0.2843  -0.2833  -0.2729  -0.2722  -0.2659
    -0.2646  -0.2614  -0.2589  -0.2555  -0.2523  -0.2501  -0.2451  -0.2449
    -0.2419  -0.2371  -0.2370  -0.2241  -0.2199  -0.2128  -0.2125  -0.2032
    -0.1964  -0.1941  -0.1812  -0.1727  -0.1723  -0.1601  -0.1552  -0.1537
    -0.1509  -0.1468  -0.1462  -0.1376  -0.1144  -0.0871  -0.0761  -0.0543
    -0.0076   0.0172   0.0225   0.0452   0.0545   0.0667   0.3110   0.4578
     0.7252   0.7918   0.8191   0.8566   0.8904   0.9246   0.9514   0.9670
     0.9883   1.0342   1.0354   1.0797   1.1149   1.1591   1.1963   1.3563
     1.4065   1.4593   1.5274   1.5909   1.7238   1.7817   1.8902   1.9853
     2.1713   2.2377   2.3417   2.4155   2.4565   2.4681   2.4925   2.5914
     2.6551   2.6622   2.7031   2.7637   2.8778   2.9265   2.9398   2.9514
     3.0261   3.0683   3.0732   3.1352   3.1658   3.1964   3.2240   3.2901
     3.3259   3.3333   3.3465   3.3725   3.3748   3.4530   3.4748   3.4980
     3.5135   3.5605   3.6133   3.6925   3.7723   3.7988   3.8502   3.8865
     3.8947   3.9669   4.0020   4.0348   4.0585   4.1376   4.1520   4.1784
     4.2150   4.2445   4.2790   4.2978   4.3392   4.3739   4.4006   4.4450
     4.4797   4.4913   4.5226   4.5307   4.5763   4.6167   4.6378   4.6530
     4.6988   4.7431   4.7635   4.8389   4.9050   5.0000   5.2373   5.4117
     7.9278   8.2614   8.8940   8.9185   9.0958   9.0991   9.2259   9.3086
     9.3108   9.3257   9.3786   9.4857   9.4977   9.6646   9.7173   9.7606
     9.7694   9.8210   9.8308   9.8528   9.8768   9.9247   9.9790   9.9843
     9.9933  10.0452  10.0548  10.1723  10.2103  10.2370  10.2650  10.4197
    10.4932  10.5268  10.5884  10.5919  10.6677  10.7926  10.8157  10.8664
    10.8668  10.9432  10.9692  11.0730  11.1476  11.2930  11.3555  11.3813
    11.4643  11.5094  11.5858  11.6687  11.6888  11.7160  11.7409  11.7934

     occupation numbers 
     1.0000   1.0000   1.0000   1.0000   1.0000   1.0000   1.0000   1.0000
     1.0000   1.0000   1.0000   1.0000   1.0000   1.0000   1.0000   1.0000
     1.0000   1.0000   1.0000   1.0000   1.0000   1.0000   1.0000   1.0000
     1.0000   1.0000   1.0000   1.0000   1.0000   1.0000   1.0000   1.0000
     1.0000   1.0000   1.0000   1.0000   1.0000   1.0000   1.0000   1.0000
     1.0000   1.0000   1.0000   1.0000   1.0000   1.0000   1.0000   1.0000
     1.0000   1.0000   1.0000   1.0000   1.0000   1.0000   1.0000   1.0000
     1.0000   1.0000   1.0000   1.0000   1.0000   1.0000   1.0000   1.0000
     1.0000   1.0000   1.0000   1.0000   1.0000   1.0000   1.0000   1.0000
     1.0000   1.0000   1.0000   1.0000   1.0000   1.0000   1.0000   1.0000
     1.0000   1.0000   1.0000   1.0000   1.0000   1.0000   1.0000   1.0000
     1.0000   1.0000   1.0000   1.0000   1.0000   1.0000   1.0000   1.0000
     1.0000   1.0000   1.0000   1.0000   1.0000   1.0000   1.0000   1.0000
     1.0000   1.0000   1.0000   1.0000   1.0000   1.0000   1.0000   1.0000
     1.0000   1.0000   1.0000   1.0000   1.0000   1.0000   1.0000   1.0000
     1.0000   1.0000   1.0000   1.0000   1.0000   1.0000   1.0000   1.0000
     1.0000   1.0000   1.0000   1.0000   1.0000   1.0000   1.0000   1.0000
     1.0000   1.0000   1.0000   1.0000   1.0000   1.0000   1.0000   1.0000
     1.0000   1.0000   1.0000   1.0000   1.0000   1.0000   1.0000   1.0000
     1.0000   1.0000   1.0000   1.0000   1.0000   1.0000   1.0000   1.0000
     1.0000   1.0000   1.0000   1.0000   1.0000   1.0000   1.0000   1.0000
     1.0000   1.0000   1.0000   1.0000   1.0000   1.0000   1.0000   1.0000
     1.0000   1.0000   1.0000   1.0000   1.0000   1.0000   1.0000   1.0000
     1.0000   1.0000   1.0000   1.0000   1.0000   1.0000   1.0000   1.0000
     1.0000   1.0000   1.0000   1.0000   1.0000   1.0000   1.0000   1.0000
     1.0000   1.0000   1.0000   1.0000   1.0000   1.0000   1.0000   1.0000
     1.0000   1.0000   1.0000   1.0000   1.0000   1.0000   1.0000   1.0000
     1.0000   1.0000   1.0000   1.0000   1.0000   1.0000   1.0000   1.0000
     1.0000   1.0000   1.0000   1.0000   1.0000   1.0000   1.0000   1.0000
     1.0000   1.0000   1.0000   1.0000   1.0000   1.0000   1.0000   1.0000
     1.0000   1.0000   1.0000   1.0000   1.0000   1.0000   1.0000   1.0000
     1.0000   1.0000   1.0000   1.0000   1.0000   1.0000   1.0000   1.0000
     1.0000   1.0000   1.0000   1.0000   1.0000   1.0000   1.0000   1.0000
     1.0000   1.0000   1.0000   1.0000   1.0000   1.0000   1.0000   1.0000
     1.0000   1.0000   1.0000   1.0000   1.0000   1.0000   1.0000   1.0000
     1.0000   1.0000   1.0000   1.0000   1.0000   1.0000   1.0000   1.0000
     0.0000   0.0000   0.0000   0.0000   0.0000   0.0000   0.0000   0.0000
     0.0000   0.0000   0.0000   0.0000   0.0000   0.0000   0.0000   0.0000
     0.0000   0.0000   0.0000   0.0000   0.0000   0.0000   0.0000   0.0000
     0.0000   0.0000   0.0000   0.0000   0.0000   0.0000   0.0000   0.0000
     0.0000   0.0000   0.0000   0.0000   0.0000   0.0000   0.0000   0.0000
     0.0000   0.0000   0.0000   0.0000   0.0000   0.0000   0.0000   0.0000
     0.0000   0.0000   0.0000   0.0000   0.0000   0.0000   0.0000   0.0000

          k = 0.0000 0.2500-0.5000 (269962 PWs)   bands (ev):

   -90.6667 -54.1164 -54.1164 -53.5941  -7.4450  -7.4265  -7.2126  -7.1633
    -7.0636  -6.9777  -6.9575  -6.9542  -6.9192  -6.8707  -6.8401  -6.7928
    -6.7804  -6.7609  -6.7379  -6.6858  -6.6609  -6.6161  -6.6148  -6.6005
    -6.5971  -6.5725  -6.5538  -6.5388  -6.4877  -6.4752  -6.4675  -6.4342
    -6.4118  -6.4030  -6.3564  -1.0724  -1.0709  -1.0696  -1.0605  -1.0548
    -1.0520  -1.0456  -1.0425  -1.0381  -0.9443  -0.9392  -0.9329  -0.9256
    -0.9195  -0.9158  -0.7812  -0.7726  -0.7589  -0.7531  -0.7422  -0.7376
    -0.7243  -0.7160  -0.7104  -0.7064  -0.7058  -0.7008  -0.6999  -0.6925
    -0.6872  -0.6830  -0.6804  -0.6794  -0.6747  -0.6695  -0.6646  -0.6608
    -0.6588  -0.6516  -0.6493  -0.6465  -0.6436  -0.6400  -0.6386  -0.6340
    -0.6293  -0.6276  -0.6262  -0.6219  -0.6198  -0.6141  -0.6102  -0.6085
    -0.6063  -0.5984  -0.5959  -0.5908  -0.5871  -0.5816  -0.5738  -0.5713
    -0.5679  -0.5639  -0.5610  -0.5549  -0.5513  -0.5472  -0.5411  -0.5317
    -0.5274  -0.5219  -0.5166  -0.5142  -0.5065  -0.5012  -0.4947  -0.4919
    -0.4907  -0.4870  -0.4806  -0.4706  -0.4633  -0.4590  -0.4402  -0.4318
    -0.4214  -0.4160  -0.3918  -0.3865  -0.3759  -0.3668  -0.3630  -0.3550
    -0.3505  -0.3455  -0.3380  -0.3302  -0.3256  -0.3212  -0.3165  -0.3098
    -0.3087  -0.3059  -0.3025  -0.3015  -0.2991  -0.2974  -0.2955  -0.2931
    -0.2896  -0.2847  -0.2832  -0.2797  -0.2769  -0.2733  -0.2710  -0.2678
    -0.2582  -0.2568  -0.2529  -0.2499  -0.2483  -0.2470  -0.2438  -0.2392
    -0.2342  -0.2319  -0.2279  -0.2229  -0.2202  -0.2160  -0.2100  -0.2018
    -0.1915  -0.1821  -0.1807  -0.1744  -0.1660  -0.1618  -0.1563  -0.1517
    -0.1425  -0.1274  -0.1197  -0.1069  -0.0896  -0.0721  -0.0670  -0.0527
    -0.0430  -0.0127   0.0078   0.0163   0.0238   0.0679   0.5192   0.5869
     0.6708   0.6933   0.7768   0.8007   0.8846   0.9079   0.9396   0.9770
     0.9911   1.0306   1.0698   1.1114   1.1502   1.1906   1.2217   1.2887
     1.3414   1.3686   1.5098   1.5856   1.6466   1.8089   1.8908   1.9580
     2.0927   2.1231   2.2575   2.3149   2.3724   2.4415   2.5792   2.6205
     2.6476   2.7145   2.7691   2.7845   2.8225   2.8801   2.9082   2.9605
     2.9836   3.0968   3.1384   3.1725   3.2211   3.2949   3.3331   3.3761
     3.4105   3.4399   3.4645   3.5129   3.5565   3.5753   3.5938   3.6327
     3.6498   3.6639   3.6826   3.7078   3.7520   3.8095   3.8603   3.8790
     3.8867   3.9387   3.9818   3.9942   4.0163   4.0294   4.0555   4.0902
     4.1293   4.1470   4.1818   4.2075   4.2309   4.2786   4.2888   4.3459
     4.3754   4.4098   4.4491   4.4874   4.5416   4.5867   4.6035   4.6527
     4.6957   4.7455   4.8814   4.9254   4.9791   5.0643   5.1860   5.2683
     8.2464   8.5751   8.6543   9.0352   9.1090   9.1724   9.3097   9.3538
     9.3750   9.4293   9.5090   9.5618   9.5784   9.6084   9.6145   9.6898
     9.7471   9.7785   9.8007   9.8064   9.8191   9.8514   9.8680   9.9139
     9.9660   9.9857  10.1087  10.2004  10.2742  10.3192  10.3839  10.4011
    10.4619  10.4804  10.5396  10.5956  10.6316  10.6904  10.7387  10.8348
    10.8982  10.9397  11.0226  11.1523  11.1796  11.2614  11.2805  11.3321
    11.3579  11.3827  11.3944  11.4198  11.4951  11.5292  11.5692  11.6277

     occupation numbers 
     1.0000   1.0000   1.0000   1.0000   1.0000   1.0000   1.0000   1.0000
     1.0000   1.0000   1.0000   1.0000   1.0000   1.0000   1.0000   1.0000
     1.0000   1.0000   1.0000   1.0000   1.0000   1.0000   1.0000   1.0000
     1.0000   1.0000   1.0000   1.0000   1.0000   1.0000   1.0000   1.0000
     1.0000   1.0000   1.0000   1.0000   1.0000   1.0000   1.0000   1.0000
     1.0000   1.0000   1.0000   1.0000   1.0000   1.0000   1.0000   1.0000
     1.0000   1.0000   1.0000   1.0000   1.0000   1.0000   1.0000   1.0000
     1.0000   1.0000   1.0000   1.0000   1.0000   1.0000   1.0000   1.0000
     1.0000   1.0000   1.0000   1.0000   1.0000   1.0000   1.0000   1.0000
     1.0000   1.0000   1.0000   1.0000   1.0000   1.0000   1.0000   1.0000
     1.0000   1.0000   1.0000   1.0000   1.0000   1.0000   1.0000   1.0000
     1.0000   1.0000   1.0000   1.0000   1.0000   1.0000   1.0000   1.0000
     1.0000   1.0000   1.0000   1.0000   1.0000   1.0000   1.0000   1.0000
     1.0000   1.0000   1.0000   1.0000   1.0000   1.0000   1.0000   1.0000
     1.0000   1.0000   1.0000   1.0000   1.0000   1.0000   1.0000   1.0000
     1.0000   1.0000   1.0000   1.0000   1.0000   1.0000   1.0000   1.0000
     1.0000   1.0000   1.0000   1.0000   1.0000   1.0000   1.0000   1.0000
     1.0000   1.0000   1.0000   1.0000   1.0000   1.0000   1.0000   1.0000
     1.0000   1.0000   1.0000   1.0000   1.0000   1.0000   1.0000   1.0000
     1.0000   1.0000   1.0000   1.0000   1.0000   1.0000   1.0000   1.0000
     1.0000   1.0000   1.0000   1.0000   1.0000   1.0000   1.0000   1.0000
     1.0000   1.0000   1.0000   1.0000   1.0000   1.0000   1.0000   1.0000
     1.0000   1.0000   1.0000   1.0000   1.0000   1.0000   1.0000   1.0000
     1.0000   1.0000   1.0000   1.0000   1.0000   1.0000   1.0000   1.0000
     1.0000   1.0000   1.0000   1.0000   1.0000   1.0000   1.0000   1.0000
     1.0000   1.0000   1.0000   1.0000   1.0000   1.0000   1.0000   1.0000
     1.0000   1.0000   1.0000   1.0000   1.0000   1.0000   1.0000   1.0000
     1.0000   1.0000   1.0000   1.0000   1.0000   1.0000   1.0000   1.0000
     1.0000   1.0000   1.0000   1.0000   1.0000   1.0000   1.0000   1.0000
     1.0000   1.0000   1.0000   1.0000   1.0000   1.0000   1.0000   1.0000
     1.0000   1.0000   1.0000   1.0000   1.0000   1.0000   1.0000   1.0000
     1.0000   1.0000   1.0000   1.0000   1.0000   1.0000   1.0000   1.0000
     1.0000   1.0000   1.0000   1.0000   1.0000   1.0000   1.0000   1.0000
     1.0000   1.0000   1.0000   1.0000   1.0000   1.0000   1.0000   1.0000
     1.0000   1.0000   1.0000   1.0000   1.0000   1.0000   1.0000   1.0000
     1.0000   1.0000   1.0000   1.0000   1.0000   1.0000   1.0000   1.0000
     0.0000   0.0000   0.0000   0.0000   0.0000   0.0000   0.0000   0.0000
     0.0000   0.0000   0.0000   0.0000   0.0000   0.0000   0.0000   0.0000
     0.0000   0.0000   0.0000   0.0000   0.0000   0.0000   0.0000   0.0000
     0.0000   0.0000   0.0000   0.0000   0.0000   0.0000   0.0000   0.0000
     0.0000   0.0000   0.0000   0.0000   0.0000   0.0000   0.0000   0.0000
     0.0000   0.0000   0.0000   0.0000   0.0000   0.0000   0.0000   0.0000
     0.0000   0.0000   0.0000   0.0000   0.0000   0.0000   0.0000   0.0000

          k = 0.0000-0.5000-0.5000 (269920 PWs)   bands (ev):

   -90.6667 -54.1164 -54.1164 -53.5941  -7.3638  -7.3600  -7.3412  -7.2807
    -7.0407  -6.9660  -6.9635  -6.9258  -6.9228  -6.8869  -6.8761  -6.8140
    -6.7229  -6.7081  -6.6731  -6.6715  -6.6402  -6.6374  -6.6326  -6.5951
    -6.5646  -6.5624  -6.5311  -6.5265  -6.5120  -6.5045  -6.4859  -6.4607
    -6.4224  -6.4191  -6.3672  -1.0720  -1.0702  -1.0693  -1.0582  -1.0546
    -1.0527  -1.0449  -1.0407  -1.0393  -0.9397  -0.9342  -0.9334  -0.9265
    -0.9214  -0.9187  -0.7771  -0.7726  -0.7427  -0.7385  -0.7369  -0.7329
    -0.7219  -0.7155  -0.7109  -0.7090  -0.7020  -0.6972  -0.6965  -0.6902
    -0.6899  -0.6874  -0.6845  -0.6819  -0.6804  -0.6731  -0.6665  -0.6648
    -0.6609  -0.6606  -0.6508  -0.6503  -0.6440  -0.6429  -0.6396  -0.6374
    -0.6373  -0.6327  -0.6317  -0.6224  -0.6114  -0.6103  -0.6057  -0.6047
    -0.6016  -0.5994  -0.5923  -0.5920  -0.5862  -0.5788  -0.5768  -0.5714
    -0.5706  -0.5588  -0.5565  -0.5563  -0.5498  -0.5466  -0.5441  -0.5411
    -0.5404  -0.5333  -0.5229  -0.5219  -0.5205  -0.5163  -0.5087  -0.4978
    -0.4927  -0.4908  -0.4776  -0.4714  -0.4658  -0.4644  -0.4595  -0.4358
    -0.4348  -0.4215  -0.4145  -0.3988  -0.3726  -0.3725  -0.3602  -0.3594
    -0.3506  -0.3465  -0.3413  -0.3371  -0.3324  -0.3190  -0.3165  -0.3084
    -0.3035  -0.3026  -0.3005  -0.2992  -0.2956  -0.2947  -0.2915  -0.2905
    -0.2871  -0.2837  -0.2787  -0.2773  -0.2721  -0.2712  -0.2675  -0.2627
    -0.2572  -0.2513  -0.2506  -0.2469  -0.2448  -0.2416  -0.2363  -0.2346
    -0.2290  -0.2287  -0.2225  -0.2216  -0.2200  -0.2076  -0.1969  -0.1872
    -0.1860  -0.1827  -0.1792  -0.1766  -0.1729  -0.1556  -0.1513  -0.1507
    -0.1489  -0.1483  -0.1269  -0.0945  -0.0710  -0.0496  -0.0312  -0.0161
    -0.0104   0.0124   0.0150   0.0336   0.0390   0.0825   0.5051   0.5647
     0.6049   0.6331   0.6580   0.6903   0.7829   0.7829   0.9327   0.9674
     0.9730   1.0676   1.2180   1.2292   1.3541   1.3682   1.4050   1.4147
     1.4452   1.5093   1.5255   1.5391   1.6009   1.6276   1.6738   1.7380
     1.8056   1.8626   2.1706   2.2068   2.4138   2.4315   2.4370   2.4870
     2.8487   2.8825   2.9413   2.9909   3.0383   3.0457   3.0931   3.1377
     3.1573   3.1679   3.1937   3.2229   3.2333   3.2658   3.2978   3.3344
     3.3841   3.4081   3.4357   3.4694   3.4726   3.4995   3.5338   3.5955
     3.5982   3.6500   3.6522   3.6614   3.6700   3.6872   3.7699   3.7785
     3.8007   3.9244   3.9473   3.9920   4.0377   4.0553   4.0733   4.1596
     4.1756   4.1858   4.2171   4.2901   4.3403   4.3706   4.3858   4.3918
     4.3943   4.4066   4.4089   4.4154   4.4564   4.5207   4.5374   4.5927
     4.6027   4.6639   4.6715   4.8431   5.1208   5.1725   5.2384   5.3710
     8.2880   8.8348   8.8406   8.9139   9.0647   9.0860   9.2097   9.2967
     9.4220   9.4355   9.4478   9.4956   9.5075   9.5111   9.5339   9.5745
     9.6302   9.7347   9.8839   9.8994  10.0071  10.1047  10.1097  10.1355
    10.1359  10.1612  10.1777  10.2128  10.2298  10.2520  10.2614  10.2834
    10.2868  10.3223  10.3392  10.4181  10.4258  10.4381  10.4957  10.5890
    10.8659  11.0016  11.1036  11.2283  11.3257  11.3387  11.3849  11.4242
    11.4304  11.4417  11.4580  11.5018  11.5908  11.6332  11.6347  11.6706

     occupation numbers 
     1.0000   1.0000   1.0000   1.0000   1.0000   1.0000   1.0000   1.0000
     1.0000   1.0000   1.0000   1.0000   1.0000   1.0000   1.0000   1.0000
     1.0000   1.0000   1.0000   1.0000   1.0000   1.0000   1.0000   1.0000
     1.0000   1.0000   1.0000   1.0000   1.0000   1.0000   1.0000   1.0000
     1.0000   1.0000   1.0000   1.0000   1.0000   1.0000   1.0000   1.0000
     1.0000   1.0000   1.0000   1.0000   1.0000   1.0000   1.0000   1.0000
     1.0000   1.0000   1.0000   1.0000   1.0000   1.0000   1.0000   1.0000
     1.0000   1.0000   1.0000   1.0000   1.0000   1.0000   1.0000   1.0000
     1.0000   1.0000   1.0000   1.0000   1.0000   1.0000   1.0000   1.0000
     1.0000   1.0000   1.0000   1.0000   1.0000   1.0000   1.0000   1.0000
     1.0000   1.0000   1.0000   1.0000   1.0000   1.0000   1.0000   1.0000
     1.0000   1.0000   1.0000   1.0000   1.0000   1.0000   1.0000   1.0000
     1.0000   1.0000   1.0000   1.0000   1.0000   1.0000   1.0000   1.0000
     1.0000   1.0000   1.0000   1.0000   1.0000   1.0000   1.0000   1.0000
     1.0000   1.0000   1.0000   1.0000   1.0000   1.0000   1.0000   1.0000
     1.0000   1.0000   1.0000   1.0000   1.0000   1.0000   1.0000   1.0000
     1.0000   1.0000   1.0000   1.0000   1.0000   1.0000   1.0000   1.0000
     1.0000   1.0000   1.0000   1.0000   1.0000   1.0000   1.0000   1.0000
     1.0000   1.0000   1.0000   1.0000   1.0000   1.0000   1.0000   1.0000
     1.0000   1.0000   1.0000   1.0000   1.0000   1.0000   1.0000   1.0000
     1.0000   1.0000   1.0000   1.0000   1.0000   1.0000   1.0000   1.0000
     1.0000   1.0000   1.0000   1.0000   1.0000   1.0000   1.0000   1.0000
     1.0000   1.0000   1.0000   1.0000   1.0000   1.0000   1.0000   1.0000
     1.0000   1.0000   1.0000   1.0000   1.0000   1.0000   1.0000   1.0000
     1.0000   1.0000   1.0000   1.0000   1.0000   1.0000   1.0000   1.0000
     1.0000   1.0000   1.0000   1.0000   1.0000   1.0000   1.0000   1.0000
     1.0000   1.0000   1.0000   1.0000   1.0000   1.0000   1.0000   1.0000
     1.0000   1.0000   1.0000   1.0000   1.0000   1.0000   1.0000   1.0000
     1.0000   1.0000   1.0000   1.0000   1.0000   1.0000   1.0000   1.0000
     1.0000   1.0000   1.0000   1.0000   1.0000   1.0000   1.0000   1.0000
     1.0000   1.0000   1.0000   1.0000   1.0000   1.0000   1.0000   1.0000
     1.0000   1.0000   1.0000   1.0000   1.0000   1.0000   1.0000   1.0000
     1.0000   1.0000   1.0000   1.0000   1.0000   1.0000   1.0000   1.0000
     1.0000   1.0000   1.0000   1.0000   1.0000   1.0000   1.0000   1.0000
     1.0000   1.0000   1.0000   1.0000   1.0000   1.0000   1.0000   1.0000
     1.0000   1.0000   1.0000   1.0000   1.0000   1.0000   1.0000   1.0000
     0.0000   0.0000   0.0000   0.0000   0.0000   0.0000   0.0000   0.0000
     0.0000   0.0000   0.0000   0.0000   0.0000   0.0000   0.0000   0.0000
     0.0000   0.0000   0.0000   0.0000   0.0000   0.0000   0.0000   0.0000
     0.0000   0.0000   0.0000   0.0000   0.0000   0.0000   0.0000   0.0000
     0.0000   0.0000   0.0000   0.0000   0.0000   0.0000   0.0000   0.0000
     0.0000   0.0000   0.0000   0.0000   0.0000   0.0000   0.0000   0.0000
     0.0000   0.0000   0.0000   0.0000   0.0000   0.0000   0.0000   0.0000

          k = 0.2500 0.2500 0.2500 (269935 PWs)   bands (ev):

   -90.6667 -54.1164 -54.1164 -53.5941  -7.5037  -7.2702  -7.2702  -7.1992
    -7.0519  -7.0519  -7.0251  -6.8844  -6.8699  -6.8699  -6.7934  -6.7934
    -6.7857  -6.7661  -6.7038  -6.7038  -6.6529  -6.6491  -6.6491  -6.6061
    -6.5753  -6.5753  -6.5522  -6.5522  -6.5252  -6.4508  -6.4339  -6.4339
    -6.4028  -6.4028  -6.3740  -1.0733  -1.0711  -1.0711  -1.0585  -1.0539
    -1.0539  -1.0439  -1.0439  -1.0368  -0.9456  -0.9376  -0.9376  -0.9222
    -0.9222  -0.9123  -0.7836  -0.7692  -0.7692  -0.7586  -0.7438  -0.7438
    -0.7160  -0.7160  -0.7047  -0.7047  -0.7027  -0.6969  -0.6953  -0.6894
    -0.6894  -0.6826  -0.6782  -0.6782  -0.6712  -0.6698  -0.6692  -0.6692
    -0.6525  -0.6525  -0.6477  -0.6477  -0.6413  -0.6413  -0.6388  -0.6375
    -0.6264  -0.6264  -0.6249  -0.6214  -0.6214  -0.6201  -0.6109  -0.6109
    -0.6067  -0.5953  -0.5917  -0.5917  -0.5809  -0.5809  -0.5776  -0.5733
    -0.5733  -0.5608  -0.5608  -0.5587  -0.5523  -0.5382  -0.5382  -0.5360
    -0.5227  -0.5227  -0.5198  -0.5151  -0.5151  -0.5108  -0.4899  -0.4899
    -0.4825  -0.4746  -0.4581  -0.4514  -0.4514  -0.4485  -0.4485  -0.4342
    -0.4322  -0.4322  -0.4042  -0.3763  -0.3763  -0.3643  -0.3643  -0.3630
[...]
     1.0000   1.0000   1.0000   1.0000   1.0000   1.0000   1.0000   1.0000
     1.0000   1.0000   1.0000   1.0000   1.0000   1.0000   1.0000   1.0000
     1.0000   1.0000   1.0000   1.0000   1.0000   1.0000   1.0000   1.0000
     1.0000   1.0000   1.0000   1.0000   1.0000   1.0000   1.0000   1.0000
     1.0000   1.0000   1.0000   1.0000   1.0000   1.0000   1.0000   1.0000
     1.0000   1.0000   1.0000   1.0000   1.0000   1.0000   1.0000   1.0000
     1.0000   1.0000   1.0000   1.0000   1.0000   1.0000   1.0000   1.0000
     1.0000   1.0000   1.0000   1.0000   1.0000   1.0000   1.0000   1.0000
     1.0000   1.0000   1.0000   1.0000   1.0000   1.0000   1.0000   1.0000
     1.0000   1.0000   1.0000   1.0000   1.0000   1.0000   1.0000   1.0000
     1.0000   1.0000   1.0000   1.0000   1.0000   1.0000   1.0000   1.0000
     1.0000   1.0000   1.0000   1.0000   1.0000   1.0000   1.0000   1.0000
     1.0000   1.0000   1.0000   1.0000   1.0000   1.0000   1.0000   1.0000
     1.0000   1.0000   1.0000   1.0000   1.0000   1.0000   1.0000   1.0000
     1.0000   1.0000   1.0000   1.0000   1.0000   1.0000   1.0000   1.0000
     1.0000   1.0000   1.0000   1.0000   1.0000   1.0000   1.0000   1.0000
     1.0000   1.0000   1.0000   1.0000   1.0000   1.0000   1.0000   1.0000
     1.0000   1.0000   1.0000   1.0000   1.0000   1.0000   1.0000   1.0000
     1.0000   1.0000   1.0000   1.0000   1.0000   0.0000   0.0000   0.0000
     0.0000   0.0000   0.0000   0.0000   0.0000   0.0000   0.0000   0.0000
     0.0000   0.0000   0.0000   0.0000   0.0000   0.0000   0.0000   0.0000
     0.0000   0.0000   0.0000   0.0000   0.0000   0.0000   0.0000   0.0000
     0.0000   0.0000   0.0000   0.0000   0.0000   0.0000   0.0000   0.0000
     0.0000   0.0000   0.0000   0.0000   0.0000   0.0000   0.0000   0.0000
     0.0000   0.0000   0.0000   0.0000   0.0000   0.0000   0.0000   0.0000
     0.0000   0.0000   0.0000   0.0000   0.0000   0.0000   0.0000   0.0000

          k = 0.2500-0.2500 0.2500 (269935 PWs)   bands (ev):

   -87.9909 -51.3598 -51.3598 -51.2709  -7.4913  -7.2613  -7.2421  -7.1906
    -7.0381  -7.0381  -6.9974  -6.8742  -6.8631  -6.8402  -6.7856  -6.7849
    -6.7556  -6.7231  -6.6984  -6.6829  -6.6432  -6.6366  -6.6323  -6.6013
    -6.5646  -6.5589  -6.5304  -6.5290  -6.5137  -6.4350  -6.4277  -6.4231
    -6.3966  -6.3963  -6.3707  -1.0728  -1.0700  -1.0699  -1.0601  -1.0530
    -1.0520  -1.0447  -1.0435  -1.0367  -0.9454  -0.9369  -0.9349  -0.9218
    -0.9210  -0.9143  -0.7831  -0.7685  -0.7642  -0.7552  -0.7365  -0.7330
    -0.7122  -0.7114  -0.7036  -0.7005  -0.6995  -0.6928  -0.6915  -0.6833
    -0.6813  -0.6806  -0.6729  -0.6713  -0.6679  -0.6664  -0.6619  -0.6617
    -0.6533  -0.6486  -0.6444  -0.6416  -0.6392  -0.6356  -0.6351  -0.6343
    -0.6290  -0.6268  -0.6223  -0.6218  -0.6162  -0.6145  -0.6087  -0.6044
    -0.6038  -0.5944  -0.5876  -0.5860  -0.5812  -0.5795  -0.5791  -0.5729
    -0.5718  -0.5603  -0.5559  -0.5518  -0.5499  -0.5403  -0.5394  -0.5330
    -0.5178  -0.5149  -0.5113  -0.5112  -0.4978  -0.4965  -0.4887  -0.4873
    -0.4843  -0.4833  -0.4617  -0.4514  -0.4492  -0.4477  -0.4444  -0.4320
    -0.4295  -0.4250  -0.4053  -0.3738  -0.3677  -0.3632  -0.3615  -0.3576
    -0.3560  -0.3483  -0.3445  -0.3340  -0.3193  -0.3180  -0.3155  -0.3117
    -0.3069  -0.3054  -0.2998  -0.2998  -0.2972  -0.2953  -0.2947  -0.2929
    -0.2867  -0.2824  -0.2818  -0.2761  -0.2759  -0.2676  -0.2622  -0.2607
    -0.2591  -0.2548  -0.2540  -0.2472  -0.2439  -0.2430  -0.2421  -0.2369
    -0.2305  -0.2286  -0.2270  -0.2183  -0.2165  -0.2110  -0.2105  -0.2054
    -0.1851  -0.1840  -0.1791  -0.1703  -0.1674  -0.1554  -0.1522  -0.1507
    -0.1405  -0.1340  -0.1258  -0.1160  -0.1118  -0.0771  -0.0683  -0.0643
    -0.0095   0.0132   0.0185   0.0225   0.0257   0.0458   0.4467   0.6067
     0.6171   0.7823   0.7910   0.8429   0.9341   0.9398   0.9521   1.0593
     1.0613   1.0842   1.0951   1.1455   1.1597   1.1921   1.2524   1.3128
     1.3198   1.4001   1.5377   1.6215   1.9162   1.9265   1.9728   2.0987
     2.1091   2.2194   2.5131   2.5858   2.5871   2.6334   2.6440   2.6709
     2.7768   2.8178   2.8284   2.8750   2.9294   2.9865   3.0182   3.0951
     3.1421   3.1813   3.2104   3.2403   3.2563   3.3212   3.3231   3.3597
     3.3648   3.3882   3.4152   3.4593   3.4812   3.4916   3.5592   3.5678
     3.6630   3.7500   3.7736   3.8164   3.8178   3.9019   4.0066   4.0316
     4.0423   4.0598   4.0655   4.0815   4.1269   4.1411   4.1587   4.1735
     4.1755   4.1882   4.2665   4.2736   4.2955   4.3090   4.4638   4.4653
     4.6119   4.6152   4.6363   4.6594   4.6989   4.7245   4.8234   4.8497
     4.8984   5.1698   5.1818   5.4015   5.4239   6.2920   6.4731   6.5460
     8.1256   8.3620   8.8079   8.9517   9.0892   9.1871   9.3288   9.3419
     9.3589   9.3940   9.4039   9.4568   9.5032   9.5158   9.5722   9.6055
     9.7702   9.7814   9.8243   9.8995   9.9850  10.0375  10.0529  10.0911
    10.1101  10.1980  10.2126  10.2197  10.2846  10.2852  10.2971  10.3171
    10.3357  10.3714  10.3770  10.4607  10.5382  10.7055  10.8314  10.9358
    10.9912  11.1160  11.1429  11.1999  11.2798  11.3577  11.3777  11.4280
    11.4497  11.4853  11.5223  11.5536  11.6466  11.6611  11.7575  11.7928

     occupation numbers 
     1.0000   1.0000   1.0000   1.0000   1.0000   1.0000   1.0000   1.0000
     1.0000   1.0000   1.0000   1.0000   1.0000   1.0000   1.0000   1.0000
     1.0000   1.0000   1.0000   1.0000   1.0000   1.0000   1.0000   1.0000
     1.0000   1.0000   1.0000   1.0000   1.0000   1.0000   1.0000   1.0000
     1.0000   1.0000   1.0000   1.0000   1.0000   1.0000   1.0000   1.0000
     1.0000   1.0000   1.0000   1.0000   1.0000   1.0000   1.0000   1.0000
     1.0000   1.0000   1.0000   1.0000   1.0000   1.0000   1.0000   1.0000
     1.0000   1.0000   1.0000   1.0000   1.0000   1.0000   1.0000   1.0000
     1.0000   1.0000   1.0000   1.0000   1.0000   1.0000   1.0000   1.0000
     1.0000   1.0000   1.0000   1.0000   1.0000   1.0000   1.0000   1.0000
     1.0000   1.0000   1.0000   1.0000   1.0000   1.0000   1.0000   1.0000
     1.0000   1.0000   1.0000   1.0000   1.0000   1.0000   1.0000   1.0000
     1.0000   1.0000   1.0000   1.0000   1.0000   1.0000   1.0000   1.0000
     1.0000   1.0000   1.0000   1.0000   1.0000   1.0000   1.0000   1.0000
     1.0000   1.0000   1.0000   1.0000   1.0000   1.0000   1.0000   1.0000
     1.0000   1.0000   1.0000   1.0000   1.0000   1.0000   1.0000   1.0000
     1.0000   1.0000   1.0000   1.0000   1.0000   1.0000   1.0000   1.0000
     1.0000   1.0000   1.0000   1.0000   1.0000   1.0000   1.0000   1.0000
     1.0000   1.0000   1.0000   1.0000   1.0000   1.0000   1.0000   1.0000
     1.0000   1.0000   1.0000   1.0000   1.0000   1.0000   1.0000   1.0000
     1.0000   1.0000   1.0000   1.0000   1.0000   1.0000   1.0000   1.0000
     1.0000   1.0000   1.0000   1.0000   1.0000   1.0000   1.0000   1.0000
     1.0000   1.0000   1.0000   1.0000   1.0000   1.0000   1.0000   1.0000
     1.0000   1.0000   1.0000   1.0000   1.0000   1.0000   1.0000   1.0000
     1.0000   1.0000   1.0000   1.0000   1.0000   1.0000   1.0000   1.0000
     1.0000   1.0000   1.0000   1.0000   1.0000   1.0000   1.0000   1.0000
     1.0000   1.0000   1.0000   1.0000   1.0000   1.0000   1.0000   1.0000
     1.0000   1.0000   1.0000   1.0000   1.0000   1.0000   1.0000   1.0000
     1.0000   1.0000   1.0000   1.0000   1.0000   1.0000   1.0000   1.0000
     1.0000   1.0000   1.0000   1.0000   1.0000   1.0000   1.0000   1.0000
     1.0000   1.0000   1.0000   1.0000   1.0000   1.0000   1.0000   1.0000
     1.0000   1.0000   1.0000   1.0000   1.0000   1.0000   1.0000   1.0000
     1.0000   1.0000   1.0000   1.0000   1.0000   1.0000   1.0000   1.0000
     1.0000   1.0000   1.0000   1.0000   1.0000   1.0000   1.0000   1.0000
     1.0000   1.0000   1.0000   1.0000   1.0000   1.0000   1.0000   1.0000
     1.0000   1.0000   1.0000   1.0000   1.0000   0.0000   0.0000   0.0000
     0.0000   0.0000   0.0000   0.0000   0.0000   0.0000   0.0000   0.0000
     0.0000   0.0000   0.0000   0.0000   0.0000   0.0000   0.0000   0.0000
     0.0000   0.0000   0.0000   0.0000   0.0000   0.0000   0.0000   0.0000
     0.0000   0.0000   0.0000   0.0000   0.0000   0.0000   0.0000   0.0000
     0.0000   0.0000   0.0000   0.0000   0.0000   0.0000   0.0000   0.0000
     0.0000   0.0000   0.0000   0.0000   0.0000   0.0000   0.0000   0.0000
     0.0000   0.0000   0.0000   0.0000   0.0000   0.0000   0.0000   0.0000

          k = 0.2500-0.2500-0.5000 (269988 PWs)   bands (ev):

   -87.9909 -51.3598 -51.3598 -51.2709  -7.4050  -7.3781  -7.1861  -7.1594
    -7.1367  -7.1011  -6.9927  -6.9225  -6.8297  -6.8091  -6.7814  -6.7535
    -6.7441  -6.7059  -6.6705  -6.6617  -6.6349  -6.6056  -6.6034  -6.5923
    -6.5734  -6.5489  -6.5431  -6.5174  -6.4875  -6.4748  -6.4570  -6.4414
    -6.4227  -6.4080  -6.3786  -1.0719  -1.0703  -1.0692  -1.0583  -1.0538
    -1.0514  -1.0446  -1.0411  -1.0380  -0.9407  -0.9360  -0.9320  -0.9246
    -0.9207  -0.9174  -0.7719  -0.7661  -0.7506  -0.7431  -0.7375  -0.7305
    -0.7182  -0.7090  -0.7050  -0.7032  -0.6990  -0.6959  -0.6938  -0.6870
    -0.6859  -0.6797  -0.6774  -0.6756  -0.6702  -0.6667  -0.6653  -0.6628
    -0.6584  -0.6546  -0.6497  -0.6493  -0.6431  -0.6394  -0.6372  -0.6358
    -0.6301  -0.6298  -0.6204  -0.6181  -0.6153  -0.6139  -0.6105  -0.6057
    -0.6028  -0.5921  -0.5892  -0.5826  -0.5810  -0.5780  -0.5748  -0.5703
    -0.5662  -0.5644  -0.5577  -0.5510  -0.5459  -0.5423  -0.5362  -0.5303
    -0.5189  -0.5176  -0.5168  -0.5084  -0.5025  -0.4997  -0.4965  -0.4944
    -0.4928  -0.4810  -0.4729  -0.4651  -0.4648  -0.4504  -0.4286  -0.4268
    -0.4112  -0.4032  -0.4020  -0.3967  -0.3788  -0.3738  -0.3676  -0.3623
    -0.3582  -0.3516  -0.3451  -0.3402  -0.3368  -0.3294  -0.3188  -0.3095
    -0.3069  -0.3047  -0.2995  -0.2982  -0.2943  -0.2921  -0.2890  -0.2877
    -0.2853  -0.2815  -0.2778  -0.2763  -0.2692  -0.2680  -0.2665  -0.2561
    -0.2543  -0.2495  -0.2475  -0.2439  -0.2422  -0.2407  -0.2360  -0.2343
    -0.2292  -0.2270  -0.2224  -0.2178  -0.2140  -0.2109  -0.2032  -0.2011
    -0.1925  -0.1751  -0.1742  -0.1657  -0.1627  -0.1543  -0.1504  -0.1492
    -0.1390  -0.1367  -0.1219  -0.1095  -0.0960  -0.0702  -0.0518  -0.0450
    -0.0296  -0.0141  -0.0022   0.0005   0.0326   0.0505   0.5330   0.6094
     0.7385   0.7972   0.8312   0.8673   0.9057   0.9340   0.9386   0.9738
     1.0240   1.0473   1.0653   1.0873   1.1087   1.1417   1.2061   1.4238
     1.4829   1.4949   1.5480   1.6159   1.6808   1.7013   1.8224   1.8885
     2.4582   2.5073   2.5377   2.5633   2.5909   2.6117   2.6255   2.6793
     2.7355   2.7819   2.7884   2.8397   2.8897   2.9674   3.0002   3.1009
     3.1112   3.1969   3.2825   3.3085   3.3667   3.4158   3.4311   3.4631
     3.4927   3.5067   3.5270   3.5484   3.5722   3.5828   3.6246   3.6503
     3.6911   3.7244   3.7265   3.7344   3.7564   3.7682   3.7902   3.8145
     3.8491   3.9632   3.9919   4.0068   4.0377   4.0523   4.1066   4.1345
     4.1967   4.2190   4.2554   4.3079   4.3353   4.3464   4.3972   4.4266
     4.5003   4.5484   4.7390   4.7938   4.8110   4.8302   4.8898   4.9566
     5.0147   5.0386   5.0603   5.4061   5.4151   6.2936   6.4983   6.5272
     8.3106   8.6018   8.6868   8.9359   9.0431   9.1249   9.2244   9.2654
     9.3685   9.4086   9.4189   9.4808   9.5491   9.6212   9.6389   9.6591
     9.6957   9.7721   9.7925   9.8278   9.8358   9.9053   9.9393   9.9688
     9.9813  10.0616  10.1214  10.1565  10.1994  10.2396  10.3274  10.3902
    10.4226  10.4830  10.6179  10.6529  10.6802  10.7714  10.8470  10.9154
    10.9625  11.0426  11.0842  11.1846  11.2481  11.3688  11.4015  11.4328
    11.5055  11.5160  11.5520  11.5920  11.6303  11.6399  11.6732  11.6953

     occupation numbers 
     1.0000   1.0000   1.0000   1.0000   1.0000   1.0000   1.0000   1.0000
     1.0000   1.0000   1.0000   1.0000   1.0000   1.0000   1.0000   1.0000
     1.0000   1.0000   1.0000   1.0000   1.0000   1.0000   1.0000   1.0000
     1.0000   1.0000   1.0000   1.0000   1.0000   1.0000   1.0000   1.0000
     1.0000   1.0000   1.0000   1.0000   1.0000   1.0000   1.0000   1.0000
     1.0000   1.0000   1.0000   1.0000   1.0000   1.0000   1.0000   1.0000
     1.0000   1.0000   1.0000   1.0000   1.0000   1.0000   1.0000   1.0000
     1.0000   1.0000   1.0000   1.0000   1.0000   1.0000   1.0000   1.0000
     1.0000   1.0000   1.0000   1.0000   1.0000   1.0000   1.0000   1.0000
     1.0000   1.0000   1.0000   1.0000   1.0000   1.0000   1.0000   1.0000
     1.0000   1.0000   1.0000   1.0000   1.0000   1.0000   1.0000   1.0000
     1.0000   1.0000   1.0000   1.0000   1.0000   1.0000   1.0000   1.0000
     1.0000   1.0000   1.0000   1.0000   1.0000   1.0000   1.0000   1.0000
     1.0000   1.0000   1.0000   1.0000   1.0000   1.0000   1.0000   1.0000
     1.0000   1.0000   1.0000   1.0000   1.0000   1.0000   1.0000   1.0000
     1.0000   1.0000   1.0000   1.0000   1.0000   1.0000   1.0000   1.0000
     1.0000   1.0000   1.0000   1.0000   1.0000   1.0000   1.0000   1.0000
     1.0000   1.0000   1.0000   1.0000   1.0000   1.0000   1.0000   1.0000
     1.0000   1.0000   1.0000   1.0000   1.0000   1.0000   1.0000   1.0000
     1.0000   1.0000   1.0000   1.0000   1.0000   1.0000   1.0000   1.0000
     1.0000   1.0000   1.0000   1.0000   1.0000   1.0000   1.0000   1.0000
     1.0000   1.0000   1.0000   1.0000   1.0000   1.0000   1.0000   1.0000
     1.0000   1.0000   1.0000   1.0000   1.0000   1.0000   1.0000   1.0000
     1.0000   1.0000   1.0000   1.0000   1.0000   1.0000   1.0000   1.0000
     1.0000   1.0000   1.0000   1.0000   1.0000   1.0000   1.0000   1.0000
     1.0000   1.0000   1.0000   1.0000   1.0000   1.0000   1.0000   1.0000
     1.0000   1.0000   1.0000   1.0000   1.0000   1.0000   1.0000   1.0000
     1.0000   1.0000   1.0000   1.0000   1.0000   1.0000   1.0000   1.0000
     1.0000   1.0000   1.0000   1.0000   1.0000   1.0000   1.0000   1.0000
     1.0000   1.0000   1.0000   1.0000   1.0000   1.0000   1.0000   1.0000
     1.0000   1.0000   1.0000   1.0000   1.0000   1.0000   1.0000   1.0000
     1.0000   1.0000   1.0000   1.0000   1.0000   1.0000   1.0000   1.0000
     1.0000   1.0000   1.0000   1.0000   1.0000   1.0000   1.0000   1.0000
     1.0000   1.0000   1.0000   1.0000   1.0000   1.0000   1.0000   1.0000
     1.0000   1.0000   1.0000   1.0000   1.0000   1.0000   1.0000   1.0000
     1.0000   1.0000   1.0000   1.0000   1.0000   0.0000   0.0000   0.0000
     0.0000   0.0000   0.0000   0.0000   0.0000   0.0000   0.0000   0.0000
     0.0000   0.0000   0.0000   0.0000   0.0000   0.0000   0.0000   0.0000
     0.0000   0.0000   0.0000   0.0000   0.0000   0.0000   0.0000   0.0000
     0.0000   0.0000   0.0000   0.0000   0.0000   0.0000   0.0000   0.0000
     0.0000   0.0000   0.0000   0.0000   0.0000   0.0000   0.0000   0.0000
     0.0000   0.0000   0.0000   0.0000   0.0000   0.0000   0.0000   0.0000
     0.0000   0.0000   0.0000   0.0000   0.0000   0.0000   0.0000   0.0000

     the Fermi energy is     5.7417 ev

!    total energy              =   -9991.70577356 Ry
     total all-electron energy =   -138897.326564 Ry
     estimated scf accuracy    <          2.8E-09 Ry
     smearing contrib. (-TS)   =      -0.00000000 Ry
     internal energy E=F+TS    =   -9991.70577356 Ry

     The total energy is F=E-TS. E is the sum of the following terms:
     one-electron contribution =   -3030.08887768 Ry
     hartree contribution      =    2080.84852664 Ry
     xc contribution           =   -1651.64939378 Ry
     ewald contribution        =   -2915.12729194 Ry
     one-center paw contrib.   =   -4475.68873681 Ry
      -> PAW hartree energy AE =     123.06851573 Ry
      -> PAW hartree energy PS =    -122.42600869 Ry
      -> PAW xc energy AE      =    -143.19262741 Ry
      -> PAW xc energy PS      =      47.13158957 Ry
      -> total E_H with PAW    =    2081.49103369 Ry
      -> total E_XC with PAW   =   -1747.71043162 Ry

     total magnetization       =     3.00 Bohr mag/cell
     absolute magnetization    =     3.04 Bohr mag/cell

     convergence has been achieved in  18 iterations

     Writing all to output data dir ./out/Co_qp2.save/
 
     init_run     :      9.88s CPU     11.32s WALL (       1 calls)
     electrons    :    438.66s CPU    446.41s WALL (       1 calls)

     Called by init_run:
     wfcinit      :      6.55s CPU      7.03s WALL (       1 calls)
     wfcinit:atom :      0.06s CPU      0.08s WALL (       4 calls)
     wfcinit:wfcr :      6.26s CPU      6.67s WALL (       4 calls)
     potinit      :      0.97s CPU      1.21s WALL (       1 calls)
     hinit0       :      0.57s CPU      0.87s WALL (       1 calls)

     Called by electrons:
     c_bands      :    394.60s CPU    401.37s WALL (      19 calls)
     sum_band     :     38.57s CPU     39.17s WALL (      19 calls)
     v_of_rho     :      1.91s CPU      2.08s WALL (      19 calls)
     v_h          :      0.08s CPU      0.08s WALL (      19 calls)
     v_xc         :      1.83s CPU      1.99s WALL (      19 calls)
     newd         :      0.90s CPU      0.96s WALL (      19 calls)
     PAW_pot      :      1.94s CPU      2.02s WALL (      19 calls)
     mix_rho      :      0.68s CPU      0.73s WALL (      19 calls)

     Called by c_bands:
     init_us_2    :      4.50s CPU      4.58s WALL (     156 calls)
     init_us_2:cp :      4.50s CPU      4.57s WALL (     156 calls)
     cegterg      :    349.60s CPU    355.82s WALL (      76 calls)

     Called by sum_band:
     sum_band:wei :      0.05s CPU      0.06s WALL (      19 calls)
     sum_band:loo :     35.61s CPU     36.13s WALL (      19 calls)
     sum_band:buf :      0.66s CPU      0.79s WALL (      76 calls)
     sum_band:ini :      2.20s CPU      2.23s WALL (      76 calls)
     sum_band:cal :     11.52s CPU     11.65s WALL (      76 calls)
     sum_band:bec :      0.24s CPU      0.24s WALL (      76 calls)
     addusdens    :      1.21s CPU      1.23s WALL (      19 calls)
                                        0.00s GPU  (      19 calls)
     addusd:skk   :      0.02s CPU      0.02s WALL (      57 calls)
                                        0.00s GPU  (      57 calls)

     Called by *egterg:
     cdiaghg      :     43.28s CPU     43.85s WALL (     511 calls)
     cegterg:over :     26.42s CPU     26.71s WALL (     439 calls)
     cegterg:upda :     28.40s CPU     28.72s WALL (     439 calls)
     cegterg:last :     37.07s CPU     37.45s WALL (     156 calls)
     cdiaghg:chol :      2.56s CPU      2.62s WALL (     511 calls)
     cdiaghg:inve :      3.70s CPU      3.73s WALL (     511 calls)
     cdiaghg:para :      6.33s CPU      6.39s WALL (    1022 calls)
     h_psi        :    173.61s CPU    176.83s WALL (     519 calls)
     s_psi        :     35.30s CPU     35.62s WALL (     519 calls)
     g_psi        :      0.83s CPU      0.85s WALL (     439 calls)

     Called by h_psi:
     h_psi:calbec :     35.28s CPU     35.67s WALL (     519 calls)
     vloc_psi     :    101.70s CPU    102.88s WALL (     519 calls)
     add_vuspsi   :     35.32s CPU     35.83s WALL (     519 calls)

     General routines
     calbec       :     46.80s CPU     47.31s WALL (     595 calls)
     fft          :      1.72s CPU      2.20s WALL (     399 calls)
     ffts         :      0.10s CPU      0.10s WALL (      38 calls)
     fftw         :    113.00s CPU    114.29s WALL (  158346 calls)
 
     Parallel routines

     PAW routines
     PAW_pot      :      1.94s CPU      2.02s WALL (      19 calls)
     PAW_symme    :      0.08s CPU      0.09s WALL (      38 calls)
 
     PWSCF        :   7m38.16s CPU   7m52.37s WALL

 
   This run was terminated on:   4: 2:42   7Jul2024            

=------------------------------------------------------------------------------=
   JOB DONE.
=------------------------------------------------------------------------------=
